 Gaussian 16, Revision A.03,
 Gaussian 16:  EM64L-G16RevA.03 25-Dec-2016

 -------------
 #p 6-31g* mp2
 -------------

 ------------------------------------------------------
 Input file generated by CHIRIPA (05-May-2021 14:53:12)
 ------------------------------------------------------
 Symbolic Z-matrix:
 Charge =  0 Multiplicity = 1

                         Standard orientation:
 ---------------------------------------------------------------------
 Center     Atomic      Atomic             Coordinates (Angstroms)
 Number     Number       Type             X           Y           Z
 ---------------------------------------------------------------------
      1          6           0        3.974049   -0.266036    0.334824
      2          6           0        3.547576   -1.729696    0.217328
      3          6           0        2.127221   -1.974374    0.727737
      4          1           0        3.901333    0.047250    1.385304
      5          1           0        3.268219    0.360583   -0.227802
      6          1           0        4.254792   -2.353505    0.778865
      7          1           0        3.621499   -2.039590   -0.832966
      8          1           0        1.405950   -1.376536    0.161205
      9          1           0        2.042841   -1.692235    1.782194
     10          1           0        1.842874   -3.027133    0.634426
     11          6           0        5.391651   -0.005573   -0.171429
     12          6           0        5.818124    1.458087   -0.053934
     13          6           0        7.238480    1.702765   -0.564343
     14          1           0        6.097481   -0.632192    0.391197
     15          1           0        5.464367   -0.318859   -1.221910
     16          1           0        5.744201    1.767981    0.996360
     17          1           0        5.110908    2.081896   -0.615470
     18          1           0        7.322859    1.420626   -1.618799
     19          1           0        7.959751    1.104927    0.002189
     20          1           0        7.522827    2.755524   -0.471031
     21          6           0       -5.881591    1.291950    0.068220
     22          6           0       -4.712329    1.950718    0.462392
     23          6           0       -3.475059    1.303443    0.393495
     24          6           0       -3.443554   -0.008547   -0.076592
     25          6           0       -4.590977   -0.691673   -0.476653
     26          6           0       -5.817297   -0.024821   -0.399219
     27          1           0       -6.838479    1.802373    0.125058
     28          1           0       -4.759250    2.973345    0.825816
     29          1           0       -2.554376    1.789810    0.692172
     30          1           0       -4.512479   -1.711023   -0.834679
     31          1           0       -6.723740   -0.538906   -0.706016
     32          7           0       -2.139508   -0.704150   -0.154049
     33          8           0       -2.138536   -1.860062   -0.571786
     34          8           0       -1.143061   -0.080282    0.204446
 ---------------------------------------------------------------------

 SCF Done:  E(RHF) =  -669.536306020     A.U. after   15 cycles
 E2 =    -0.2090993744D+01 EUMP2 =    -0.67162729976404D+03

 The electronic state is 1-A.
 Alpha  occ. eigenvalues --  -20.60989 -20.60969 -15.85998 -11.31314 -11.27872
 Alpha  occ. eigenvalues --  -11.27869 -11.27608 -11.26877 -11.26867 -11.20927
 Alpha  occ. eigenvalues --  -11.20531 -11.20525 -11.20277 -11.20215 -11.19104
 Alpha  occ. eigenvalues --   -1.60030  -1.39587  -1.19478  -1.08885  -1.07429
 Alpha  occ. eigenvalues --   -1.04872  -1.02434  -0.95729  -0.94850  -0.86274
 Alpha  occ. eigenvalues --   -0.85859  -0.82561  -0.78544  -0.77615  -0.77183
 Alpha  occ. eigenvalues --   -0.72213  -0.71341  -0.70586  -0.65133  -0.64875
 Alpha  occ. eigenvalues --   -0.64071  -0.62219  -0.59836  -0.58319  -0.56458
 Alpha  occ. eigenvalues --   -0.55380  -0.54136  -0.53205  -0.52964  -0.51545
 Alpha  occ. eigenvalues --   -0.51285  -0.49187  -0.48968  -0.48577  -0.46789
 Alpha  occ. eigenvalues --   -0.45578  -0.45002  -0.44719  -0.44589  -0.42700
 Alpha  occ. eigenvalues --   -0.37457  -0.36473
 Alpha virt. eigenvalues --    0.04918   0.11183   0.16421   0.21321   0.23788
 Alpha virt. eigenvalues --    0.25478   0.27238   0.27623   0.28196   0.28447
 Alpha virt. eigenvalues --    0.29258   0.30887   0.32399   0.32553   0.32690

 Mulliken charges:
               1
     1  C   -0.297331
     2  C   -0.299723
     3  C   -0.482889
     4  H    0.147135
     5  H    0.152480
     6  H    0.145250
     7  H    0.148816
     8  H    0.184394
     9  H    0.147818
    10  H    0.155981
    11  C   -0.297410
    12  C   -0.298766
    13  C   -0.475079
    14  H    0.147336
    15  H    0.148274
    16  H    0.150524
    17  H    0.151178
    18  H    0.154386
    19  H    0.154192
    20  H    0.157774
    21  C   -0.170552
    22  C   -0.218557
    23  C   -0.170803
    24  C    0.157925
    25  C   -0.170678
    26  C   -0.218598
    27  H    0.226050
    28  H    0.223903
    29  H    0.275934
    30  H    0.275940
    31  H    0.223883
    32  N    0.488988
    33  O   -0.458496
    34  O   -0.459277
 Sum of Mulliken charges =  -0.00000

 Dipole moment (field-independent basis, Debye):
    X=             -5.0300    Y=              2.4848    Z=              0.2213  Tot=              5.6146
 Quadrupole moment (field-independent basis, Debye-Ang):
   XX=            -64.9095   YY=            -92.0931   ZZ=            -94.3542
   XY=             -6.6927   XZ=              0.9103   YZ=              1.6384

 Normal termination of Gaussian 16 at Thu May  6 10:23:24 2021.
