 Gaussian 16, Revision A.03,
 Gaussian 16:  EM64L-G16RevA.03 25-Dec-2016

 -------------
 #p 6-31g* mp2
 -------------

 ------------------------------------------------------
 Input file generated by CHIRIPA (05-May-2021 14:55:20)
 ------------------------------------------------------
 Symbolic Z-matrix:
 Charge =  0 Multiplicity = 1

                         Standard orientation:
 ---------------------------------------------------------------------
 Center     Atomic      Atomic             Coordinates (Angstroms)
 Number     Number       Type             X           Y           Z
 ---------------------------------------------------------------------
      1          6           0        0.366663   -0.877237    1.352841
      2          6           0        1.128548    0.240068    1.710165
      3          6           0        2.354726    0.491915    1.087584
      4          6           0        2.790668   -0.398306    0.107404
      5          6           0        2.054468   -1.520117   -0.270537
      6          6           0        0.831235   -1.752221    0.365371
      7          1           0       -0.584718   -1.065210    1.841653
      8          1           0        0.770244    0.921299    2.476709
      9          1           0        2.964744    1.349296    1.344863
     10          1           0        2.437880   -2.181218   -1.038233
     11          1           0        0.241662   -2.620732    0.085839
     12          7           0        4.087209   -0.142137   -0.558749
     13          8           0        4.449122   -0.941605   -1.419276
     14          8           0        4.716973    0.853265   -0.207739
     15          6           0       -2.807132    1.002091   -0.665200
     16          6           0       -1.944496    1.887136    0.235100
     17          6           0       -0.966443    2.757967   -0.554114
     18          1           0       -2.153848    0.362539   -1.274412
     19          1           0       -3.364714    1.637834   -1.366861
     20          1           0       -1.389757    1.250000    0.935770
     21          1           0       -2.599914    2.524519    0.842377
     22          1           0       -1.506050    3.417339   -1.241612
     23          1           0       -0.289017    2.135579   -1.147687
     24          1           0       -0.359825    3.382545    0.109043
     25          6           0       -3.789944    0.125655    0.109183
     26          6           0       -4.652579   -0.759390   -0.791117
     27          6           0       -5.630633   -1.630221   -0.001903
     28          1           0       -3.232362   -0.510089    0.810843
     29          1           0       -4.443228    0.765206    0.718394
     30          1           0       -3.997161   -1.396774   -1.398394
     31          1           0       -5.207317   -0.122255   -1.491788
     32          1           0       -6.308058   -1.007834    0.591670
     33          1           0       -5.091025   -2.289594    0.685594
     34          1           0       -6.237250   -2.254800   -0.665060
 ---------------------------------------------------------------------

 SCF Done:  E(RHF) =  -669.534240094     A.U. after   15 cycles
 E2 =    -0.2094154894D+01 EUMP2 =    -0.67162839498824D+03

 The electronic state is 1-A.
 Alpha  occ. eigenvalues --  -20.60817 -20.60810 -15.85872 -11.31268 -11.27847
 Alpha  occ. eigenvalues --  -11.27834 -11.27591 -11.26869 -11.26850 -11.22273
 Alpha  occ. eigenvalues --  -11.22167 -11.22105 -11.21953 -11.21708 -11.21455
 Alpha  occ. eigenvalues --   -1.59892  -1.39444  -1.19456  -1.09099  -1.08832
 Alpha  occ. eigenvalues --   -1.04863  -1.04108  -0.96557  -0.95678  -0.87566
 Alpha  occ. eigenvalues --   -0.86265  -0.82501  -0.80195  -0.78915  -0.77536
 Alpha  occ. eigenvalues --   -0.72091  -0.71216  -0.70585  -0.65757  -0.65107
 Alpha  occ. eigenvalues --   -0.64845  -0.62219  -0.61522  -0.59932  -0.58182
 Alpha  occ. eigenvalues --   -0.55878  -0.55355  -0.53270  -0.53123  -0.52974
 Alpha  occ. eigenvalues --   -0.52938  -0.50494  -0.48853  -0.48843  -0.48499
 Alpha  occ. eigenvalues --   -0.47248  -0.46447  -0.46370  -0.44843  -0.44387
 Alpha  occ. eigenvalues --   -0.37341  -0.36427
 Alpha virt. eigenvalues --    0.04959   0.11090   0.16327   0.19725   0.22777
 Alpha virt. eigenvalues --    0.23702   0.25118   0.26301   0.26521   0.27990
 Alpha virt. eigenvalues --    0.29728   0.30744   0.30925   0.31349   0.31846

 Mulliken charges:
               1
     1  C   -0.171634
     2  C   -0.215749
     3  C   -0.171288
     4  C    0.157989
     5  C   -0.171060
     6  C   -0.220550
     7  H    0.228843
     8  H    0.225132
     9  H    0.276153
    10  H    0.275995
    11  H    0.223755
    12  N    0.488101
    13  O   -0.460283
    14  O   -0.459975
    15  C   -0.299103
    16  C   -0.302335
    17  C   -0.475055
    18  H    0.151046
    19  H    0.152710
    20  H    0.147439
    21  H    0.150711
    22  H    0.157093
    23  H    0.159994
    24  H    0.157215
    25  C   -0.297634
    26  C   -0.299931
    27  C   -0.475589
    28  H    0.138307
    29  H    0.151941
    30  H    0.151021
    31  H    0.155359
    32  H    0.156774
    33  H    0.151927
    34  H    0.162680
 Sum of Mulliken charges =  -0.00000

 Dipole moment (field-independent basis, Debye):
    X=             -4.5628    Y=             -0.8779    Z=              2.2645  Tot=              5.1689
 Quadrupole moment (field-independent basis, Debye-Ang):
   XX=           -120.6774   YY=            -90.8572   ZZ=            -93.3844
   XY=             -1.1675   XZ=              7.1613   YZ=              1.7944

 Normal termination of Gaussian 16 at Wed May  5 20:33:06 2021.
