 Gaussian 16, Revision A.03,
 Gaussian 16:  EM64L-G16RevA.03 25-Dec-2016

 -------------
 #p 6-31g* mp2
 -------------

 ------------------------------------------------------
 Input file generated by CHIRIPA (05-May-2021 14:55:23)
 ------------------------------------------------------
 Symbolic Z-matrix:
 Charge =  0 Multiplicity = 1

                         Standard orientation:
 ---------------------------------------------------------------------
 Center     Atomic      Atomic             Coordinates (Angstroms)
 Number     Number       Type             X           Y           Z
 ---------------------------------------------------------------------
      1          6           0        0.699925   -1.733500   -0.180650
      2          6           0        0.572652   -0.384506   -0.527838
      3          6           0        1.674352    0.473418   -0.458754
      4          6           0        2.893852   -0.053571   -0.036390
      5          6           0        3.052466   -1.392899    0.316216
      6          6           0        1.937245   -2.232511    0.239528
      7          1           0       -0.161154   -2.392843   -0.237269
      8          1           0       -0.387039    0.005790   -0.854499
      9          1           0        1.603888    1.521917   -0.721628
     10          1           0        4.022067   -1.752912    0.638212
     11          1           0        2.039028   -3.279721    0.509778
     12          7           0        4.067330    0.844982    0.040771
     13          8           0        5.130792    0.356176    0.415943
     14          8           0        3.901419    2.021059   -0.275384
     15          6           0       -3.125597   -0.417349   -0.069866
     16          6           0       -4.062287   -1.605471    0.151415
     17          6           0       -3.385691   -2.949859   -0.118089
     18          1           0       -2.751675   -0.440763   -1.102619
     19          1           0       -2.248128   -0.524635    0.582768
     20          1           0       -4.938392   -1.495266   -0.500437
     21          1           0       -4.434175   -1.579118    1.183704
     22          1           0       -2.522610   -3.085870    0.541603
     23          1           0       -3.029693   -3.001541   -1.152107
     24          1           0       -4.073253   -3.785407    0.046159
     25          6           0       -3.787552    0.933606    0.195581
     26          6           0       -2.850862    2.121728   -0.025700
     27          6           0       -3.527459    3.466116    0.243804
     28          1           0       -4.665022    1.040893   -0.457053
     29          1           0       -4.161475    0.957021    1.228333
     30          1           0       -2.478976    2.095375   -1.057990
     31          1           0       -1.974758    2.011522    0.626152
     32          1           0       -3.883457    3.517798    1.277823
     33          1           0       -4.390539    3.602127   -0.415888
     34          1           0       -2.839897    4.301665    0.079555
 ---------------------------------------------------------------------

 SCF Done:  E(RHF) =  -669.534628425     A.U. after   15 cycles
 E2 =    -0.2093656240D+01 EUMP2 =    -0.67162828466488D+03

 The electronic state is 1-A.
 Alpha  occ. eigenvalues --  -20.60668 -20.60662 -15.85717 -11.31050 -11.27617
 Alpha  occ. eigenvalues --  -11.27578 -11.27282 -11.26626 -11.26472 -11.22738
 Alpha  occ. eigenvalues --  -11.22645 -11.22548 -11.22376 -11.22354 -11.21732
 Alpha  occ. eigenvalues --   -1.59744  -1.39298  -1.19208  -1.09550  -1.08601
 Alpha  occ. eigenvalues --   -1.04600  -1.04564  -0.97029  -0.95451  -0.88041
 Alpha  occ. eigenvalues --   -0.86013  -0.82284  -0.80665  -0.79451  -0.77311
 Alpha  occ. eigenvalues --   -0.71936  -0.71066  -0.70313  -0.66151  -0.64850
 Alpha  occ. eigenvalues --   -0.64610  -0.61973  -0.61943  -0.60402  -0.58658
 Alpha  occ. eigenvalues --   -0.56324  -0.55099  -0.53686  -0.53451  -0.52942
 Alpha  occ. eigenvalues --   -0.52659  -0.50954  -0.48958  -0.48698  -0.48695
 Alpha  occ. eigenvalues --   -0.47678  -0.46832  -0.46775  -0.44824  -0.44711
 Alpha  occ. eigenvalues --   -0.37171  -0.36195
 Alpha virt. eigenvalues --    0.05164   0.11321   0.16605   0.20074   0.22289
 Alpha virt. eigenvalues --    0.22630   0.24693   0.25971   0.26201   0.28658
 Alpha virt. eigenvalues --    0.29613   0.30473   0.30717   0.31441   0.31994

 Mulliken charges:
               1
     1  C   -0.180683
     2  C   -0.226705
     3  C   -0.174414
     4  C    0.158683
     5  C   -0.171410
     6  C   -0.219708
     7  H    0.234044
     8  H    0.237867
     9  H    0.275329
    10  H    0.274894
    11  H    0.222923
    12  N    0.487993
    13  O   -0.460941
    14  O   -0.460789
    15  C   -0.312125
    16  C   -0.298041
    17  C   -0.482307
    18  H    0.144915
    19  H    0.153247
    20  H    0.156669
    21  H    0.156898
    22  H    0.150917
    23  H    0.154694
    24  H    0.167680
    25  C   -0.296553
    26  C   -0.305822
    27  C   -0.476056
    28  H    0.153050
    29  H    0.154114
    30  H    0.148390
    31  H    0.153786
    32  H    0.158087
    33  H    0.157165
    34  H    0.164210
 Sum of Mulliken charges =  -0.00000

 Dipole moment (field-independent basis, Debye):
    X=             -4.4972    Y=             -3.0901    Z=             -0.2022  Tot=              5.4603
 Quadrupole moment (field-independent basis, Debye-Ang):
   XX=           -116.4676   YY=            -92.3756   ZZ=            -94.0991
   XY=            -11.1871   XZ=              0.4859   YZ=             -1.4259

 Normal termination of Gaussian 16 at Thu May  6 06:18:23 2021.
