 Gaussian 16, Revision A.03,
 Gaussian 16:  EM64L-G16RevA.03 25-Dec-2016

 -------------
 #p 6-31g* mp2
 -------------

 ------------------------------------------------------
 Input file generated by CHIRIPA (05-May-2021 14:57:23)
 ------------------------------------------------------
 Symbolic Z-matrix:
 Charge =  0 Multiplicity = 1

                         Standard orientation:
 ---------------------------------------------------------------------
 Center     Atomic      Atomic             Coordinates (Angstroms)
 Number     Number       Type             X           Y           Z
 ---------------------------------------------------------------------
      1          6           0       -6.584721   -1.257151   -0.330237
      2          6           0       -5.391935   -1.968302   -0.162769
      3          6           0       -4.185808   -1.292749    0.045639
      4          6           0       -4.209095    0.100627    0.081013
      5          6           0       -5.381130    0.837441   -0.082476
      6          6           0       -6.575528    0.140986   -0.289628
      7          1           0       -7.517114   -1.790055   -0.491646
      8          1           0       -5.396074   -3.054149   -0.193837
      9          1           0       -3.247951   -1.818349    0.178255
     10          1           0       -5.345384    1.919499   -0.046549
     11          1           0       -7.500348    0.695891   -0.419374
     12          7           0       -2.938431    0.826869    0.300981
     13          8           0       -2.985642    2.054745    0.327960
     14          8           0       -1.919333    0.154469    0.442248
     15          6           0        2.486964    1.641167   -0.106597
     16          6           0        3.795754    2.104330   -0.277094
     17          6           0        4.873657    1.214597   -0.244691
     18          6           0        4.605251   -0.137752   -0.038782
     19          6           0        3.312534   -0.629895    0.134335
     20          6           0        2.249949    0.277935    0.098214
     21          1           0        1.655573    2.339361   -0.133212
     22          1           0        3.982807    3.162490   -0.436324
     23          1           0        5.896816    1.546091   -0.373821
     24          1           0        3.157512   -1.690443    0.291258
     25          1           0        1.234568   -0.084601    0.230925
     26          7           0        5.738270   -1.089252   -0.002509
     27          8           0        5.475259   -2.275843    0.180421
     28          8           0        6.867888   -0.630429   -0.157697
 ---------------------------------------------------------------------

 SCF Done:  E(RHF) =  -868.340699064     A.U. after   16 cycles
 E2 =    -0.2597977486D+01 EUMP2 =    -0.87093867655078D+03

 The electronic state is 1-A.
 Alpha  occ. eigenvalues --  -20.61835 -20.61812 -20.60045 -20.60040 -15.86854
 Alpha  occ. eigenvalues --  -15.85088 -11.31904 -11.30237 -11.28438 -11.28426
 Alpha  occ. eigenvalues --  -11.28111 -11.27375 -11.27365 -11.26802 -11.26719
 Alpha  occ. eigenvalues --  -11.26326 -11.25759 -11.25505  -1.60885  -1.59125
 Alpha  occ. eigenvalues --   -1.40448  -1.38685  -1.20044  -1.18358  -1.09497
 Alpha  occ. eigenvalues --   -1.07766  -1.05400  -1.03719  -0.96386  -0.94650
 Alpha  occ. eigenvalues --   -0.86813  -0.85102  -0.83232  -0.81491  -0.78312
 Alpha  occ. eigenvalues --   -0.76589  -0.73097  -0.72178  -0.71311  -0.71147
 Alpha  occ. eigenvalues --   -0.70446  -0.69409  -0.65702  -0.65398  -0.63988
 Alpha  occ. eigenvalues --   -0.63659  -0.62752  -0.61058  -0.55908  -0.54135
 Alpha  occ. eigenvalues --   -0.53745  -0.53487  -0.52077  -0.51769  -0.49857
 Alpha  occ. eigenvalues --   -0.49813  -0.48081  -0.48042  -0.45918  -0.44140
 Alpha  occ. eigenvalues --   -0.38002  -0.36988  -0.36297  -0.35336
 Alpha virt. eigenvalues --    0.04204   0.05916   0.10671   0.12331   0.15763
 Alpha virt. eigenvalues --    0.17492   0.20830   0.22639   0.26777   0.27600
 Alpha virt. eigenvalues --    0.28525   0.29490   0.30450   0.31791   0.32336

 Mulliken charges:
               1
     1  C   -0.169638
     2  C   -0.218421
     3  C   -0.170166
     4  C    0.157504
     5  C   -0.170216
     6  C   -0.218520
     7  H    0.228226
     8  H    0.225912
     9  H    0.274599
    10  H    0.276127
    11  H    0.225589
    12  N    0.492679
    13  O   -0.458948
    14  O   -0.472263
    15  C   -0.173625
    16  C   -0.219290
    17  C   -0.173153
    18  C    0.157992
    19  C   -0.173801
    20  C   -0.226566
    21  H    0.234616
    22  H    0.220495
    23  H    0.271995
    24  H    0.272053
    25  H    0.245003
    26  N    0.488227
    27  O   -0.463174
    28  O   -0.463239
 Sum of Mulliken charges =  -0.00000

 Dipole moment (field-independent basis, Debye):
    X=             -9.1323    Y=              0.8325    Z=             -0.9036  Tot=              9.2146
 Quadrupole moment (field-independent basis, Debye-Ang):
   XX=           -101.8252   YY=            -99.9106   ZZ=           -106.6021
   XY=             27.1618   XZ=              2.2765   YZ=             -1.2926

 Normal termination of Gaussian 16 at Fri May  7 09:30:24 2021.
