 Gaussian 16, Revision A.03,
 Gaussian 16:  EM64L-G16RevA.03 25-Dec-2016

 -------------
 #p 6-31g* mp2
 -------------

 ------------------------------------------------------
 Input file generated by CHIRIPA (05-May-2021 14:53:14)
 ------------------------------------------------------
 Symbolic Z-matrix:
 Charge =  0 Multiplicity = 1

                         Standard orientation:
 ---------------------------------------------------------------------
 Center     Atomic      Atomic             Coordinates (Angstroms)
 Number     Number       Type             X           Y           Z
 ---------------------------------------------------------------------
      1          6           0        2.360016   -0.762797   -0.266302
      2          6           0        3.382847   -1.734412    0.323415
      3          6           0        2.867949   -3.173017    0.379005
      4          1           0        1.439566   -0.801442    0.332216
      5          1           0        2.089285   -1.095672   -1.277883
      6          1           0        3.652605   -1.399033    1.333052
      7          1           0        4.301037   -1.693310   -0.276462
      8          1           0        2.616553   -3.531255   -0.624522
      9          1           0        1.964437   -3.235306    0.994138
     10          1           0        3.615022   -3.850675    0.803882
     11          6           0        2.860145    0.679330   -0.328486
     12          6           0        1.837315    1.650945   -0.918204
     13          6           0        2.352213    3.089550   -0.973793
     14          1           0        3.130876    1.012204    0.683094
     15          1           0        3.780595    0.717974   -0.927004
     16          1           0        0.919125    1.609842   -0.318326
     17          1           0        1.567556    1.315565   -1.927841
     18          1           0        3.255724    3.151839   -1.588926
     19          1           0        2.603609    3.447788    0.029734
     20          1           0        1.605139    3.767208   -1.398670
     21          6           0       -1.120732    1.857138    1.713404
     22          6           0       -1.693218    2.179659    0.478591
     23          6           0       -2.205233    1.176924   -0.350209
     24          6           0       -2.127912   -0.143784    0.089156
     25          6           0       -1.563564   -0.496935    1.313935
     26          6           0       -1.057844    0.522225    2.126407
     27          1           0       -0.725431    2.642466    2.350894
     28          1           0       -1.743414    3.215511    0.155269
     29          1           0       -2.653755    1.398536   -1.311008
     30          1           0       -1.527815   -1.538585    1.609068
     31          1           0       -0.613802    0.268808    3.084871
     32          7           0       -2.666628   -1.214029   -0.779615
     33          8           0       -2.586444   -2.369924   -0.369596
     34          8           0       -3.158857   -0.876727   -1.854127
 ---------------------------------------------------------------------

 SCF Done:  E(RHF) =  -669.534412764     A.U. after   15 cycles
 E2 =    -0.2095064917D+01 EUMP2 =    -0.67162947768129D+03

 The electronic state is 1-A.
 Alpha  occ. eigenvalues --  -20.60857 -20.60851 -15.85912 -11.31347 -11.27936
 Alpha  occ. eigenvalues --  -11.27890 -11.27640 -11.26960 -11.26902 -11.21644
 Alpha  occ. eigenvalues --  -11.21572 -11.21483 -11.21411 -11.21352 -11.21038
 Alpha  occ. eigenvalues --   -1.59930  -1.39481  -1.19537  -1.08917  -1.08494
 Alpha  occ. eigenvalues --   -1.04944  -1.03625  -0.96094  -0.95728  -0.87104
 Alpha  occ. eigenvalues --   -0.86325  -0.82556  -0.79686  -0.78315  -0.77593
 Alpha  occ. eigenvalues --   -0.72129  -0.71251  -0.70618  -0.65199  -0.65146
 Alpha  occ. eigenvalues --   -0.64925  -0.62274  -0.61064  -0.59482  -0.57703
 Alpha  occ. eigenvalues --   -0.55422  -0.55396  -0.53428  -0.53016  -0.52756
 Alpha  occ. eigenvalues --   -0.52508  -0.50038  -0.48894  -0.48881  -0.47996
 Alpha  occ. eigenvalues --   -0.46724  -0.45822  -0.45657  -0.44871  -0.43868
 Alpha  occ. eigenvalues --   -0.37450  -0.36470
 Alpha virt. eigenvalues --    0.04912   0.11062   0.16355   0.20985   0.22958
 Alpha virt. eigenvalues --    0.23916   0.26428   0.27156   0.27320   0.27884
 Alpha virt. eigenvalues --    0.28334   0.30350   0.31291   0.31850   0.32100

 Mulliken charges:
               1
     1  C   -0.302665
     2  C   -0.299711
     3  C   -0.474708
     4  H    0.149909
     5  H    0.152750
     6  H    0.147972
     7  H    0.152484
     8  H    0.159633
     9  H    0.152659
    10  H    0.159766
    11  C   -0.296040
    12  C   -0.311377
    13  C   -0.474889
    14  H    0.144183
    15  H    0.149770
    16  H    0.164820
    17  H    0.152531
    18  H    0.157609
    19  H    0.150218
    20  H    0.154918
    21  C   -0.172570
    22  C   -0.220138
    23  C   -0.168332
    24  C    0.161616
    25  C   -0.171836
    26  C   -0.216638
    27  H    0.226952
    28  H    0.225089
    29  H    0.276488
    30  H    0.276563
    31  H    0.224577
    32  N    0.488166
    33  O   -0.459836
    34  O   -0.459931
 Sum of Mulliken charges =  -0.00000

 Dipole moment (field-independent basis, Debye):
    X=              1.7046    Y=              3.7049    Z=              3.0475  Tot=              5.0911
 Quadrupole moment (field-independent basis, Debye-Ang):
   XX=           -103.4513   YY=            -95.1332   ZZ=            -91.3441
   XY=            -10.0047   XZ=             -5.8355   YZ=             -2.2741

 Normal termination of Gaussian 16 at Wed May  5 15:35:58 2021.
