 Gaussian 16, Revision A.03,
 Gaussian 16:  EM64L-G16RevA.03 25-Dec-2016

 -------------
 #p 6-31g* mp2
 -------------

 ------------------------------------------------------
 Input file generated by CHIRIPA (05-May-2021 14:55:23)
 ------------------------------------------------------
 Symbolic Z-matrix:
 Charge =  0 Multiplicity = 1

                         Standard orientation:
 ---------------------------------------------------------------------
 Center     Atomic      Atomic             Coordinates (Angstroms)
 Number     Number       Type             X           Y           Z
 ---------------------------------------------------------------------
      1          6           0        3.361675    2.697066   -0.076279
      2          6           0        4.188670    1.800731   -0.761249
      3          6           0        3.960904    0.423525   -0.683954
      4          6           0        2.892319   -0.024702    0.090971
      5          6           0        2.050695    0.843199    0.785022
      6          6           0        2.297204    2.216287    0.693313
      7          1           0        3.545890    3.765313   -0.141922
      8          1           0        5.016095    2.171263   -1.359679
      9          1           0        4.585545   -0.292571   -1.204001
     10          1           0        1.233697    0.443832    1.373613
     11          1           0        1.653314    2.910067    1.226342
     12          7           0        2.641272   -1.480509    0.180429
     13          8           0        1.693245   -1.850067    0.869855
     14          8           0        3.397283   -2.224445   -0.440573
     15          6           0       -3.110068   -0.629457    0.107468
     16          6           0       -3.021398   -2.069571   -0.398689
     17          6           0       -1.725248   -2.764435    0.019588
     18          1           0       -2.249202   -0.061063   -0.270396
     19          1           0       -3.029130   -0.627687    1.203297
     20          1           0       -3.103868   -2.068743   -1.493136
     21          1           0       -3.882678   -2.634554   -0.019733
     22          1           0       -1.639157   -2.794791    1.110582
     23          1           0       -0.855923   -2.225765   -0.371192
     24          1           0       -1.682746   -3.792716   -0.352823
     25          6           0       -4.400191    0.078462   -0.302610
     26          6           0       -4.488861    1.518576    0.203548
     27          6           0       -5.785010    2.213439   -0.214731
     28          1           0       -4.481129    0.076693   -1.398439
     29          1           0       -5.261057   -0.489932    0.075254
     30          1           0       -3.627581    2.083559   -0.175409
     31          1           0       -4.406390    1.517749    1.297994
     32          1           0       -6.654336    1.674771    0.176050
     33          1           0       -5.871102    2.243796   -1.305725
     34          1           0       -5.827512    3.241721    0.157680
 ---------------------------------------------------------------------

 SCF Done:  E(RHF) =  -669.535772251     A.U. after   15 cycles
 E2 =    -0.2091091431D+01 EUMP2 =    -0.67162686368177D+03

 The electronic state is 1-A.
 Alpha  occ. eigenvalues --  -20.60874 -20.60858 -15.85895 -11.31247 -11.27814
 Alpha  occ. eigenvalues --  -11.27806 -11.27556 -11.26828 -11.26817 -11.21573
 Alpha  occ. eigenvalues --  -11.21180 -11.21066 -11.21041 -11.20914 -11.19874
 Alpha  occ. eigenvalues --   -1.59932  -1.39487  -1.19419  -1.08819  -1.08114
 Alpha  occ. eigenvalues --   -1.04818  -1.03102  -0.95663  -0.95506  -0.86521
 Alpha  occ. eigenvalues --   -0.86216  -0.82487  -0.79196  -0.77904  -0.77529
 Alpha  occ. eigenvalues --   -0.72116  -0.71251  -0.70526  -0.65073  -0.64820
 Alpha  occ. eigenvalues --   -0.64754  -0.62163  -0.60504  -0.58965  -0.57123
 Alpha  occ. eigenvalues --   -0.55322  -0.54798  -0.53152  -0.52909  -0.52193
 Alpha  occ. eigenvalues --   -0.51923  -0.49469  -0.48884  -0.48876  -0.47489
 Alpha  occ. eigenvalues --   -0.46274  -0.45490  -0.45365  -0.44726  -0.43374
 Alpha  occ. eigenvalues --   -0.37401  -0.36422
 Alpha virt. eigenvalues --    0.04966   0.11224   0.16438   0.21286   0.23103
 Alpha virt. eigenvalues --    0.24646   0.26747   0.27203   0.27650   0.28281
 Alpha virt. eigenvalues --    0.28794   0.30909   0.31837   0.31987   0.32518

 Mulliken charges:
               1
     1  C   -0.170748
     2  C   -0.218573
     3  C   -0.170959
     4  C    0.158020
     5  C   -0.171694
     6  C   -0.218625
     7  H    0.225838
     8  H    0.223643
     9  H    0.275736
    10  H    0.276728
    11  H    0.223992
    12  N    0.487814
    13  O   -0.458065
    14  O   -0.459471
    15  C   -0.296629
    16  C   -0.301441
    17  C   -0.473111
    18  H    0.145059
    19  H    0.148061
    20  H    0.149023
    21  H    0.149133
    22  H    0.156591
    23  H    0.164694
    24  H    0.158964
    25  C   -0.297560
    26  C   -0.298924
    27  C   -0.475324
    28  H    0.149241
    29  H    0.150103
    30  H    0.148267
    31  H    0.150639
    32  H    0.155964
    33  H    0.155243
    34  H    0.158369
 Sum of Mulliken charges =  -0.00000

 Dipole moment (field-independent basis, Debye):
    X=              1.0754    Y=              5.0484    Z=             -0.2895  Tot=              5.1698
 Quadrupole moment (field-independent basis, Debye-Ang):
   XX=            -87.9990   YY=            -95.6650   ZZ=            -92.9356
   XY=             15.0001   XZ=             -4.2608   YZ=              0.8518

 Normal termination of Gaussian 16 at Wed May  5 22:19:28 2021.
