 Gaussian 16, Revision A.03,
 Gaussian 16:  EM64L-G16RevA.03 25-Dec-2016

 -------------
 #p 6-31g* mp2
 -------------

 ------------------------------------------------------
 Input file generated by CHIRIPA (05-May-2021 14:55:21)
 ------------------------------------------------------
 Symbolic Z-matrix:
 Charge =  0 Multiplicity = 1

                         Standard orientation:
 ---------------------------------------------------------------------
 Center     Atomic      Atomic             Coordinates (Angstroms)
 Number     Number       Type             X           Y           Z
 ---------------------------------------------------------------------
      1          6           0        0.928619   -1.659619    0.384486
      2          6           0        2.166562   -2.186164    0.767588
      3          6           0        3.342356   -1.458804    0.560213
      4          6           0        3.243019   -0.202429   -0.035560
      5          6           0        2.024540    0.349312   -0.428217
      6          6           0        0.861677   -0.395789   -0.211144
      7          1           0        0.020256   -2.231541    0.549346
      8          1           0        2.221569   -3.167411    1.230378
      9          1           0        4.313890   -1.842498    0.847125
     10          1           0        2.001517    1.330206   -0.887276
     11          1           0       -0.098347    0.015642   -0.509680
     12          7           0        4.480935    0.576985   -0.260231
     13          8           0        4.366563    1.681541   -0.787027
     14          8           0        5.542145    0.068577    0.094721
     15          6           0       -4.393450   -0.129866    0.151852
     16          6           0       -4.188263   -1.388043   -0.692465
     17          6           0       -5.203265   -2.486112   -0.373388
     18          1           0       -4.326537   -0.395073    1.215869
     19          1           0       -5.410963    0.251249   -0.011898
     20          1           0       -3.170973   -1.765884   -0.528228
     21          1           0       -4.255481   -1.119776   -1.754600
     22          1           0       -6.223314   -2.132442   -0.555094
     23          1           0       -5.132644   -2.782221    0.678245
     24          1           0       -5.038258   -3.376335   -0.988317
     25          6           0       -3.386379    0.976934   -0.155612
     26          6           0       -3.591566    2.235112    0.688704
     27          6           0       -2.576564    3.333181    0.369627
     28          1           0       -2.368866    0.595819    0.008138
     29          1           0       -3.453292    1.242141   -1.219629
     30          1           0       -3.524349    1.966845    1.750840
     31          1           0       -4.608857    2.612953    0.524468
     32          1           0       -2.647185    3.629289   -0.682006
     33          1           0       -1.556515    2.979510    0.551334
     34          1           0       -2.741571    4.223403    0.984555
 ---------------------------------------------------------------------

 SCF Done:  E(RHF) =  -669.535584081     A.U. after   15 cycles
 E2 =    -0.2091409389D+01 EUMP2 =    -0.67162699347007D+03

 The electronic state is 1-A.
 Alpha  occ. eigenvalues --  -20.60739 -20.60734 -15.85792 -11.31160 -11.27733
 Alpha  occ. eigenvalues --  -11.27721 -11.27477 -11.26750 -11.26709 -11.22571
 Alpha  occ. eigenvalues --  -11.22437 -11.22348 -11.22269 -11.21862 -11.21745
 Alpha  occ. eigenvalues --   -1.59815  -1.39368  -1.19333  -1.09342  -1.08729
 Alpha  occ. eigenvalues --   -1.04735  -1.04357  -0.96799  -0.95563  -0.87811
 Alpha  occ. eigenvalues --   -0.86137  -0.82395  -0.80423  -0.79189  -0.77438
 Alpha  occ. eigenvalues --   -0.72011  -0.71138  -0.70445  -0.66011  -0.64984
 Alpha  occ. eigenvalues --   -0.64724  -0.62101  -0.61737  -0.60166  -0.58414
 Alpha  occ. eigenvalues --   -0.56091  -0.55240  -0.53458  -0.53249  -0.53066
 Alpha  occ. eigenvalues --   -0.52817  -0.50737  -0.48788  -0.48766  -0.48720
 Alpha  occ. eigenvalues --   -0.47464  -0.46692  -0.46625  -0.44773  -0.44635
 Alpha  occ. eigenvalues --   -0.37317  -0.36337
 Alpha virt. eigenvalues --    0.05091   0.11277   0.16558   0.18669   0.22722
 Alpha virt. eigenvalues --    0.23060   0.24788   0.26258   0.26826   0.27436
 Alpha virt. eigenvalues --    0.29470   0.30524   0.31011   0.31382   0.31651

 Mulliken charges:
               1
     1  C   -0.173844
     2  C   -0.218546
     3  C   -0.171134
     4  C    0.158962
     5  C   -0.172699
     6  C   -0.226711
     7  H    0.225722
     8  H    0.223331
     9  H    0.275520
    10  H    0.276331
    11  H    0.234904
    12  N    0.487966
    13  O   -0.460306
    14  O   -0.460584
    15  C   -0.298505
    16  C   -0.298581
    17  C   -0.476302
    18  H    0.150726
    19  H    0.154017
    20  H    0.141664
    21  H    0.154968
    22  H    0.158581
    23  H    0.155495
    24  H    0.161817
    25  C   -0.304417
    26  C   -0.299704
    27  C   -0.476677
    28  H    0.142648
    29  H    0.152238
    30  H    0.153857
    31  H    0.155435
    32  H    0.156567
    33  H    0.152248
    34  H    0.165014
 Sum of Mulliken charges =  -0.00000

 Dipole moment (field-independent basis, Debye):
    X=             -4.6037    Y=             -2.6683    Z=              0.8016  Tot=              5.3812
 Quadrupole moment (field-independent basis, Debye-Ang):
   XX=           -120.9519   YY=            -91.4762   ZZ=            -94.1965
   XY=            -11.3934   XZ=              4.5344   YZ=             -1.9334

 Normal termination of Gaussian 16 at Thu May  6 01:25:56 2021.
