 Gaussian 16, Revision A.03,
 Gaussian 16:  EM64L-G16RevA.03 25-Dec-2016

 -------------
 #p 6-31g* mp2
 -------------

 ------------------------------------------------------
 Input file generated by CHIRIPA (05-May-2021 14:51:09)
 ------------------------------------------------------
 Symbolic Z-matrix:
 Charge =  0 Multiplicity = 1

                         Standard orientation:
 ---------------------------------------------------------------------
 Center     Atomic      Atomic             Coordinates (Angstroms)
 Number     Number       Type             X           Y           Z
 ---------------------------------------------------------------------
      1          6           0       -3.149755   -0.629925    0.592568
      2          6           0       -1.858470   -1.275514    0.088799
      3          6           0       -0.852513   -1.538339    1.209856
      4          1           0       -2.906904    0.314722    1.098148
      5          1           0       -3.605942   -1.281779    1.350444
      6          1           0       -1.405574   -0.623294   -0.668901
      7          1           0       -2.104441   -2.218640   -0.415807
      8          1           0       -1.281101   -2.207448    1.962987
      9          1           0       -0.578264   -0.603038    1.708455
     10          1           0        0.063143   -2.000116    0.827501
     11          6           0       -4.165330   -0.360983   -0.516487
     12          6           0       -5.456615    0.284606   -0.012718
     13          6           0       -6.462571    0.547431   -1.133775
     14          1           0       -3.709143    0.290871   -1.274362
     15          1           0       -4.408180   -1.305630   -1.022066
     16          1           0       -5.210644    1.227732    0.491889
     17          1           0       -5.909511   -0.367614    0.744983
     18          1           0       -6.736821   -0.387870   -1.632373
     19          1           0       -6.033983    1.216540   -1.886906
     20          1           0       -7.378228    1.009208   -0.751419
     21          6           0        3.132149    1.030042   -0.185043
     22          6           0        2.037626    1.113432    0.879405
     23          6           0        0.993953    2.187487    0.571273
     24          1           0        3.625080    2.007966   -0.272398
     25          1           0        2.670228    0.824587   -1.160651
     26          1           0        2.501597    1.317297    1.852947
     27          1           0        1.547372    0.135144    0.964371
     28          1           0        0.504357    1.985275   -0.386854
     29          1           0        1.464004    3.174145    0.506771
     30          1           0        0.220993    2.229864    1.344963
     31          6           0        4.182935   -0.039135    0.108961
     32          6           0        5.277459   -0.122524   -0.955487
     33          6           0        6.321132   -1.196579   -0.647354
     34          1           0        4.644856    0.166321    1.084570
     35          1           0        3.690005   -1.017058    0.196315
     36          1           0        5.767713    0.855764   -1.040453
     37          1           0        4.813487   -0.326389   -1.929030
     38          1           0        5.851080   -2.183237   -0.582853
     39          1           0        6.810728   -0.994367    0.310772
     40          1           0        7.094092   -1.238956   -1.421045
 ---------------------------------------------------------------------

 SCF Done:  E(RHF) =  -470.732681759     A.U. after   11 cycles
 E2 =    -0.1583385009D+01 EUMP2 =    -0.47231606676832D+03

 The electronic state is 1-A.
 Alpha  occ. eigenvalues --  -11.21639 -11.21606 -11.21587 -11.21477 -11.21419
 Alpha  occ. eigenvalues --  -11.21377 -11.21359 -11.21315 -11.21098 -11.21096
 Alpha  occ. eigenvalues --  -11.21073 -11.21060  -1.08455  -1.08393  -1.03591
 Alpha  occ. eigenvalues --   -1.03472  -0.96040  -0.95938  -0.87041  -0.86972
 Alpha  occ. eigenvalues --   -0.79690  -0.79505  -0.78273  -0.78196  -0.65184
 Alpha  occ. eigenvalues --   -0.64952  -0.61221  -0.60682  -0.59383  -0.59321
 Alpha  occ. eigenvalues --   -0.57653  -0.57556  -0.55427  -0.55094  -0.52734
 Alpha  occ. eigenvalues --   -0.52658  -0.52442  -0.52369  -0.50077  -0.49811
 Alpha  occ. eigenvalues --   -0.47937  -0.47869  -0.46829  -0.46414  -0.45827
 Alpha  occ. eigenvalues --   -0.45751  -0.45725  -0.45561  -0.43798  -0.43748
 Alpha virt. eigenvalues --    0.20511   0.23067   0.23629   0.25331   0.25987
 Alpha virt. eigenvalues --    0.26361   0.26446   0.27601   0.27994   0.29312
 Alpha virt. eigenvalues --    0.30113   0.31145   0.31744   0.32081   0.32417

 Mulliken charges:
               1
     1  C   -0.298762
     2  C   -0.300463
     3  C   -0.480564
     4  H    0.150320
     5  H    0.149580
     6  H    0.152602
     7  H    0.152029
     8  H    0.155876
     9  H    0.160855
    10  H    0.159439
    11  C   -0.298339
    12  C   -0.299713
    13  C   -0.475729
    14  H    0.149637
    15  H    0.149588
    16  H    0.152140
    17  H    0.151897
    18  H    0.155130
    19  H    0.155262
    20  H    0.160299
    21  C   -0.297646
    22  C   -0.308718
    23  C   -0.476642
    24  H    0.149161
    25  H    0.148872
    26  H    0.151200
    27  H    0.163562
    28  H    0.154940
    29  H    0.155552
    30  H    0.159037
    31  C   -0.298205
    32  C   -0.299621
    33  C   -0.475685
    34  H    0.149622
    35  H    0.149215
    36  H    0.151950
    37  H    0.151826
    38  H    0.155110
    39  H    0.155196
    40  H    0.160191
 Sum of Mulliken charges =  -0.00000

 Dipole moment (field-independent basis, Debye):
    X=             -0.0257    Y=             -0.0199    Z=              0.0169  Tot=              0.0366
 Quadrupole moment (field-independent basis, Debye-Ang):
   XX=            -85.7714   YY=            -84.1122   ZZ=            -84.9990
   XY=              1.5503   XZ=             -0.4096   YZ=              0.4413

 Normal termination of Gaussian 16 at Wed May  5 21:20:45 2021.
