 Gaussian 16, Revision A.03,
 Gaussian 16:  EM64L-G16RevA.03 25-Dec-2016

 -------------
 #p 6-31g* mp2
 -------------

 ------------------------------------------------------
 Input file generated by CHIRIPA (05-May-2021 14:51:08)
 ------------------------------------------------------
 Symbolic Z-matrix:
 Charge =  0 Multiplicity = 1

                         Standard orientation:
 ---------------------------------------------------------------------
 Center     Atomic      Atomic             Coordinates (Angstroms)
 Number     Number       Type             X           Y           Z
 ---------------------------------------------------------------------
      1          6           0        4.849445    0.016321    0.308477
      2          6           0        5.978332   -0.719405   -0.414231
      3          6           0        7.351161   -0.445613    0.200726
      4          1           0        5.052678    1.095800    0.289363
      5          1           0        4.844677   -0.282165    1.365964
      6          1           0        5.980094   -0.420667   -1.470341
      7          1           0        5.772291   -1.797244   -0.393561
      8          1           0        7.373416   -0.760462    1.249047
      9          1           0        7.582399    0.623935    0.166148
     10          1           0        8.143468   -0.981383   -0.331308
     11          6           0        3.470896   -0.247375   -0.294676
     12          6           0        2.342009    0.488351    0.428032
     13          6           0        0.969179    0.214559   -0.186925
     14          1           0        3.475664    0.051111   -1.352163
     15          1           0        3.267662   -1.326854   -0.275562
     16          1           0        2.548050    1.566190    0.407362
     17          1           0        2.340247    0.189613    1.484142
     18          1           0        0.737942   -0.854989   -0.152347
     19          1           0        0.946925    0.529408   -1.235245
     20          1           0        0.176873    0.750329    0.345110
     21          6           0       -4.233578    0.863757    0.127989
     22          6           0       -3.003102    1.676388   -0.276411
     23          6           0       -3.165192    3.171492   -0.000395
     24          1           0       -5.110732    1.244898   -0.412638
     25          1           0       -4.432857    1.020696    1.197127
     26          1           0       -2.805384    1.516875   -1.344155
     27          1           0       -2.128740    1.293143    0.265099
     28          1           0       -3.339611    3.349747    1.065627
     29          1           0       -4.020100    3.574750   -0.552770
     30          1           0       -2.274046    3.733420   -0.296972
     31          6           0       -4.086762   -0.632702   -0.141791
     32          6           0       -5.317239   -1.445335    0.262610
     33          6           0       -5.155149   -2.940439   -0.013406
     34          1           0       -3.887484   -0.789642   -1.210928
     35          1           0       -3.209609   -1.013844    0.398836
     36          1           0       -6.191600   -1.062090   -0.278900
     37          1           0       -5.514957   -1.285821    1.330354
     38          1           0       -4.300241   -3.343696    0.538969
     39          1           0       -4.980729   -3.118693   -1.079429
     40          1           0       -6.046294   -3.502366    0.283170
 ---------------------------------------------------------------------

 SCF Done:  E(RHF) =  -470.733223910     A.U. after   11 cycles
 E2 =    -0.1582390941D+01 EUMP2 =    -0.47231561485093D+03

 The electronic state is 1-A.
 Alpha  occ. eigenvalues --  -11.21602 -11.21598 -11.21572 -11.21535 -11.21404
 Alpha  occ. eigenvalues --  -11.21363 -11.21345 -11.21304 -11.21072 -11.21049
 Alpha  occ. eigenvalues --  -11.21045 -11.21044  -1.08430  -1.08391  -1.03536
 Alpha  occ. eigenvalues --   -1.03488  -0.95982  -0.95942  -0.87010  -0.86948
 Alpha  occ. eigenvalues --   -0.79645  -0.79508  -0.78250  -0.78192  -0.65059
 Alpha  occ. eigenvalues --   -0.65030  -0.60923  -0.60919  -0.59452  -0.59220
 Alpha  occ. eigenvalues --   -0.57636  -0.57507  -0.55262  -0.55235  -0.52747
 Alpha  occ. eigenvalues --   -0.52611  -0.52409  -0.52353  -0.49915  -0.49885
 Alpha  occ. eigenvalues --   -0.47971  -0.47815  -0.46623  -0.46583  -0.45788
 Alpha  occ. eigenvalues --   -0.45745  -0.45710  -0.45670  -0.43781  -0.43683
 Alpha virt. eigenvalues --    0.22038   0.23023   0.23686   0.24724   0.26026
 Alpha virt. eigenvalues --    0.26649   0.26996   0.27487   0.28013   0.28886
 Alpha virt. eigenvalues --    0.30147   0.31305   0.31697   0.31934   0.31995

 Mulliken charges:
               1
     1  C   -0.298207
     2  C   -0.299622
     3  C   -0.475697
     4  H    0.149637
     5  H    0.149463
     6  H    0.151937
     7  H    0.151942
     8  H    0.155163
     9  H    0.155177
    10  H    0.160256
    11  C   -0.298637
    12  C   -0.299199
    13  C   -0.480474
    14  H    0.149550
    15  H    0.149634
    16  H    0.151878
    17  H    0.151571
    18  H    0.155017
    19  H    0.155577
    20  H    0.165208
    21  C   -0.297739
    22  C   -0.306011
    23  C   -0.475604
    24  H    0.149443
    25  H    0.149079
    26  H    0.152192
    27  H    0.158386
    28  H    0.154772
    29  H    0.155147
    30  H    0.160116
    31  C   -0.298338
    32  C   -0.299630
    33  C   -0.475647
    34  H    0.149675
    35  H    0.149979
    36  H    0.151856
    37  H    0.151765
    38  H    0.155083
    39  H    0.155191
    40  H    0.160112
 Sum of Mulliken charges =  -0.00000

 Dipole moment (field-independent basis, Debye):
    X=              0.0087    Y=             -0.0021    Z=             -0.0088  Tot=              0.0126
 Quadrupole moment (field-independent basis, Debye-Ang):
   XX=            -85.8872   YY=            -85.4050   ZZ=            -83.6310
   XY=             -0.0762   XZ=             -0.0434   YZ=             -0.8344

 Normal termination of Gaussian 16 at Wed May  5 15:02:43 2021.
