 Gaussian 16, Revision A.03,
 Gaussian 16:  EM64L-G16RevA.03 25-Dec-2016

 -------------
 #p 6-31g* mp2
 -------------

 ------------------------------------------------------
 Input file generated by CHIRIPA (05-May-2021 14:57:25)
 ------------------------------------------------------
 Symbolic Z-matrix:
 Charge =  0 Multiplicity = 1

                         Standard orientation:
 ---------------------------------------------------------------------
 Center     Atomic      Atomic             Coordinates (Angstroms)
 Number     Number       Type             X           Y           Z
 ---------------------------------------------------------------------
      1          6           0       -2.268922    2.290723   -0.081680
      2          6           0       -1.762936    1.069432   -0.538786
      3          6           0       -2.579254   -0.064598   -0.585157
      4          6           0       -3.902654    0.059069   -0.164908
      5          6           0       -4.436053    1.261866    0.295586
      6          6           0       -3.601516    2.382880    0.333315
      7          1           0       -1.627710    3.166609   -0.049015
      8          1           0       -0.728423    0.994916   -0.861703
      9          1           0       -2.213366   -1.022440   -0.934560
     10          1           0       -5.471494    1.305109    0.610880
     11          1           0       -3.997179    3.330056    0.688778
     12          7           0       -4.776497   -1.134588   -0.209425
     13          8           0       -5.938879   -0.999432    0.166392
     14          8           0       -4.282487   -2.182730   -0.619291
     15          6           0        5.878867    0.880088   -0.604202
     16          6           0        4.808362    1.643479   -0.126948
     17          6           0        3.628794    1.024790    0.297774
     18          6           0        3.553658   -0.365611    0.231217
     19          6           0        4.602892   -1.153647   -0.239312
     20          6           0        5.772903   -0.513582   -0.658764
     21          1           0        6.791472    1.369003   -0.932089
     22          1           0        4.887840    2.725994   -0.083446
     23          1           0        2.784746    1.591562    0.671633
     24          1           0        4.493999   -2.230944   -0.270793
     25          1           0        6.602668   -1.108982   -1.028946
     26          7           0        2.309961   -1.031904    0.678062
     27          8           0        2.268812   -2.258375    0.609390
     28          8           0        1.399849   -0.315060    1.088508
 ---------------------------------------------------------------------

 SCF Done:  E(RHF) =  -868.338332456     A.U. after   16 cycles
 E2 =    -0.2598974823D+01 EUMP2 =    -0.87093730727908D+03

 The electronic state is 1-A.
 Alpha  occ. eigenvalues --  -20.61529 -20.61473 -20.60001 -20.59981 -15.86536
 Alpha  occ. eigenvalues --  -15.85042 -11.31825 -11.30325 -11.28423 -11.28341
 Alpha  occ. eigenvalues --  -11.28080 -11.27388 -11.27333 -11.26927 -11.26799
 Alpha  occ. eigenvalues --  -11.26668 -11.25980 -11.25815  -1.60572  -1.59069
 Alpha  occ. eigenvalues --   -1.40129  -1.38624  -1.19984  -1.18490  -1.09388
 Alpha  occ. eigenvalues --   -1.07921  -1.05374  -1.03868  -0.96237  -0.94768
 Alpha  occ. eigenvalues --   -0.86774  -0.85289  -0.83070  -0.81590  -0.78139
 Alpha  occ. eigenvalues --   -0.76635  -0.72747  -0.71896  -0.71267  -0.71082
 Alpha  occ. eigenvalues --   -0.70387  -0.69648  -0.65635  -0.65369  -0.64152
 Alpha  occ. eigenvalues --   -0.63882  -0.62726  -0.61216  -0.55860  -0.54447
 Alpha  occ. eigenvalues --   -0.53707  -0.53461  -0.52211  -0.51972  -0.49522
 Alpha  occ. eigenvalues --   -0.49493  -0.48026  -0.48015  -0.45540  -0.44047
 Alpha  occ. eigenvalues --   -0.37951  -0.36975  -0.36498  -0.35435
 Alpha virt. eigenvalues --    0.04364   0.05885   0.10675   0.12194   0.15868
 Alpha virt. eigenvalues --    0.17394   0.20765   0.22192   0.26623   0.27383
 Alpha virt. eigenvalues --    0.28396   0.29042   0.30439   0.31475   0.32254

 Mulliken charges:
               1
     1  C   -0.171827
     2  C   -0.209021
     3  C   -0.168007
     4  C    0.157682
     5  C   -0.172370
     6  C   -0.218587
     7  H    0.219141
     8  H    0.225265
     9  H    0.278653
    10  H    0.272763
    11  H    0.219329
    12  N    0.488129
    13  O   -0.463708
    14  O   -0.459360
    15  C   -0.170315
    16  C   -0.218039
    17  C   -0.172793
    18  C    0.158012
    19  C   -0.170457
    20  C   -0.218191
    21  H    0.227643
    22  H    0.223810
    23  H    0.271263
    24  H    0.277820
    25  H    0.225976
    26  N    0.487510
    27  O   -0.454480
    28  O   -0.465844
 Sum of Mulliken charges =  -0.00000

 Dipole moment (field-independent basis, Debye):
    X=              7.8745    Y=              6.3513    Z=             -1.4397  Tot=             10.2185
 Quadrupole moment (field-independent basis, Debye-Ang):
   XX=            -94.7886   YY=           -101.3296   ZZ=           -106.3360
   XY=            -13.6980   XZ=             -8.0482   YZ=              2.6868

 Normal termination of Gaussian 16 at Thu May  6 08:16:34 2021.
