 Gaussian 16, Revision A.03,
 Gaussian 16:  EM64L-G16RevA.03 25-Dec-2016

 -------------
 #p 6-31g* mp2
 -------------

 ------------------------------------------------------
 Input file generated by CHIRIPA (05-May-2021 14:57:25)
 ------------------------------------------------------
 Symbolic Z-matrix:
 Charge =  0 Multiplicity = 1

                         Standard orientation:
 ---------------------------------------------------------------------
 Center     Atomic      Atomic             Coordinates (Angstroms)
 Number     Number       Type             X           Y           Z
 ---------------------------------------------------------------------
      1          6           0       -2.095981    2.596887    0.951917
      2          6           0       -2.739042    2.475427   -0.284303
      3          6           0       -3.140590    1.221969   -0.755632
      4          6           0       -2.882034    0.105996    0.038751
      5          6           0       -2.243377    0.194510    1.274702
      6          6           0       -1.850633    1.458049    1.726109
      7          1           0       -1.787469    3.574519    1.310319
      8          1           0       -2.930887    3.358136   -0.887681
      9          1           0       -3.640227    1.099260   -1.708901
     10          1           0       -2.065888   -0.703623    1.853728
     11          1           0       -1.351412    1.549372    2.686569
     12          7           0       -3.302474   -1.226320   -0.449678
     13          8           0       -3.063077   -2.194122    0.269129
     14          8           0       -3.863452   -1.277559   -1.542068
     15          6           0        4.685527    1.326395   -0.479220
     16          6           0        3.413116    1.586583   -0.998640
     17          6           0        2.367973    0.678368   -0.805323
     18          6           0        2.631686   -0.485285   -0.084450
     19          6           0        3.888545   -0.772888    0.445529
     20          6           0        4.918769    0.149566    0.239939
     21          1           0        5.491623    2.037450   -0.634161
     22          1           0        3.229079    2.499705   -1.557552
     23          1           0        1.373322    0.854760   -1.196439
     24          1           0        4.041472   -1.691761    0.998434
     25          1           0        5.905933   -0.055123    0.644481
     26          7           0        1.533138   -1.454308    0.126703
     27          8           0        1.791245   -2.472204    0.765378
     28          8           0        0.434790   -1.177585   -0.350469
 ---------------------------------------------------------------------

 SCF Done:  E(RHF) =  -868.337089735     A.U. after   16 cycles
 E2 =    -0.2601208141D+01 EUMP2 =    -0.87093829787621D+03

 The electronic state is 1-A.
 Alpha  occ. eigenvalues --  -20.60905 -20.60897 -20.59649 -20.59562 -15.85949
 Alpha  occ. eigenvalues --  -15.84671 -11.31377 -11.30250 -11.27953 -11.27948
 Alpha  occ. eigenvalues --  -11.27716 -11.26993 -11.26977 -11.26971 -11.26845
 Alpha  occ. eigenvalues --  -11.26826 -11.26078 -11.25990  -1.59969  -1.58660
 Alpha  occ. eigenvalues --   -1.39523  -1.38213  -1.19559  -1.18503  -1.08943
 Alpha  occ. eigenvalues --   -1.07873  -1.04970  -1.03971  -0.95766  -0.94663
 Alpha  occ. eigenvalues --   -0.86363  -0.85358  -0.82601  -0.81512  -0.77636
 Alpha  occ. eigenvalues --   -0.76483  -0.72197  -0.71309  -0.70915  -0.70663
 Alpha  occ. eigenvalues --   -0.69921  -0.69672  -0.65211  -0.64971  -0.64182
 Alpha  occ. eigenvalues --   -0.64015  -0.62311  -0.61316  -0.55468  -0.54534
 Alpha  occ. eigenvalues --   -0.53303  -0.53061  -0.52273  -0.52090  -0.48924
 Alpha  occ. eigenvalues --   -0.48905  -0.47692  -0.47629  -0.44920  -0.43566
 Alpha  occ. eigenvalues --   -0.37554  -0.36598  -0.36492  -0.35547
 Alpha virt. eigenvalues --    0.04865   0.06111   0.11071   0.12098   0.16385
 Alpha virt. eigenvalues --    0.17487   0.21209   0.22030   0.27109   0.27922
 Alpha virt. eigenvalues --    0.28103   0.28980   0.30741   0.31524   0.32317

 Mulliken charges:
               1
     1  C   -0.174062
     2  C   -0.222600
     3  C   -0.172766
     4  C    0.166986
     5  C   -0.155651
     6  C   -0.223717
     7  H    0.219664
     8  H    0.217796
     9  H    0.273054
    10  H    0.280103
    11  H    0.219393
    12  N    0.490520
    13  O   -0.452209
    14  O   -0.467635
    15  C   -0.171048
    16  C   -0.219230
    17  C   -0.171310
    18  C    0.157393
    19  C   -0.171224
    20  C   -0.218759
    21  H    0.225592
    22  H    0.222351
    23  H    0.276675
    24  H    0.276477
    25  H    0.223962
    26  N    0.488549
    27  O   -0.457137
    28  O   -0.461167
 Sum of Mulliken charges =  -0.00000

 Dipole moment (field-independent basis, Debye):
    X=              5.4895    Y=              7.6914    Z=              1.0254  Tot=              9.5050
 Quadrupole moment (field-independent basis, Debye-Ang):
   XX=            -91.9189   YY=           -106.0040   ZZ=           -100.8840
   XY=             -8.5207   XZ=             -3.8270   YZ=             -3.6042

 Normal termination of Gaussian 16 at Fri May  7 00:25:25 2021.
