 Gaussian 16, Revision A.03,
 Gaussian 16:  EM64L-G16RevA.03 25-Dec-2016

 -------------
 #p 6-31g* mp2
 -------------

 ------------------------------------------------------
 Input file generated by CHIRIPA (05-May-2021 14:51:09)
 ------------------------------------------------------
 Symbolic Z-matrix:
 Charge =  0 Multiplicity = 1

                         Standard orientation:
 ---------------------------------------------------------------------
 Center     Atomic      Atomic             Coordinates (Angstroms)
 Number     Number       Type             X           Y           Z
 ---------------------------------------------------------------------
      1          6           0        4.122326   -0.390331   -0.239455
      2          6           0        5.320072    0.544334   -0.066857
      3          6           0        6.508088    0.151250   -0.945433
      4          1           0        4.430402   -1.418148   -0.003602
      5          1           0        3.815180   -0.390392   -1.294470
      6          1           0        5.623999    0.543696    0.987773
      7          1           0        5.009059    1.570074   -0.302963
      8          1           0        6.227640    0.170155   -2.003541
      9          1           0        6.846073   -0.862054   -0.705471
     10          1           0        7.353182    0.832643   -0.806222
     11          6           0        2.926776   -0.010321    0.632314
     12          6           0        1.729031   -0.944986    0.459716
     13          6           0        0.541014   -0.551902    1.338292
     14          1           0        3.233923   -0.010261    1.687329
     15          1           0        2.618700    1.017496    0.396461
     16          1           0        2.040043   -1.970726    0.695822
     17          1           0        1.425104   -0.944348   -0.594914
     18          1           0        0.203030    0.461402    1.098330
     19          1           0        0.821463   -0.570807    2.396400
     20          1           0       -0.304080   -1.233295    1.199082
     21          6           0       -3.285261    0.822209    0.176978
     22          6           0       -3.511054    2.120011   -0.599366
     23          6           0       -3.027194    3.355332    0.160672
     24          1           0       -3.803211    0.885875    1.143735
     25          1           0       -2.214690    0.719332    0.402124
     26          1           0       -4.580694    2.219722   -0.824184
     27          1           0       -2.992664    2.053173   -1.564467
     28          1           0       -1.955473    3.282311    0.372059
     29          1           0       -3.552527    3.449805    1.116549
     30          1           0       -3.198261    4.271886   -0.412499
     31          6           0       -3.763843   -0.421557   -0.569838
     32          6           0       -3.538048   -1.719360    0.206507
     33          6           0       -4.021908   -2.954680   -0.553531
     34          1           0       -4.834412   -0.318680   -0.794985
     35          1           0       -3.245891   -0.485223   -1.536594
     36          1           0       -4.056439   -1.652521    1.171607
     37          1           0       -2.468408   -1.819070    0.431324
     38          1           0       -3.496575   -3.049154   -1.509408
     39          1           0       -5.093629   -2.881658   -0.764919
     40          1           0       -3.850842   -3.871234    0.019640
 ---------------------------------------------------------------------

 SCF Done:  E(RHF) =  -470.732781187     A.U. after   11 cycles
 E2 =    -0.1583422710D+01 EUMP2 =    -0.47231620389664D+03

 The electronic state is 1-A.
 Alpha  occ. eigenvalues --  -11.21667 -11.21630 -11.21570 -11.21562 -11.21450
 Alpha  occ. eigenvalues --  -11.21389 -11.21345 -11.21255 -11.21132 -11.21093
 Alpha  occ. eigenvalues --  -11.21060 -11.21056  -1.08480  -1.08384  -1.03582
 Alpha  occ. eigenvalues --   -1.03502  -0.96039  -0.95943  -0.87056  -0.86965
 Alpha  occ. eigenvalues --   -0.79656  -0.79567  -0.78301  -0.78178  -0.65150
 Alpha  occ. eigenvalues --   -0.64998  -0.60997  -0.60914  -0.59456  -0.59265
 Alpha  occ. eigenvalues --   -0.57651  -0.57550  -0.55398  -0.55169  -0.52806
 Alpha  occ. eigenvalues --   -0.52606  -0.52501  -0.52335  -0.50046  -0.49840
 Alpha  occ. eigenvalues --   -0.48057  -0.47796  -0.46748  -0.46557  -0.45860
 Alpha  occ. eigenvalues --   -0.45781  -0.45718  -0.45537  -0.43786  -0.43710
 Alpha virt. eigenvalues --    0.21142   0.23135   0.23577   0.24216   0.26025
 Alpha virt. eigenvalues --    0.26689   0.27076   0.27293   0.27917   0.28748
 Alpha virt. eigenvalues --    0.29951   0.31648   0.31700   0.31933   0.32208

 Mulliken charges:
               1
     1  C   -0.298276
     2  C   -0.299695
     3  C   -0.475733
     4  H    0.149781
     5  H    0.149508
     6  H    0.152032
     7  H    0.151997
     8  H    0.155202
     9  H    0.155232
    10  H    0.160376
    11  C   -0.298762
    12  C   -0.299282
    13  C   -0.485579
    14  H    0.149841
    15  H    0.149669
    16  H    0.152271
    17  H    0.151651
    18  H    0.156897
    19  H    0.156217
    20  H    0.167586
    21  C   -0.306207
    22  C   -0.299346
    23  C   -0.475505
    24  H    0.149200
    25  H    0.158979
    26  H    0.151745
    27  H    0.151309
    28  H    0.154190
    29  H    0.155426
    30  H    0.160115
    31  C   -0.297366
    32  C   -0.307229
    33  C   -0.475129
    34  H    0.149330
    35  H    0.148953
    36  H    0.152056
    37  H    0.158320
    38  H    0.154983
    39  H    0.155245
    40  H    0.159997
 Sum of Mulliken charges =  -0.00000

 Dipole moment (field-independent basis, Debye):
    X=              0.0392    Y=             -0.0126    Z=              0.0252  Tot=              0.0483
 Quadrupole moment (field-independent basis, Debye-Ang):
   XX=            -84.8668   YY=            -85.4814   ZZ=            -84.5279
   XY=             -0.4547   XZ=              0.2487   YZ=             -0.9351

 Normal termination of Gaussian 16 at Wed May  5 18:09:28 2021.
