 Gaussian 16, Revision A.03,
 Gaussian 16:  EM64L-G16RevA.03 25-Dec-2016

 -------------
 #p 6-31g* mp2
 -------------

 ------------------------------------------------------
 Input file generated by CHIRIPA (05-May-2021 14:57:25)
 ------------------------------------------------------
 Symbolic Z-matrix:
 Charge =  0 Multiplicity = 1

                         Standard orientation:
 ---------------------------------------------------------------------
 Center     Atomic      Atomic             Coordinates (Angstroms)
 Number     Number       Type             X           Y           Z
 ---------------------------------------------------------------------
      1          6           0        4.934439    1.792733    0.168824
      2          6           0        5.155150    0.486807    0.618674
      3          6           0        4.209115   -0.515016    0.382208
      4          6           0        3.048306   -0.174278   -0.310404
      5          6           0        2.799548    1.117620   -0.771281
      6          6           0        3.759414    2.103424   -0.523497
      7          1           0        5.674713    2.564751    0.356912
      8          1           0        6.066775    0.242636    1.156601
      9          1           0        4.354519   -1.534163    0.719277
     10          1           0        1.881150    1.330626   -1.304752
     11          1           0        3.585337    3.116770   -0.874029
     12          7           0        2.039460   -1.226384   -0.566730
     13          8           0        1.024930   -0.900532   -1.179254
     14          8           0        2.282360   -2.356955   -0.150262
     15          6           0       -5.191693    1.319260   -0.579664
     16          6           0       -4.925017    0.047156   -1.096535
     17          6           0       -3.832319   -0.692321   -0.634222
     18          6           0       -3.023435   -0.126577    0.350122
     19          6           0       -3.263027    1.138309    0.884862
     20          6           0       -4.361311    1.859824    0.407644
     21          1           0       -6.042697    1.886727   -0.944589
     22          1           0       -5.568196   -0.375166   -1.863353
     23          1           0       -3.602832   -1.679384   -1.016922
     24          1           0       -2.603896    1.532825    1.648617
     25          1           0       -4.566000    2.847522    0.810881
     26          7           0       -1.863688   -0.899921    0.847441
     27          8           0       -1.166240   -0.379148    1.715197
     28          8           0       -1.674087   -2.012196    0.360069
 ---------------------------------------------------------------------

 SCF Done:  E(RHF) =  -868.336287118     A.U. after   16 cycles
 E2 =    -0.2600765111D+01 EUMP2 =    -0.87093705222896D+03

 The electronic state is 1-A.
 Alpha  occ. eigenvalues --  -20.59740 -20.59694 -20.59645 -20.59575 -15.84752
 Alpha  occ. eigenvalues --  -15.84718 -11.30437 -11.30402 -11.27091 -11.27039
 Alpha  occ. eigenvalues --  -11.27009 -11.26994 -11.26883 -11.26836 -11.26188
 Alpha  occ. eigenvalues --  -11.26134 -11.26131 -11.26096  -1.58731  -1.58681
 Alpha  occ. eigenvalues --   -1.38283  -1.38253  -1.18647  -1.18604  -1.07980
 Alpha  occ. eigenvalues --   -1.07943  -1.04110  -1.04066  -0.94767  -0.94724
 Alpha  occ. eigenvalues --   -0.85491  -0.85452  -0.81603  -0.81580  -0.76577
 Alpha  occ. eigenvalues --   -0.76575  -0.71054  -0.70935  -0.70243  -0.69770
 Alpha  occ. eigenvalues --   -0.69749  -0.69722  -0.64301  -0.64267  -0.64127
 Alpha  occ. eigenvalues --   -0.64087  -0.61455  -0.61421  -0.54615  -0.54571
 Alpha  occ. eigenvalues --   -0.52420  -0.52357  -0.52213  -0.52177  -0.47895
 Alpha  occ. eigenvalues --   -0.47706  -0.47694  -0.47539  -0.43695  -0.43486
 Alpha  occ. eigenvalues --   -0.36652  -0.36592  -0.35731  -0.35679
 Alpha virt. eigenvalues --    0.05981   0.06008   0.11920   0.11973   0.17408
 Alpha virt. eigenvalues --    0.17424   0.21975   0.22011   0.27859   0.27883
 Alpha virt. eigenvalues --    0.28897   0.28943   0.31455   0.31546   0.33165

 Mulliken charges:
               1
     1  C   -0.171870
     2  C   -0.218480
     3  C   -0.170031
     4  C    0.163189
     5  C   -0.169662
     6  C   -0.218620
     7  H    0.222405
     8  H    0.221245
     9  H    0.275899
    10  H    0.272012
    11  H    0.219452
    12  N    0.492569
    13  O   -0.463058
    14  O   -0.454651
    15  C   -0.172296
    16  C   -0.218899
    17  C   -0.169216
    18  C    0.161734
    19  C   -0.172863
    20  C   -0.218974
    21  H    0.222431
    22  H    0.221653
    23  H    0.278440
    24  H    0.272337
    25  H    0.219581
    26  N    0.491548
    27  O   -0.471580
    28  O   -0.444298
 Sum of Mulliken charges =  -0.00000

 Dipole moment (field-independent basis, Debye):
    X=             -0.4936    Y=              6.0148    Z=             -0.8933  Tot=              6.1008
 Quadrupole moment (field-independent basis, Debye-Ang):
   XX=            -59.3048   YY=           -102.3673   ZZ=           -105.1222
   XY=              1.8797   XZ=              8.4435   YZ=              0.7571

 Normal termination of Gaussian 16 at Fri May  7 11:11:13 2021.
