 Gaussian 16, Revision A.03,
 Gaussian 16:  EM64L-G16RevA.03 25-Dec-2016

 -------------
 #p 6-31g* mp2
 -------------

 ------------------------------------------------------
 Input file generated by CHIRIPA (05-May-2021 14:53:15)
 ------------------------------------------------------
 Symbolic Z-matrix:
 Charge =  0 Multiplicity = 1

                         Standard orientation:
 ---------------------------------------------------------------------
 Center     Atomic      Atomic             Coordinates (Angstroms)
 Number     Number       Type             X           Y           Z
 ---------------------------------------------------------------------
      1          6           0       -3.868886   -0.136742   -0.016097
      2          6           0       -4.920196   -0.315570   -1.111885
      3          6           0       -5.747208   -1.589427   -0.935438
      4          1           0       -3.202631   -1.010247   -0.009958
      5          1           0       -4.368678   -0.117958    0.962295
      6          1           0       -4.418703   -0.332623   -2.088016
      7          1           0       -5.583909    0.558552   -1.115543
      8          1           0       -6.273444   -1.577207    0.024524
      9          1           0       -5.101618   -2.473445   -0.953475
     10          1           0       -6.492564   -1.697396   -1.729571
     11          6           0       -3.034085    1.132263   -0.178767
     12          6           0       -1.982775    1.311091    0.917022
     13          6           0       -1.155763    2.584948    0.740575
     14          1           0       -2.534293    1.113479   -1.157158
     15          1           0       -3.700340    2.005769   -0.184905
     16          1           0       -1.319062    0.436970    0.920679
     17          1           0       -2.484268    1.328145    1.893152
     18          1           0       -1.801353    3.468967    0.758611
     19          1           0       -0.629527    2.572728   -0.219388
     20          1           0       -0.410407    2.692918    1.534708
     21          6           0        1.192486   -1.581461    1.713704
     22          6           0        1.277451   -0.185382    1.729933
     23          6           0        2.107495    0.485967    0.827235
     24          6           0        2.841872   -0.273581   -0.082197
     25          6           0        2.778680   -1.665563   -0.123209
     26          6           0        1.942051   -2.315801    0.788815
     27          1           0        0.545131   -2.094782    2.418564
     28          1           0        0.696480    0.387497    2.447098
     29          1           0        2.192208    1.565854    0.817878
     30          1           0        3.369936   -2.209440   -0.849868
     31          1           0        1.878050   -3.400111    0.773914
     32          7           0        3.724089    0.425973   -1.042781
     33          8           0        4.360848   -0.266152   -1.834069
     34          8           0        3.762105    1.653160   -0.986208
 ---------------------------------------------------------------------

 SCF Done:  E(RHF) =  -669.534556440     A.U. after   15 cycles
 E2 =    -0.2093325625D+01 EUMP2 =    -0.67162788206535D+03

 The electronic state is 1-A.
 Alpha  occ. eigenvalues --  -20.60789 -20.60783 -15.85841 -11.31219 -11.27779
 Alpha  occ. eigenvalues --  -11.27751 -11.27523 -11.26810 -11.26766 -11.22109
 Alpha  occ. eigenvalues --  -11.21933 -11.21826 -11.21767 -11.21713 -11.21396
 Alpha  occ. eigenvalues --   -1.59864  -1.39417  -1.19397  -1.08884  -1.08777
 Alpha  occ. eigenvalues --   -1.04814  -1.03981  -0.96448  -0.95617  -0.87460
 Alpha  occ. eigenvalues --   -0.86198  -0.82450  -0.80067  -0.78689  -0.77493
 Alpha  occ. eigenvalues --   -0.72059  -0.71188  -0.70491  -0.65519  -0.65044
 Alpha  occ. eigenvalues --   -0.64802  -0.62245  -0.61342  -0.59804  -0.58059
 Alpha  occ. eigenvalues --   -0.55728  -0.55277  -0.53204  -0.53064  -0.52954
 Alpha  occ. eigenvalues --   -0.52794  -0.50356  -0.48822  -0.48812  -0.48381
 Alpha  occ. eigenvalues --   -0.47071  -0.46225  -0.46131  -0.44818  -0.44249
 Alpha  occ. eigenvalues --   -0.37352  -0.36332
 Alpha virt. eigenvalues --    0.05019   0.11169   0.16465   0.20226   0.22631
 Alpha virt. eigenvalues --    0.23873   0.25866   0.26258   0.26828   0.28282
 Alpha virt. eigenvalues --    0.29129   0.29919   0.31215   0.31383   0.32345

 Mulliken charges:
               1
     1  C   -0.298420
     2  C   -0.300115
     3  C   -0.475828
     4  H    0.147827
     5  H    0.148339
     6  H    0.153781
     7  H    0.153142
     8  H    0.154801
     9  H    0.154219
    10  H    0.161842
    11  C   -0.297775
    12  C   -0.308900
    13  C   -0.477552
    14  H    0.153105
    15  H    0.151078
    16  H    0.156013
    17  H    0.148335
    18  H    0.160132
    19  H    0.162837
    20  H    0.148640
    21  C   -0.172862
    22  C   -0.218147
    23  C   -0.171716
    24  C    0.158019
    25  C   -0.171232
    26  C   -0.218321
    27  H    0.226358
    28  H    0.228484
    29  H    0.277145
    30  H    0.275627
    31  H    0.223581
    32  N    0.488097
    33  O   -0.460424
    34  O   -0.460111
 Sum of Mulliken charges =  -0.00000

 Dipole moment (field-independent basis, Debye):
    X=             -3.1490    Y=             -2.4560    Z=              3.2961  Tot=              5.1781
 Quadrupole moment (field-independent basis, Debye-Ang):
   XX=           -112.6749   YY=            -90.1065   ZZ=            -94.9468
   XY=             -8.6216   XZ=              9.1705   YZ=              1.3092

 Normal termination of Gaussian 16 at Thu May  6 13:50:12 2021.
