 Gaussian 16, Revision A.03,
 Gaussian 16:  EM64L-G16RevA.03 25-Dec-2016

 -------------
 #p 6-31g* mp2
 -------------

 ------------------------------------------------------
 Input file generated by CHIRIPA (05-May-2021 14:55:21)
 ------------------------------------------------------
 Symbolic Z-matrix:
 Charge =  0 Multiplicity = 1

                         Standard orientation:
 ---------------------------------------------------------------------
 Center     Atomic      Atomic             Coordinates (Angstroms)
 Number     Number       Type             X           Y           Z
 ---------------------------------------------------------------------
      1          6           0       -5.296273    1.919566    0.015712
      2          6           0       -5.601195    0.806743   -0.774964
      3          6           0       -4.722294   -0.278378   -0.842730
      4          6           0       -3.542017   -0.216941   -0.103499
      5          6           0       -3.210022    0.877616    0.693378
      6          6           0       -4.103762    1.951395    0.746072
      7          1           0       -5.984788    2.758109    0.062501
      8          1           0       -6.526589    0.779276   -1.343240
      9          1           0       -4.933477   -1.152396   -1.446810
     10          1           0       -2.279891    0.876029    1.248601
     11          1           0       -3.864347    2.814317    1.360963
     12          7           0       -2.603709   -1.359707   -0.167262
     13          8           0       -1.570344   -1.281124    0.493510
     14          8           0       -2.919395   -2.312350   -0.876804
     15          6           0        3.971393    0.005007    0.053261
     16          6           0        3.297040   -0.775405    1.182062
     17          6           0        1.775968   -0.829774    1.036535
     18          1           0        3.567136    1.026265    0.029724
     19          1           0        3.710466   -0.456701   -0.909099
     20          1           0        3.560283   -0.313190    2.142102
     21          1           0        3.703087   -1.794865    1.203037
     22          1           0        1.496132   -1.310271    0.093447
     23          1           0        1.352516    0.179823    1.037848
     24          1           0        1.314315   -1.392360    1.853991
     25          6           0        5.492061    0.068208    0.184794
     26          6           0        6.166414    0.848620   -0.944008
     27          6           0        7.687485    0.902990   -0.798480
     28          1           0        5.752987    0.529917    1.147153
     29          1           0        5.896318   -0.953050    0.208331
     30          1           0        5.760366    1.868082   -0.964983
     31          1           0        5.903172    0.386406   -1.904048
     32          1           0        8.110939   -0.106607   -0.799794
     33          1           0        7.967322    1.383487    0.144607
     34          1           0        8.149139    1.465576   -1.615936
 ---------------------------------------------------------------------

 SCF Done:  E(RHF) =  -669.535609109     A.U. after   15 cycles
 E2 =    -0.2090858833D+01 EUMP2 =    -0.67162646794185D+03

 The electronic state is 1-A.
 Alpha  occ. eigenvalues --  -20.60815 -20.60799 -15.85849 -11.31217 -11.27788
 Alpha  occ. eigenvalues --  -11.27783 -11.27535 -11.26806 -11.26797 -11.21186
 Alpha  occ. eigenvalues --  -11.20852 -11.20733 -11.20705 -11.20639 -11.19703
 Alpha  occ. eigenvalues --   -1.59879  -1.39432  -1.19392  -1.08788  -1.07789
 Alpha  occ. eigenvalues --   -1.04795  -1.02804  -0.95629  -0.95213  -0.86232
 Alpha  occ. eigenvalues --   -0.86186  -0.82452  -0.78885  -0.77606  -0.77468
 Alpha  occ. eigenvalues --   -0.72061  -0.71198  -0.70500  -0.65045  -0.64799
 Alpha  occ. eigenvalues --   -0.64431  -0.62142  -0.60210  -0.58640  -0.56834
 Alpha  occ. eigenvalues --   -0.55299  -0.54518  -0.53125  -0.52888  -0.51870
 Alpha  occ. eigenvalues --   -0.51643  -0.49217  -0.48826  -0.48787  -0.47189
 Alpha  occ. eigenvalues --   -0.45944  -0.45148  -0.45051  -0.44773  -0.43044
 Alpha  occ. eigenvalues --   -0.37374  -0.36399
 Alpha virt. eigenvalues --    0.05021   0.11254   0.16504   0.21304   0.23443
 Alpha virt. eigenvalues --    0.24940   0.26893   0.27362   0.27781   0.28132
 Alpha virt. eigenvalues --    0.29059   0.30801   0.31782   0.32317   0.32787

 Mulliken charges:
               1
     1  C   -0.170749
     2  C   -0.218587
     3  C   -0.170820
     4  C    0.157785
     5  C   -0.171049
     6  C   -0.218591
     7  H    0.225678
     8  H    0.223519
     9  H    0.275664
    10  H    0.276269
    11  H    0.223533
    12  N    0.492235
    13  O   -0.461881
    14  O   -0.460492
    15  C   -0.297191
    16  C   -0.302752
    17  C   -0.465666
    18  H    0.146073
    19  H    0.150175
    20  H    0.146312
    21  H    0.150649
    22  H    0.165028
    23  H    0.144814
    24  H    0.164425
    25  C   -0.297464
    26  C   -0.299047
    27  C   -0.475309
    28  H    0.147718
    29  H    0.149486
    30  H    0.150245
    31  H    0.151909
    32  H    0.155114
    33  H    0.154210
    34  H    0.158757
 Sum of Mulliken charges =  -0.00000

 Dipole moment (field-independent basis, Debye):
    X=             -3.5526    Y=              3.9255    Z=              0.2052  Tot=              5.2984
 Quadrupole moment (field-independent basis, Debye-Ang):
   XX=            -72.2181   YY=            -95.1443   ZZ=            -93.2150
   XY=            -12.5946   XZ=              1.7005   YZ=              1.7671

 Normal termination of Gaussian 16 at Thu May  6 15:50:22 2021.
