 Gaussian 16, Revision A.03,
 Gaussian 16:  EM64L-G16RevA.03 25-Dec-2016

 -------------
 #p 6-31g* mp2
 -------------

 ------------------------------------------------------
 Input file generated by CHIRIPA (05-May-2021 14:55:20)
 ------------------------------------------------------
 Symbolic Z-matrix:
 Charge =  0 Multiplicity = 1

                         Standard orientation:
 ---------------------------------------------------------------------
 Center     Atomic      Atomic             Coordinates (Angstroms)
 Number     Number       Type             X           Y           Z
 ---------------------------------------------------------------------
      1          6           0       -0.819512   -2.280107    0.064008
      2          6           0       -0.598773   -1.064625    0.720056
      3          6           0       -1.591824   -0.080879    0.745377
      4          6           0       -2.799166   -0.347270    0.101442
      5          6           0       -3.049234   -1.548296   -0.560594
      6          6           0       -2.041883   -2.517644   -0.573101
      7          1           0       -0.042532   -3.038712    0.049316
      8          1           0        0.349562   -0.877401    1.215691
      9          1           0       -1.447530    0.868920    1.245856
     10          1           0       -4.004849   -1.705959   -1.045733
     11          1           0       -2.216099   -3.460679   -1.083373
     12          7           0       -3.858033    0.686557    0.121464
     13          8           0       -4.913034    0.427408   -0.453386
     14          8           0       -3.612924    1.736445    0.711629
     15          6           0        3.518560   -0.082858   -0.076219
     16          6           0        5.011436   -0.375545    0.077529
     17          6           0        5.313636   -1.871191    0.175068
     18          1           0        2.977264   -0.512839    0.777631
     19          1           0        3.142510   -0.593156   -0.973759
     20          1           0        5.384857    0.136284    0.973746
     21          1           0        5.549264    0.055349   -0.776689
     22          1           0        4.968254   -2.393371   -0.723063
     23          1           0        4.802914   -2.311975    1.037316
     24          1           0        6.386535   -2.057688    0.284461
     25          6           0        3.200547    1.408060   -0.175023
     26          6           0        1.707671    1.700746   -0.328773
     27          6           0        1.405472    3.196392   -0.426311
     28          1           0        3.576597    1.918358    0.722515
     29          1           0        3.741843    1.838041   -1.028874
     30          1           0        1.169844    1.269853    0.525445
     31          1           0        1.334250    1.188917   -1.224989
     32          1           0        1.916194    3.637176   -1.288559
     33          1           0        1.750853    3.718571    0.471820
     34          1           0        0.332573    3.382890   -0.535704
 ---------------------------------------------------------------------

 SCF Done:  E(RHF) =  -669.534434676     A.U. after   15 cycles
 E2 =    -0.2093034972D+01 EUMP2 =    -0.67162746964783D+03

 The electronic state is 1-A.
 Alpha  occ. eigenvalues --  -20.60737 -20.60731 -15.85788 -11.31136 -11.27691
 Alpha  occ. eigenvalues --  -11.27681 -11.27417 -11.26716 -11.26665 -11.22304
 Alpha  occ. eigenvalues --  -11.22237 -11.22189 -11.22001 -11.21772 -11.21375
 Alpha  occ. eigenvalues --   -1.59812  -1.39366  -1.19302  -1.09132  -1.08697
 Alpha  occ. eigenvalues --   -1.04716  -1.04132  -0.96580  -0.95538  -0.87589
 Alpha  occ. eigenvalues --   -0.86103  -0.82395  -0.80222  -0.78998  -0.77402
 Alpha  occ. eigenvalues --   -0.72007  -0.71135  -0.70408  -0.65805  -0.64954
 Alpha  occ. eigenvalues --   -0.64696  -0.62135  -0.61474  -0.59936  -0.58198
 Alpha  occ. eigenvalues --   -0.55874  -0.55200  -0.53272  -0.53040  -0.52978
 Alpha  occ. eigenvalues --   -0.52794  -0.50523  -0.48767  -0.48764  -0.48522
 Alpha  occ. eigenvalues --   -0.47267  -0.46473  -0.46400  -0.44775  -0.44408
 Alpha  occ. eigenvalues --   -0.37279  -0.36241
 Alpha virt. eigenvalues --    0.05090   0.11298   0.16529   0.19618   0.22751
 Alpha virt. eigenvalues --    0.23456   0.24666   0.26247   0.26595   0.28370
 Alpha virt. eigenvalues --    0.29352   0.30740   0.31174   0.31375   0.32087

 Mulliken charges:
               1
     1  C   -0.173539
     2  C   -0.217062
     3  C   -0.170652
     4  C    0.157679
     5  C   -0.171659
     6  C   -0.218591
     7  H    0.225789
     8  H    0.227649
     9  H    0.275482
    10  H    0.275231
    11  H    0.223098
    12  N    0.488191
    13  O   -0.460535
    14  O   -0.460889
    15  C   -0.299690
    16  C   -0.299708
    17  C   -0.476142
    18  H    0.140085
    19  H    0.150275
    20  H    0.154036
    21  H    0.155246
    22  H    0.154571
    23  H    0.152519
    24  H    0.163515
    25  C   -0.298904
    26  C   -0.299947
    27  C   -0.478398
    28  H    0.151020
    29  H    0.153267
    30  H    0.141020
    31  H    0.156138
    32  H    0.157327
    33  H    0.155883
    34  H    0.167696
 Sum of Mulliken charges =  -0.00000

 Dipole moment (field-independent basis, Debye):
    X=              3.8647    Y=             -3.5387    Z=             -0.1729  Tot=              5.2430
 Quadrupole moment (field-independent basis, Debye-Ang):
   XX=           -114.0214   YY=            -91.6356   ZZ=            -92.9452
   XY=             11.5318   XZ=              2.0979   YZ=              1.5609

 Normal termination of Gaussian 16 at Wed May  5 18:55:42 2021.
