 Gaussian 16, Revision A.03,
 Gaussian 16:  EM64L-G16RevA.03 25-Dec-2016

 -------------
 #p 6-31g* mp2
 -------------

 ------------------------------------------------------
 Input file generated by CHIRIPA (05-May-2021 14:57:25)
 ------------------------------------------------------
 Symbolic Z-matrix:
 Charge =  0 Multiplicity = 1

                         Standard orientation:
 ---------------------------------------------------------------------
 Center     Atomic      Atomic             Coordinates (Angstroms)
 Number     Number       Type             X           Y           Z
 ---------------------------------------------------------------------
      1          6           0       -5.297118   -1.357360   -0.608136
      2          6           0       -4.305378   -1.729011    0.305564
      3          6           0       -3.235127   -0.872185    0.579354
      4          6           0       -3.187803    0.354299   -0.081543
      5          6           0       -4.160450    0.753101   -0.997078
      6          6           0       -5.221622   -0.119672   -1.255400
      7          1           0       -6.124988   -2.029157   -0.814815
      8          1           0       -4.361430   -2.689600    0.809719
      9          1           0       -2.453725   -1.134744    1.282129
     10          1           0       -4.077391    1.717148   -1.484039
     11          1           0       -5.990392    0.171594   -1.965472
     12          7           0       -2.059582    1.269824    0.200118
     13          8           0       -2.040839    2.344883   -0.395309
     14          8           0       -1.215388    0.895016    1.010977
     15          6           0        5.095181   -0.244078   -1.716197
     16          6           0        4.454516   -1.426142   -1.330459
     17          6           0        3.499079   -1.415433   -0.309884
     18          6           0        3.207325   -0.199478    0.306252
     19          6           0        3.828456    0.994910   -0.055581
     20          6           0        4.780661    0.960551   -1.078652
     21          1           0        5.836132   -0.261583   -2.509974
     22          1           0        4.696778   -2.363131   -1.823822
     23          1           0        2.987938   -2.315839    0.008585
     24          1           0        3.565896    1.913595    0.454810
     25          1           0        5.276620    1.880100   -1.376141
     26          7           0        2.197558   -0.175623    1.388009
     27          8           0        1.958303    0.908597    1.915136
     28          8           0        1.664476   -1.241596    1.688281
 ---------------------------------------------------------------------

 SCF Done:  E(RHF) =  -868.336329347     A.U. after   16 cycles
 E2 =    -0.2600330137D+01 EUMP2 =    -0.87093665948362D+03

 The electronic state is 1-A.
 Alpha  occ. eigenvalues --  -20.59930 -20.59850 -20.59736 -20.59594 -15.84941
 Alpha  occ. eigenvalues --  -15.84727 -11.30515 -11.30412 -11.27163 -11.27060
 Alpha  occ. eigenvalues --  -11.27042 -11.26978 -11.26938 -11.26842 -11.26222
 Alpha  occ. eigenvalues --  -11.26159 -11.26145 -11.26090  -1.58983  -1.58705
 Alpha  occ. eigenvalues --   -1.38521  -1.38264  -1.18723  -1.18616  -1.08090
 Alpha  occ. eigenvalues --   -1.07953  -1.04151  -1.04071  -0.94883  -0.94731
 Alpha  occ. eigenvalues --   -0.85540  -0.85455  -0.81701  -0.81572  -0.76706
 Alpha  occ. eigenvalues --   -0.76562  -0.71212  -0.70941  -0.70355  -0.69949
 Alpha  occ. eigenvalues --   -0.69812  -0.69734  -0.64366  -0.64270  -0.64158
 Alpha  occ. eigenvalues --   -0.64084  -0.61481  -0.61417  -0.54666  -0.54575
 Alpha  occ. eigenvalues --   -0.52485  -0.52378  -0.52241  -0.52174  -0.48015
 Alpha  occ. eigenvalues --   -0.47902  -0.47709  -0.47619  -0.43890  -0.43568
 Alpha  occ. eigenvalues --   -0.36739  -0.36616  -0.35768  -0.35688
 Alpha virt. eigenvalues --    0.05806   0.06000   0.11881   0.11962   0.17250
 Alpha virt. eigenvalues --    0.17423   0.21987   0.22037   0.27901   0.27911
 Alpha virt. eigenvalues --    0.28909   0.28990   0.31496   0.31566   0.33218

 Mulliken charges:
               1
     1  C   -0.171683
     2  C   -0.219455
     3  C   -0.172781
     4  C    0.156971
     5  C   -0.171937
     6  C   -0.219092
     7  H    0.223039
     8  H    0.222790
     9  H    0.285609
    10  H    0.273498
    11  H    0.220643
    12  N    0.486053
    13  O   -0.467371
    14  O   -0.446635
    15  C   -0.172025
    16  C   -0.218719
    17  C   -0.172207
    18  C    0.160692
    19  C   -0.169254
    20  C   -0.218655
    21  H    0.222634
    22  H    0.219835
    23  H    0.272090
    24  H    0.278543
    25  H    0.221964
    26  N    0.491353
    27  O   -0.446258
    28  O   -0.469645
 Sum of Mulliken charges =  -0.00000

 Dipole moment (field-independent basis, Debye):
    X=             -0.3733    Y=             -3.1578    Z=             -4.5179  Tot=              5.5247
 Quadrupole moment (field-independent basis, Debye-Ang):
   XX=            -59.1364   YY=           -100.7459   ZZ=           -106.1405
   XY=              8.0263   XZ=             -6.3443   YZ=             -1.0061

 Normal termination of Gaussian 16 at Thu May  6 16:24:12 2021.
