 Gaussian 16, Revision A.03,
 Gaussian 16:  EM64L-G16RevA.03 25-Dec-2016

 -------------
 #p 6-31g* mp2
 -------------

 ------------------------------------------------------
 Input file generated by CHIRIPA (05-May-2021 14:55:21)
 ------------------------------------------------------
 Symbolic Z-matrix:
 Charge =  0 Multiplicity = 1

                         Standard orientation:
 ---------------------------------------------------------------------
 Center     Atomic      Atomic             Coordinates (Angstroms)
 Number     Number       Type             X           Y           Z
 ---------------------------------------------------------------------
      1          6           0        3.716487    2.442864    0.162997
      2          6           0        4.475435    1.684592   -0.734523
      3          6           0        4.199109    0.327922   -0.928529
      4          6           0        3.151880   -0.240777   -0.205215
      5          6           0        2.377670    0.488215    0.696150
      6          6           0        2.671868    1.843312    0.874215
      7          1           0        3.938085    3.496146    0.307514
      8          1           0        5.287296    2.147561   -1.288225
      9          1           0        4.770733   -0.282484   -1.617056
     10          1           0        1.574652   -0.001217    1.233772
     11          1           0        2.080789    2.429746    1.571902
     12          7           0        2.849885   -1.676190   -0.402163
     13          8           0        1.921969   -2.153643    0.247181
     14          8           0        3.546817   -2.296635   -1.202145
     15          6           0       -4.824646   -0.136833    0.033089
     16          6           0       -5.350016    0.766388   -1.083228
     17          6           0       -6.804866    0.469781   -1.448238
     18          1           0       -4.919543   -1.186256   -0.277795
     19          1           0       -5.458753   -0.015684    0.922261
     20          1           0       -4.714279    0.644605   -1.969582
     21          1           0       -5.253681    1.813791   -0.769727
     22          1           0       -7.456265    0.609993   -0.579549
     23          1           0       -6.913799   -0.565836   -1.786221
     24          1           0       -7.160047    1.126867   -2.248203
     25          6           0       -3.371583    0.147594    0.409166
     26          6           0       -2.846213   -0.755627    1.525483
     27          6           0       -1.391364   -0.459019    1.890493
     28          1           0       -2.737476    0.026445   -0.480006
     29          1           0       -3.276686    1.197019    0.720050
     30          1           0       -2.942548   -1.803029    1.211982
     31          1           0       -3.481950   -0.633843    2.411837
     32          1           0       -1.282430    0.576597    2.228476
     33          1           0       -0.739964   -0.599231    1.021804
     34          1           0       -1.036183   -1.116106    2.690458
 ---------------------------------------------------------------------

 SCF Done:  E(RHF) =  -669.535752584     A.U. after   15 cycles
 E2 =    -0.2091333666D+01 EUMP2 =    -0.67162708625021D+03

 The electronic state is 1-A.
 Alpha  occ. eigenvalues --  -20.60785 -20.60777 -15.85825 -11.31143 -11.27727
 Alpha  occ. eigenvalues --  -11.27655 -11.27467 -11.26737 -11.26712 -11.21553
 Alpha  occ. eigenvalues --  -11.21530 -11.21347 -11.21282 -11.21107 -11.21014
 Alpha  occ. eigenvalues --   -1.59853  -1.39408  -1.19321  -1.08729  -1.08372
 Alpha  occ. eigenvalues --   -1.04717  -1.03487  -0.95962  -0.95563  -0.86993
 Alpha  occ. eigenvalues --   -0.86115  -0.82398  -0.79574  -0.78193  -0.77440
 Alpha  occ. eigenvalues --   -0.72046  -0.71173  -0.70436  -0.65010  -0.64967
 Alpha  occ. eigenvalues --   -0.64723  -0.62089  -0.60862  -0.59306  -0.57560
 Alpha  occ. eigenvalues --   -0.55307  -0.55168  -0.53057  -0.52918  -0.52605
 Alpha  occ. eigenvalues --   -0.52309  -0.49894  -0.48803  -0.48793  -0.47872
 Alpha  occ. eigenvalues --   -0.46568  -0.45735  -0.45643  -0.44810  -0.43738
 Alpha  occ. eigenvalues --   -0.37311  -0.36315
 Alpha virt. eigenvalues --    0.05050   0.11293   0.16568   0.21109   0.22964
 Alpha virt. eigenvalues --    0.24339   0.25983   0.26653   0.27651   0.27877
 Alpha virt. eigenvalues --    0.29327   0.30179   0.31605   0.31797   0.32054

 Mulliken charges:
               1
     1  C   -0.170462
     2  C   -0.219010
     3  C   -0.170333
     4  C    0.156189
     5  C   -0.177548
     6  C   -0.221735
     7  H    0.225397
     8  H    0.223214
     9  H    0.275313
    10  H    0.290158
    11  H    0.223791
    12  N    0.487869
    13  O   -0.462025
    14  O   -0.460082
    15  C   -0.298549
    16  C   -0.299614
    17  C   -0.475734
    18  H    0.151865
    19  H    0.148985
    20  H    0.152583
    21  H    0.150348
    22  H    0.154844
    23  H    0.156206
    24  H    0.159814
    25  C   -0.298954
    26  C   -0.299373
    27  C   -0.485292
    28  H    0.151694
    29  H    0.146060
    30  H    0.158368
    31  H    0.150961
    32  H    0.144793
    33  H    0.164767
    34  H    0.165494
 Sum of Mulliken charges =  -0.00000

 Dipole moment (field-independent basis, Debye):
    X=              1.0328    Y=              4.9509    Z=              0.6664  Tot=              5.1012
 Quadrupole moment (field-independent basis, Debye-Ang):
   XX=            -86.6505   YY=            -97.3100   ZZ=            -93.1126
   XY=             15.6172   XZ=             -1.4508   YZ=             -0.6190

 Normal termination of Gaussian 16 at Thu May  6 10:54:21 2021.
