 Gaussian 16, Revision A.03,
 Gaussian 16:  EM64L-G16RevA.03 25-Dec-2016

 -------------
 #p 6-31g* mp2
 -------------

 ------------------------------------------------------
 Input file generated by CHIRIPA (05-May-2021 14:51:11)
 ------------------------------------------------------
 Symbolic Z-matrix:
 Charge =  0 Multiplicity = 1

                         Standard orientation:
 ---------------------------------------------------------------------
 Center     Atomic      Atomic             Coordinates (Angstroms)
 Number     Number       Type             X           Y           Z
 ---------------------------------------------------------------------
      1          6           0       -3.058317   -0.723877    0.359043
      2          6           0       -3.679645    0.555942   -0.201315
      3          6           0       -4.877292    1.039151    0.617186
      4          1           0       -3.823532   -1.511474    0.391931
      5          1           0       -2.746503   -0.547455    1.397812
      6          1           0       -3.988936    0.377571   -1.239168
      7          1           0       -2.912812    1.340528   -0.233051
      8          1           0       -4.579937    1.244630    1.650608
      9          1           0       -5.662176    0.276201    0.638775
     10          1           0       -5.306030    1.955208    0.198996
     11          6           0       -1.859930   -1.219421   -0.448444
     12          6           0       -1.238602   -2.499240    0.111913
     13          6           0       -0.040955   -2.982449   -0.706588
     14          1           0       -2.171744   -1.395843   -1.487214
     15          1           0       -1.094715   -0.431824   -0.481332
     16          1           0       -2.005435   -3.283826    0.143650
     17          1           0       -0.929311   -2.320869    1.149766
     18          1           0        0.743929   -2.219499   -0.728176
     19          1           0       -0.338310   -3.187928   -1.740009
     20          1           0        0.387783   -3.898506   -0.288397
     21          6           0        2.088135    1.579105    0.321822
     22          6           0        1.364243    2.390033   -0.753522
     23          6           0        0.626713    3.602068   -0.183597
     24          1           0        1.359559    1.246504    1.073818
     25          1           0        2.801536    2.231054    0.844716
     26          1           0        0.653411    1.736405   -1.275157
     27          1           0        2.094597    2.720580   -1.503147
     28          1           0        1.326331    4.276909    0.320116
     29          1           0       -0.123044    3.287141    0.549401
     30          1           0        0.116281    4.167465   -0.969500
     31          6           0        2.830112    0.364192   -0.232420
     32          6           0        3.554003   -0.446734    0.842923
     33          6           0        4.291534   -1.658769    0.272998
     34          1           0        2.116711   -0.287756   -0.755315
     35          1           0        3.558688    0.696795   -0.984417
     36          1           0        2.823651   -0.777282    1.592548
     37          1           0        4.264836    0.206893    1.364558
     38          1           0        5.041291   -1.343843   -0.460000
     39          1           0        3.591916   -2.333610   -0.230715
     40          1           0        4.801966   -2.224166    1.058902
 ---------------------------------------------------------------------

 SCF Done:  E(RHF) =  -470.733300319     A.U. after   11 cycles
 E2 =    -0.1584085841D+01 EUMP2 =    -0.47231738616059D+03

 The electronic state is 1-A.
 Alpha  occ. eigenvalues --  -11.21676 -11.21647 -11.21639 -11.21621 -11.21474
 Alpha  occ. eigenvalues --  -11.21449 -11.21411 -11.21386 -11.21135 -11.21121
 Alpha  occ. eigenvalues --  -11.21096 -11.21052  -1.08511  -1.08456  -1.03596
 Alpha  occ. eigenvalues --   -1.03551  -0.96038  -0.96008  -0.87063  -0.87016
 Alpha  occ. eigenvalues --   -0.79665  -0.79608  -0.78358  -0.78237  -0.65353
 Alpha  occ. eigenvalues --   -0.64905  -0.61119  -0.60836  -0.59406  -0.59377
 Alpha  occ. eigenvalues --   -0.57662  -0.57601  -0.55335  -0.55292  -0.52727
 Alpha  occ. eigenvalues --   -0.52697  -0.52496  -0.52405  -0.50088  -0.49865
 Alpha  occ. eigenvalues --   -0.48026  -0.47897  -0.46798  -0.46615  -0.46080
 Alpha  occ. eigenvalues --   -0.45799  -0.45790  -0.45355  -0.43841  -0.43817
 Alpha virt. eigenvalues --    0.18829   0.21859   0.23821   0.24920   0.25531
 Alpha virt. eigenvalues --    0.26656   0.27122   0.27492   0.28211   0.29711
 Alpha virt. eigenvalues --    0.30993   0.31553   0.31667   0.31735   0.32350

 Mulliken charges:
               1
     1  C   -0.298168
     2  C   -0.300559
     3  C   -0.475703
     4  H    0.150078
     5  H    0.149353
     6  H    0.152106
     7  H    0.152614
     8  H    0.155181
     9  H    0.155251
    10  H    0.160579
    11  C   -0.302888
    12  C   -0.299105
    13  C   -0.484934
    14  H    0.149955
    15  H    0.152744
    16  H    0.152546
    17  H    0.151690
    18  H    0.162855
    19  H    0.155771
    20  H    0.160964
    21  C   -0.297980
    22  C   -0.302943
    23  C   -0.476089
    24  H    0.149036
    25  H    0.150003
    26  H    0.154481
    27  H    0.152488
    28  H    0.155521
    29  H    0.154867
    30  H    0.160725
    31  C   -0.306250
    32  C   -0.299271
    33  C   -0.478058
    34  H    0.155640
    35  H    0.150394
    36  H    0.151716
    37  H    0.152141
    38  H    0.155102
    39  H    0.157912
    40  H    0.160235
 Sum of Mulliken charges =  -0.00000

 Dipole moment (field-independent basis, Debye):
    X=             -0.0056    Y=             -0.0030    Z=             -0.0154  Tot=              0.0167
 Quadrupole moment (field-independent basis, Debye-Ang):
   XX=            -84.7038   YY=            -85.1373   ZZ=            -84.7273
   XY=              1.8175   XZ=              0.8254   YZ=             -0.2199

 Normal termination of Gaussian 16 at Wed May  5 21:28:34 2021.
