 Gaussian 16, Revision A.03,
 Gaussian 16:  EM64L-G16RevA.03 25-Dec-2016

 -------------
 #p 6-31g* mp2
 -------------

 ------------------------------------------------------
 Input file generated by CHIRIPA (05-May-2021 14:51:07)
 ------------------------------------------------------
 Symbolic Z-matrix:
 Charge =  0 Multiplicity = 1

                         Standard orientation:
 ---------------------------------------------------------------------
 Center     Atomic      Atomic             Coordinates (Angstroms)
 Number     Number       Type             X           Y           Z
 ---------------------------------------------------------------------
      1          6           0       -2.612239   -0.640129    0.498443
      2          6           0       -1.441534    0.161442    1.068459
      3          6           0       -0.284548   -0.726771    1.526998
      4          1           0       -2.969947   -1.346579    1.259967
      5          1           0       -2.256158   -1.245381   -0.346703
      6          1           0       -1.800011    0.766052    1.911404
      7          1           0       -1.086694    0.866199    0.305555
      8          1           0        0.100598   -1.319741    0.691145
      9          1           0       -0.616772   -1.420457    2.306118
     10          1           0        0.541537   -0.133256    1.930959
     11          6           0       -3.776610    0.233868    0.035736
     12          6           0       -4.947316   -0.567703   -0.534280
     13          6           0       -6.104301    0.320509   -0.992819
     14          1           0       -4.132691    0.839120    0.880882
     15          1           0       -3.418902    0.940318   -0.725787
     16          1           0       -5.302155   -1.272461    0.228624
     17          1           0       -4.588838   -1.172313   -1.377225
     18          1           0       -5.772077    1.014195   -1.771939
     19          1           0       -6.489447    0.913479   -0.156966
     20          1           0       -6.930386   -0.273005   -1.396780
     21          6           0        3.394644    0.926585   -0.408369
     22          6           0        2.386805    1.948620    0.118594
     23          6           0        2.801288    3.391436   -0.171709
     24          1           0        4.377320    1.124792    0.041081
     25          1           0        3.513143    1.064033   -1.492094
     26          1           0        2.269204    1.808375    1.200776
     27          1           0        1.406370    1.747838   -0.332017
     28          1           0        2.899854    3.554442   -1.249817
     29          1           0        3.767591    3.615324    0.291684
     30          1           0        2.066707    4.105430    0.213599
     31          6           0        2.994206   -0.520322   -0.125810
     32          6           0        4.002044   -1.542359   -0.652773
     33          6           0        3.587561   -2.985175   -0.362470
     34          1           0        2.875707   -0.657772    0.957915
     35          1           0        2.011530   -0.718530   -0.575261
     36          1           0        4.982480   -1.341576   -0.202163
     37          1           0        4.119645   -1.402114   -1.734955
     38          1           0        2.621259   -3.209063   -0.825864
     39          1           0        3.488995   -3.148181    0.715638
     40          1           0        4.322143   -3.699169   -0.747778
 ---------------------------------------------------------------------

 SCF Done:  E(RHF) =  -470.731589523     A.U. after   11 cycles
 E2 =    -0.1584503116D+01 EUMP2 =    -0.47231609263887D+03

 The electronic state is 1-A.
 Alpha  occ. eigenvalues --  -11.21612 -11.21591 -11.21560 -11.21531 -11.21381
 Alpha  occ. eigenvalues --  -11.21370 -11.21320 -11.21267 -11.21079 -11.21065
 Alpha  occ. eigenvalues --  -11.21055 -11.20874  -1.08449  -1.08365  -1.03523
 Alpha  occ. eigenvalues --   -1.03480  -0.96011  -0.95889  -0.87025  -0.86917
 Alpha  occ. eigenvalues --   -0.79671  -0.79499  -0.78255  -0.78169  -0.65140
 Alpha  occ. eigenvalues --   -0.64956  -0.60938  -0.60879  -0.59435  -0.59230
 Alpha  occ. eigenvalues --   -0.57594  -0.57536  -0.55322  -0.55176  -0.52785
 Alpha  occ. eigenvalues --   -0.52585  -0.52420  -0.52273  -0.50005  -0.49817
 Alpha  occ. eigenvalues --   -0.47968  -0.47847  -0.46764  -0.46461  -0.45869
 Alpha  occ. eigenvalues --   -0.45728  -0.45626  -0.45444  -0.43782  -0.43644
 Alpha virt. eigenvalues --    0.21158   0.23174   0.23541   0.24118   0.24847
 Alpha virt. eigenvalues --    0.26284   0.27301   0.27414   0.27861   0.29804
 Alpha virt. eigenvalues --    0.30374   0.30908   0.31550   0.31874   0.32189

 Mulliken charges:
               1
     1  C   -0.298097
     2  C   -0.303062
     3  C   -0.478061
     4  H    0.149760
     5  H    0.148747
     6  H    0.151544
     7  H    0.153420
     8  H    0.157557
     9  H    0.153202
    10  H    0.163935
    11  C   -0.298159
    12  C   -0.299582
    13  C   -0.475677
    14  H    0.149563
    15  H    0.149256
    16  H    0.151984
    17  H    0.151747
    18  H    0.155078
    19  H    0.155193
    20  H    0.160205
    21  C   -0.298042
    22  C   -0.303898
    23  C   -0.475577
    24  H    0.149330
    25  H    0.148936
    26  H    0.152289
    27  H    0.155634
    28  H    0.155066
    29  H    0.155208
    30  H    0.160375
    31  C   -0.299923
    32  C   -0.299463
    33  C   -0.475884
    34  H    0.151946
    35  H    0.152254
    36  H    0.151548
    37  H    0.151250
    38  H    0.154350
    39  H    0.155786
    40  H    0.160261
 Sum of Mulliken charges =  -0.00000

 Dipole moment (field-independent basis, Debye):
    X=              0.0299    Y=              0.0027    Z=              0.0107  Tot=              0.0319
 Quadrupole moment (field-independent basis, Debye-Ang):
   XX=            -85.3815   YY=            -86.3082   ZZ=            -83.2943
   XY=              0.3140   XZ=             -0.1766   YZ=              0.3131

 Normal termination of Gaussian 16 at Thu May  6 13:11:12 2021.
