 Gaussian 16, Revision A.03,
 Gaussian 16:  EM64L-G16RevA.03 25-Dec-2016

 -------------
 #p 6-31g* mp2
 -------------

 ------------------------------------------------------
 Input file generated by CHIRIPA (05-May-2021 14:51:13)
 ------------------------------------------------------
 Symbolic Z-matrix:
 Charge =  0 Multiplicity = 1

                         Standard orientation:
 ---------------------------------------------------------------------
 Center     Atomic      Atomic             Coordinates (Angstroms)
 Number     Number       Type             X           Y           Z
 ---------------------------------------------------------------------
      1          6           0       -4.423636   -0.051777   -0.344097
      2          6           0       -5.773707   -0.669978    0.020760
      3          6           0       -6.800174   -0.555860   -1.106686
      4          1           0       -4.569815    1.005800   -0.603149
      5          1           0       -4.034801   -0.543747   -1.246409
      6          1           0       -6.159230   -0.177933    0.922914
      7          1           0       -5.624269   -1.726157    0.279159
      8          1           0       -6.440538   -1.062935   -2.007873
      9          1           0       -6.978539    0.494085   -1.360461
     10          1           0       -7.757935   -1.004121   -0.824524
     11          6           0       -3.386973   -0.158042    0.772938
     12          6           0       -2.036902    0.460159    0.408080
     13          6           0       -1.010435    0.346042    1.535527
     14          1           0       -3.775808    0.333929    1.675250
     15          1           0       -3.240794   -1.215619    1.031990
     16          1           0       -2.186340    1.516338    0.149682
     17          1           0       -1.651380   -0.031885   -0.494073
     18          1           0       -0.832070   -0.703903    1.789302
     19          1           0       -1.370071    0.853117    2.436714
     20          1           0       -0.052674    0.794303    1.253365
     21          6           0        3.795823   -0.649723   -0.169962
     22          6           0        5.097301   -1.452305   -0.170143
     23          6           0        4.861833   -2.960402   -0.080736
     24          1           0        3.230316   -0.880477    0.743219
     25          1           0        3.172419   -0.975123   -1.014282
     26          1           0        5.718661   -1.124518    0.673115
     27          1           0        5.659864   -1.219468   -1.083338
     28          1           0        4.262705   -3.307699   -0.928694
     29          1           0        4.321836   -3.212209    0.837739
     30          1           0        5.805462   -3.514857   -0.082351
     31          6           0        4.014786    0.859541   -0.258879
     32          6           0        2.713308    1.662124   -0.258698
     33          6           0        2.948776    3.170220   -0.348104
     34          1           0        4.638190    1.184942    0.585442
     35          1           0        4.580293    1.090296   -1.172060
     36          1           0        2.150745    1.429286    0.654497
     37          1           0        2.091948    1.334337   -1.101956
     38          1           0        3.488773    3.422028   -1.266580
     39          1           0        3.547904    3.517517    0.499853
     40          1           0        2.005148    3.724676   -0.346490
 ---------------------------------------------------------------------

 SCF Done:  E(RHF) =  -470.733302887     A.U. after   11 cycles
 E2 =    -0.1582476192D+01 EUMP2 =    -0.47231577907915D+03

 The electronic state is 1-A.
 Alpha  occ. eigenvalues --  -11.21622 -11.21603 -11.21589 -11.21568 -11.21412
 Alpha  occ. eigenvalues --  -11.21384 -11.21351 -11.21324 -11.21089 -11.21073
 Alpha  occ. eigenvalues --  -11.21062 -11.20998  -1.08443  -1.08405  -1.03551
 Alpha  occ. eigenvalues --   -1.03495  -0.95991  -0.95950  -0.87017  -0.86961
 Alpha  occ. eigenvalues --   -0.79640  -0.79541  -0.78257  -0.78219  -0.65076
 Alpha  occ. eigenvalues --   -0.65037  -0.60957  -0.60898  -0.59483  -0.59216
 Alpha  occ. eigenvalues --   -0.57667  -0.57492  -0.55274  -0.55238  -0.52745
 Alpha  occ. eigenvalues --   -0.52629  -0.52428  -0.52352  -0.49927  -0.49894
 Alpha  occ. eigenvalues --   -0.48027  -0.47786  -0.46633  -0.46600  -0.45795
 Alpha  occ. eigenvalues --   -0.45761  -0.45716  -0.45684  -0.43811  -0.43693
 Alpha virt. eigenvalues --    0.21923   0.23062   0.23587   0.24756   0.26064
 Alpha virt. eigenvalues --    0.26622   0.26901   0.27578   0.27986   0.28889
 Alpha virt. eigenvalues --    0.30306   0.31398   0.31478   0.31898   0.32013

 Mulliken charges:
               1
     1  C   -0.298197
     2  C   -0.299620
     3  C   -0.475687
     4  H    0.149562
     5  H    0.149436
     6  H    0.151898
     7  H    0.151929
     8  H    0.155143
     9  H    0.155146
    10  H    0.160212
    11  C   -0.298475
    12  C   -0.298528
    13  C   -0.483949
    14  H    0.149411
    15  H    0.149608
    16  H    0.151584
    17  H    0.151905
    18  H    0.154764
    19  H    0.154521
    20  H    0.168417
    21  C   -0.298622
    22  C   -0.299650
    23  C   -0.475712
    24  H    0.150224
    25  H    0.149384
    26  H    0.151983
    27  H    0.151921
    28  H    0.155082
    29  H    0.155284
    30  H    0.160256
    31  C   -0.297550
    32  C   -0.306791
    33  C   -0.475397
    34  H    0.149543
    35  H    0.149726
    36  H    0.158018
    37  H    0.152241
    38  H    0.155367
    39  H    0.155246
    40  H    0.160367
 Sum of Mulliken charges =  -0.00000

 Dipole moment (field-independent basis, Debye):
    X=              0.0299    Y=              0.0072    Z=             -0.0054  Tot=              0.0312
 Quadrupole moment (field-independent basis, Debye-Ang):
   XX=            -85.4559   YY=            -85.1963   ZZ=            -84.1363
   XY=             -0.2719   XZ=             -0.6629   YZ=              0.4755

 Normal termination of Gaussian 16 at Wed May  5 23:13:56 2021.
