 Gaussian 16, Revision A.03,
 Gaussian 16:  EM64L-G16RevA.03 25-Dec-2016

 -------------
 #p 6-31g* mp2
 -------------

 ------------------------------------------------------
 Input file generated by CHIRIPA (05-May-2021 14:51:10)
 ------------------------------------------------------
 Symbolic Z-matrix:
 Charge =  0 Multiplicity = 1

                         Standard orientation:
 ---------------------------------------------------------------------
 Center     Atomic      Atomic             Coordinates (Angstroms)
 Number     Number       Type             X           Y           Z
 ---------------------------------------------------------------------
      1          6           0       -3.448046   -0.048271   -0.090770
      2          6           0       -3.362337    1.388267    0.425946
      3          6           0       -4.707020    2.114518    0.379234
      4          1           0       -3.825292   -0.038177   -1.122531
      5          1           0       -4.185791   -0.601934    0.506377
      6          1           0       -2.623965    1.938675   -0.171109
      7          1           0       -2.985070    1.374765    1.456530
      8          1           0       -5.449306    1.590470    0.989959
      9          1           0       -5.086149    2.157584   -0.646928
     10          1           0       -4.622807    3.139697    0.753099
     11          6           0       -2.111694   -0.787365   -0.050356
     12          6           0       -2.197403   -2.223903   -0.567072
     13          6           0       -0.852721   -2.950154   -0.520360
     14          1           0       -1.373950   -0.233702   -0.647503
     15          1           0       -1.734449   -0.797459    0.981404
     16          1           0       -2.574670   -2.210400   -1.597656
     17          1           0       -2.935775   -2.774310    0.029983
     18          1           0       -0.473591   -2.993220    0.505802
     19          1           0       -0.110434   -2.426106   -1.131085
     20          1           0       -0.936933   -3.975333   -0.894226
     21          6           0        2.823741   -0.298388   -0.191270
     22          6           0        2.782480   -1.352312    0.915765
     23          6           0        2.871187   -2.780180    0.376210
     24          1           0        1.997048   -0.479163   -0.891874
     25          1           0        3.752472   -0.416981   -0.766411
     26          1           0        1.854749   -1.230880    1.489513
     27          1           0        3.609252   -1.168891    1.613920
     28          1           0        3.803458   -2.924887   -0.179244
     29          1           0        2.038987   -2.987228   -0.304359
     30          1           0        2.839922   -3.517446    1.184493
     31          6           0        2.736000    1.134024    0.332396
     32          6           0        2.777260    2.187947   -0.774638
     33          6           0        2.688554    3.615816   -0.235085
     34          1           0        1.807268    1.252617    0.907537
     35          1           0        3.562691    1.314799    1.033000
     36          1           0        1.950488    2.004528   -1.472794
     37          1           0        3.704991    2.066517   -1.348386
     38          1           0        3.520754    3.822864    0.445485
     39          1           0        1.756282    3.760523    0.320371
     40          1           0        2.719819    4.353082   -1.043367
 ---------------------------------------------------------------------

 SCF Done:  E(RHF) =  -470.732657641     A.U. after   11 cycles
 E2 =    -0.1583789644D+01 EUMP2 =    -0.47231644728471D+03

 The electronic state is 1-A.
 Alpha  occ. eigenvalues --  -11.21672 -11.21661 -11.21585 -11.21509 -11.21489
 Alpha  occ. eigenvalues --  -11.21423 -11.21359 -11.21300 -11.21150 -11.21114
 Alpha  occ. eigenvalues --  -11.21055 -11.20854  -1.08509  -1.08372  -1.03619
 Alpha  occ. eigenvalues --   -1.03446  -0.96089  -0.95878  -0.87121  -0.86885
 Alpha  occ. eigenvalues --   -0.79713  -0.79494  -0.78327  -0.78187  -0.65147
 Alpha  occ. eigenvalues --   -0.65001  -0.61008  -0.60896  -0.59414  -0.59281
 Alpha  occ. eigenvalues --   -0.57693  -0.57505  -0.55345  -0.55229  -0.52767
 Alpha  occ. eigenvalues --   -0.52596  -0.52541  -0.52237  -0.50010  -0.49831
 Alpha  occ. eigenvalues --   -0.48103  -0.47716  -0.46770  -0.46495  -0.45965
 Alpha  occ. eigenvalues --   -0.45827  -0.45648  -0.45481  -0.43854  -0.43720
 Alpha virt. eigenvalues --    0.20242   0.23080   0.23596   0.24840   0.25122
 Alpha virt. eigenvalues --    0.26184   0.26992   0.27867   0.28733   0.29598
 Alpha virt. eigenvalues --    0.30025   0.31180   0.31470   0.31995   0.32137

 Mulliken charges:
               1
     1  C   -0.298301
     2  C   -0.299731
     3  C   -0.475749
     4  H    0.149940
     5  H    0.149900
     6  H    0.151754
     7  H    0.151918
     8  H    0.155331
     9  H    0.155326
    10  H    0.160482
    11  C   -0.299000
    12  C   -0.300455
    13  C   -0.480300
    14  H    0.149294
    15  H    0.149504
    16  H    0.152174
    17  H    0.152341
    18  H    0.158847
    19  H    0.156747
    20  H    0.161189
    21  C   -0.300152
    22  C   -0.299722
    23  C   -0.482445
    24  H    0.150357
    25  H    0.149368
    26  H    0.151925
    27  H    0.151482
    28  H    0.153617
    29  H    0.165987
    30  H    0.158658
    31  C   -0.298549
    32  C   -0.299415
    33  C   -0.475757
    34  H    0.150308
    35  H    0.149562
    36  H    0.151096
    37  H    0.151874
    38  H    0.155210
    39  H    0.155345
    40  H    0.160042
 Sum of Mulliken charges =  -0.00000

 Dipole moment (field-independent basis, Debye):
    X=             -0.0637    Y=             -0.0268    Z=             -0.0073  Tot=              0.0695
 Quadrupole moment (field-independent basis, Debye-Ang):
   XX=            -84.6332   YY=            -86.2260   ZZ=            -83.9527
   XY=              0.8517   XZ=             -0.1219   YZ=             -0.5301

 Normal termination of Gaussian 16 at Wed May  5 23:01:18 2021.
