 Gaussian 16, Revision A.03,
 Gaussian 16:  EM64L-G16RevA.03 25-Dec-2016

 -------------
 #p 6-31g* mp2
 -------------

 ------------------------------------------------------
 Input file generated by CHIRIPA (05-May-2021 14:57:22)
 ------------------------------------------------------
 Symbolic Z-matrix:
 Charge =  0 Multiplicity = 1

                         Standard orientation:
 ---------------------------------------------------------------------
 Center     Atomic      Atomic             Coordinates (Angstroms)
 Number     Number       Type             X           Y           Z
 ---------------------------------------------------------------------
      1          6           0        1.534877   -0.902687    1.152365
      2          6           0        2.698271   -1.676509    1.217444
      3          6           0        3.897578   -1.202222    0.677757
      4          6           0        3.897519    0.055981    0.077579
      5          6           0        2.754989    0.850615   -0.002880
      6          6           0        1.566892    0.356185    0.543485
      7          1           0        0.607580   -1.278948    1.574200
      8          1           0        2.676363   -2.654532    1.689711
      9          1           0        4.812876   -1.780416    0.714357
     10          1           0        2.807973    1.821700   -0.479959
     11          1           0        0.664919    0.959333    0.491499
     12          7           0        5.161238    0.568750   -0.497298
     13          8           0        5.134891    1.680484   -1.020737
     14          8           0        6.154159   -0.150787   -0.413561
     15          6           0       -4.138334    2.433721    0.443541
     16          6           0       -5.174796    1.495334    0.484752
     17          6           0       -4.937466    0.159966    0.145610
     18          6           0       -3.645826   -0.203997   -0.231865
     19          6           0       -2.592342    0.707526   -0.282744
     20          6           0       -2.852682    2.037521    0.060600
     21          1           0       -4.331636    3.468980    0.708627
     22          1           0       -6.174241    1.800181    0.781773
     23          1           0       -5.721478   -0.587163    0.168849
     24          1           0       -1.606485    0.373640   -0.582785
     25          1           0       -2.045826    2.764118    0.027688
     26          7           0       -3.382396   -1.614845   -0.593123
     27          8           0       -2.235646   -1.910171   -0.922341
     28          8           0       -4.327657   -2.398630   -0.540220
 ---------------------------------------------------------------------

 SCF Done:  E(RHF) =  -868.337569056     A.U. after   16 cycles
 E2 =    -0.2599786227D+01 EUMP2 =    -0.87093735528252D+03

 The electronic state is 1-A.
 Alpha  occ. eigenvalues --  -20.61584 -20.61555 -20.60752 -20.60740 -15.86623
 Alpha  occ. eigenvalues --  -15.85807 -11.32021 -11.31157 -11.28650 -11.28536
 Alpha  occ. eigenvalues --  -11.28282 -11.27831 -11.27722 -11.27648 -11.27537
 Alpha  occ. eigenvalues --  -11.27453 -11.26878 -11.26657  -1.60647  -1.59825
 Alpha  occ. eigenvalues --   -1.40200  -1.39380  -1.20186  -1.19346  -1.09561
 Alpha  occ. eigenvalues --   -1.08725  -1.05605  -1.04773  -0.96398  -0.95558
 Alpha  occ. eigenvalues --   -0.86990  -0.86169  -0.83237  -0.82411  -0.78298
 Alpha  occ. eigenvalues --   -0.77473  -0.72835  -0.72026  -0.71975  -0.71281
 Alpha  occ. eigenvalues --   -0.71148  -0.70407  -0.65840  -0.65614  -0.65004
 Alpha  occ. eigenvalues --   -0.64826  -0.62969  -0.62105  -0.56058  -0.55204
 Alpha  occ. eigenvalues --   -0.53915  -0.53704  -0.53056  -0.52868  -0.49600
 Alpha  occ. eigenvalues --   -0.49589  -0.48783  -0.48779  -0.45599  -0.44789
 Alpha  occ. eigenvalues --   -0.38137  -0.37275  -0.37206  -0.36376
 Alpha virt. eigenvalues --    0.04223   0.05109   0.10426   0.11176   0.15692
 Alpha virt. eigenvalues --    0.16593   0.18850   0.22061   0.24902   0.27235
 Alpha virt. eigenvalues --    0.28079   0.29084   0.30070   0.31595   0.32001

 Mulliken charges:
               1
     1  C   -0.165039
     2  C   -0.218412
     3  C   -0.169501
     4  C    0.158220
     5  C   -0.170237
     6  C   -0.220615
     7  H    0.231760
     8  H    0.226423
     9  H    0.276442
    10  H    0.273058
    11  H    0.211322
    12  N    0.488288
    13  O   -0.461930
    14  O   -0.459640
    15  C   -0.170049
    16  C   -0.218000
    17  C   -0.169982
    18  C    0.159204
    19  C   -0.179546
    20  C   -0.219251
    21  H    0.228835
    22  H    0.226702
    23  H    0.277891
    24  H    0.274042
    25  H    0.221970
    26  N    0.487644
    27  O   -0.462728
    28  O   -0.456869
 Sum of Mulliken charges =  -0.00000

 Dipole moment (field-independent basis, Debye):
    X=             -5.5827    Y=              3.0162    Z=              3.3646  Tot=              7.1822
 Quadrupole moment (field-independent basis, Debye-Ang):
   XX=           -126.1324   YY=           -103.7115   ZZ=           -106.1121
   XY=            -27.0584   XZ=              2.9186   YZ=             -3.1191

 Normal termination of Gaussian 16 at Thu May  6 11:14:07 2021.
