 Gaussian 16, Revision A.03,
 Gaussian 16:  EM64L-G16RevA.03 25-Dec-2016

 -------------
 #p 6-31g* mp2
 -------------

 ------------------------------------------------------
 Input file generated by CHIRIPA (05-May-2021 14:57:27)
 ------------------------------------------------------
 Symbolic Z-matrix:
 Charge =  0 Multiplicity = 1

                         Standard orientation:
 ---------------------------------------------------------------------
 Center     Atomic      Atomic             Coordinates (Angstroms)
 Number     Number       Type             X           Y           Z
 ---------------------------------------------------------------------
      1          6           0        2.097991    2.305893    0.873822
      2          6           0        2.505453    2.072098   -0.443690
      3          6           0        2.918822    0.797810   -0.843518
      4          6           0        2.912204   -0.224218    0.104483
      5          6           0        2.511868   -0.022796    1.424502
      6          6           0        2.102492    1.259545    1.802076
      7          1           0        1.778427    3.298918    1.175774
      8          1           0        2.502984    2.882812   -1.166726
      9          1           0        3.239231    0.589008   -1.857006
     10          1           0        2.525149   -0.850910    2.122691
     11          1           0        1.786573    1.438198    2.825952
     12          7           0        3.347706   -1.577513   -0.307018
     13          8           0        3.332741   -2.461074    0.547225
     14          8           0        3.695772   -1.729038   -1.476004
     15          6           0       -1.670358    2.170103   -0.713255
     16          6           0       -3.005793    2.179980   -0.297275
     17          6           0       -3.664127    0.984272    0.005092
     18          6           0       -2.953546   -0.208505   -0.120005
     19          6           0       -1.622472   -0.251090   -0.531973
     20          6           0       -0.984170    0.956739   -0.829071
     21          1           0       -1.166729    3.103666   -0.946094
     22          1           0       -3.541185    3.120802   -0.206433
     23          1           0       -4.697492    0.963024    0.329320
     24          1           0       -1.114995   -1.204668   -0.613069
     25          1           0        0.052997    0.946040   -1.151896
     26          7           0       -3.639891   -1.480763    0.197309
     27          8           0       -2.991723   -2.518330    0.079110
     28          8           0       -4.813021   -1.416302    0.558210
 ---------------------------------------------------------------------

 SCF Done:  E(RHF) =  -868.336063422     A.U. after   16 cycles
 E2 =    -0.2603237760D+01 EUMP2 =    -0.87093930118235D+03

 The electronic state is 1-A.
 Alpha  occ. eigenvalues --  -20.61475 -20.61454 -20.60790 -20.60772 -15.86530
 Alpha  occ. eigenvalues --  -15.85834 -11.32168 -11.31278 -11.28764 -11.28675
 Alpha  occ. eigenvalues --  -11.28491 -11.27847 -11.27824 -11.27756 -11.27701
 Alpha  occ. eigenvalues --  -11.27644 -11.26946 -11.26705  -1.60543  -1.59859
 Alpha  occ. eigenvalues --   -1.40086  -1.39409  -1.20368  -1.19443  -1.09693
 Alpha  occ. eigenvalues --   -1.08846  -1.05784  -1.04837  -0.96477  -0.95670
 Alpha  occ. eigenvalues --   -0.87144  -0.86249  -0.83291  -0.82486  -0.78301
 Alpha  occ. eigenvalues --   -0.77516  -0.72729  -0.72050  -0.71887  -0.71406
 Alpha  occ. eigenvalues --   -0.71186  -0.70604  -0.65974  -0.65732  -0.65093
 Alpha  occ. eigenvalues --   -0.64902  -0.63078  -0.62232  -0.56232  -0.55458
 Alpha  occ. eigenvalues --   -0.54323  -0.53820  -0.53166  -0.52619  -0.49515
 Alpha  occ. eigenvalues --   -0.49476  -0.48814  -0.48802  -0.45428  -0.44796
 Alpha  occ. eigenvalues --   -0.38468  -0.37403  -0.37363  -0.36384
 Alpha virt. eigenvalues --    0.04159   0.05013   0.10173   0.11191   0.15618
 Alpha virt. eigenvalues --    0.16470   0.20107   0.21683   0.26190   0.26968
 Alpha virt. eigenvalues --    0.27585   0.28667   0.30108   0.30992   0.32020

 Mulliken charges:
               1
     1  C   -0.167510
     2  C   -0.230699
     3  C   -0.182685
     4  C    0.159906
     5  C   -0.169747
     6  C   -0.214686
     7  H    0.226795
     8  H    0.224209
     9  H    0.278829
    10  H    0.281491
    11  H    0.228963
    12  N    0.487407
    13  O   -0.454520
    14  O   -0.458678
    15  C   -0.177469
    16  C   -0.218341
    17  C   -0.172653
    18  C    0.159059
    19  C   -0.176060
    20  C   -0.217830
    21  H    0.216963
    22  H    0.221599
    23  H    0.275341
    24  H    0.278478
    25  H    0.232827
    26  N    0.487594
    27  O   -0.457434
    28  O   -0.461150
 Sum of Mulliken charges =  -0.00000

 Dipole moment (field-independent basis, Debye):
    X=              1.1648    Y=              9.0334    Z=              0.5508  Tot=              9.1248
 Quadrupole moment (field-independent basis, Debye-Ang):
   XX=           -125.1458   YY=           -108.1504   ZZ=           -100.2882
   XY=             -1.5863   XZ=              5.5146   YZ=             -1.0597

 Normal termination of Gaussian 16 at Thu May  6 10:00:45 2021.
