 Gaussian 16, Revision A.03,
 Gaussian 16:  EM64L-G16RevA.03 25-Dec-2016

 -------------
 #p 6-31g* mp2
 -------------

 ------------------------------------------------------
 Input file generated by CHIRIPA (05-May-2021 14:53:12)
 ------------------------------------------------------
 Symbolic Z-matrix:
 Charge =  0 Multiplicity = 1

                         Standard orientation:
 ---------------------------------------------------------------------
 Center     Atomic      Atomic             Coordinates (Angstroms)
 Number     Number       Type             X           Y           Z
 ---------------------------------------------------------------------
      1          6           0       -2.932105   -0.606054   -0.306816
      2          6           0       -3.783532   -1.656009   -1.021414
      3          6           0       -3.025465   -2.959540   -1.274268
      4          1           0       -2.035406   -0.399886   -0.907126
      5          1           0       -2.580331   -1.018083    0.649156
      6          1           0       -4.134738   -1.241625   -1.975121
      7          1           0       -4.678403   -1.859560   -0.419427
      8          1           0       -2.688474   -3.398653   -0.329695
      9          1           0       -2.141720   -2.777207   -1.894228
     10          1           0       -3.652816   -3.696006   -1.786037
     11          6           0       -3.676083    0.702652   -0.046983
     12          6           0       -2.824656    1.752608    0.667615
     13          6           0       -3.582723    3.056139    0.920468
     14          1           0       -4.027857    1.114681   -1.002955
     15          1           0       -4.572782    0.496485    0.553326
     16          1           0       -1.929785    1.956159    0.065627
     17          1           0       -2.473450    1.338224    1.621321
     18          1           0       -4.466468    2.873805    1.540429
     19          1           0       -3.919714    3.495252   -0.024105
     20          1           0       -2.955372    3.792604    1.432238
     21          6           0        1.453090   -1.269542    2.029145
     22          6           0        0.699504   -0.459888    1.172938
     23          6           0        1.314072    0.227275    0.121910
     24          6           0        2.690397    0.081353   -0.044606
     25          6           0        3.468414   -0.717803    0.791653
     26          6           0        2.832707   -1.395693    1.836109
     27          1           0        0.967469   -1.799745    2.843057
     28          1           0       -0.372090   -0.360046    1.320465
     29          1           0        0.754673    0.860720   -0.555761
     30          1           0        4.534899   -0.797610    0.619437
     31          1           0        3.420468   -2.023786    2.499497
     32          7           0        3.352201    0.803913   -1.153805
     33          8           0        4.566208    0.658706   -1.279270
     34          8           0        2.644387    1.501782   -1.876727
 ---------------------------------------------------------------------

 SCF Done:  E(RHF) =  -669.535160904     A.U. after   15 cycles
 E2 =    -0.2092755118D+01 EUMP2 =    -0.67162791602163D+03

 The electronic state is 1-A.
 Alpha  occ. eigenvalues --  -20.60702 -20.60697 -15.85752 -11.31084 -11.27644
 Alpha  occ. eigenvalues --  -11.27619 -11.27361 -11.26668 -11.26540 -11.22521
 Alpha  occ. eigenvalues --  -11.22366 -11.22258 -11.22159 -11.21678 -11.21615
 Alpha  occ. eigenvalues --   -1.59777  -1.39332  -1.19242  -1.09266  -1.08644
 Alpha  occ. eigenvalues --   -1.04632  -1.04246  -0.96679  -0.95490  -0.87691
 Alpha  occ. eigenvalues --   -0.86041  -0.82331  -0.80337  -0.79171  -0.77337
 Alpha  occ. eigenvalues --   -0.71972  -0.71099  -0.70363  -0.65912  -0.64888
 Alpha  occ. eigenvalues --   -0.64618  -0.62004  -0.61632  -0.60047  -0.58304
 Alpha  occ. eigenvalues --   -0.55954  -0.55150  -0.53352  -0.53162  -0.52946
 Alpha  occ. eigenvalues --   -0.52692  -0.50612  -0.48733  -0.48730  -0.48642
 Alpha  occ. eigenvalues --   -0.47369  -0.46571  -0.46538  -0.44744  -0.44532
 Alpha  occ. eigenvalues --   -0.37226  -0.36222
 Alpha virt. eigenvalues --    0.05135   0.11387   0.16596   0.19463   0.22714
 Alpha virt. eigenvalues --    0.23420   0.23931   0.24915   0.27301   0.28660
 Alpha virt. eigenvalues --    0.29726   0.30701   0.31253   0.31404   0.31667

 Mulliken charges:
               1
     1  C   -0.304337
     2  C   -0.299549
     3  C   -0.476520
     4  H    0.150848
     5  H    0.141644
     6  H    0.156257
     7  H    0.153472
     8  H    0.152622
     9  H    0.158619
    10  H    0.163263
    11  C   -0.297773
    12  C   -0.305170
    13  C   -0.475816
    14  H    0.155034
    15  H    0.152184
    16  H    0.151633
    17  H    0.146590
    18  H    0.156716
    19  H    0.159402
    20  H    0.163530
    21  C   -0.173491
    22  C   -0.223350
    23  C   -0.177890
    24  C    0.159367
    25  C   -0.171487
    26  C   -0.218224
    27  H    0.224884
    28  H    0.237340
    29  H    0.275975
    30  H    0.275057
    31  H    0.222813
    32  N    0.488201
    33  O   -0.460727
    34  O   -0.461117
 Sum of Mulliken charges =  -0.00000

 Dipole moment (field-independent basis, Debye):
    X=             -2.5978    Y=             -2.5050    Z=              3.8147  Tot=              5.2512
 Quadrupole moment (field-independent basis, Debye-Ang):
   XX=           -102.8650   YY=            -95.5431   ZZ=            -94.5924
   XY=             -8.7600   XZ=             12.1976   YZ=             -0.6537

 Normal termination of Gaussian 16 at Thu May  6 10:23:56 2021.
