 Gaussian 16, Revision A.03,
 Gaussian 16:  EM64L-G16RevA.03 25-Dec-2016

 -------------
 #p 6-31g* mp2
 -------------

 ------------------------------------------------------
 Input file generated by CHIRIPA (05-May-2021 14:55:20)
 ------------------------------------------------------
 Symbolic Z-matrix:
 Charge =  0 Multiplicity = 1

                         Standard orientation:
 ---------------------------------------------------------------------
 Center     Atomic      Atomic             Coordinates (Angstroms)
 Number     Number       Type             X           Y           Z
 ---------------------------------------------------------------------
      1          6           0        3.123084   -1.153306   -1.659364
      2          6           0        2.424019   -1.930312   -0.729799
      3          6           0        1.779066   -1.329778    0.355532
      4          6           0        1.853970    0.056546    0.481172
      5          6           0        2.542562    0.857838   -0.428257
      6          6           0        3.180024    0.235840   -1.505897
      7          1           0        3.621190   -1.628152   -2.499488
      8          1           0        2.378118   -3.009352   -0.846462
      9          1           0        1.230899   -1.907360    1.089923
     10          1           0        2.570607    1.931254   -0.285392
     11          1           0        3.722196    0.841783   -2.226263
     12          7           0        1.175152    0.703666    1.626092
     13          8           0        1.256095    1.926898    1.714350
     14          8           0        0.575004   -0.024606    2.413544
     15          6           0       -2.681516    0.695604   -0.771080
     16          6           0       -1.855358    1.910819   -0.348350
     17          6           0       -2.197348    3.166384   -1.151090
     18          1           0       -2.519490    0.504141   -1.840675
     19          1           0       -3.749048    0.927769   -0.653304
     20          1           0       -0.789661    1.675947   -0.465577
     21          1           0       -2.019220    2.099295    0.720408
     22          1           0       -3.252951    3.428217   -1.025603
     23          1           0       -2.016406    3.002463   -2.218326
     24          1           0       -1.595150    4.022969   -0.832534
     25          6           0       -2.351052   -0.567329    0.022342
     26          6           0       -3.177210   -1.782544   -0.400388
     27          6           0       -2.835220   -3.038109    0.402353
     28          1           0       -1.283521   -0.799495   -0.095433
     29          1           0       -2.513078   -0.375866    1.091938
     30          1           0       -3.013348   -1.971020   -1.469146
     31          1           0       -4.242907   -1.547672   -0.283160
     32          1           0       -3.016162   -2.874189    1.469588
     33          1           0       -1.779617   -3.299942    0.276865
     34          1           0       -3.437418   -3.894694    0.083796
 ---------------------------------------------------------------------

 SCF Done:  E(RHF) =  -669.535722782     A.U. after   15 cycles
 E2 =    -0.2094629525D+01 EUMP2 =    -0.67163035230659D+03

 The electronic state is 1-A.
 Alpha  occ. eigenvalues --  -20.60879 -20.60855 -15.85874 -11.31282 -11.27845
 Alpha  occ. eigenvalues --  -11.27838 -11.27586 -11.26871 -11.26861 -11.21326
 Alpha  occ. eigenvalues --  -11.20956 -11.20940 -11.20892 -11.20826 -11.20566
 Alpha  occ. eigenvalues --   -1.59911  -1.39468  -1.19459  -1.08844  -1.07975
 Alpha  occ. eigenvalues --   -1.04861  -1.03118  -0.95674  -0.95583  -0.86611
 Alpha  occ. eigenvalues --   -0.86253  -0.82506  -0.79181  -0.77831  -0.77506
 Alpha  occ. eigenvalues --   -0.72115  -0.71208  -0.70552  -0.65107  -0.64864
 Alpha  occ. eigenvalues --   -0.64606  -0.62204  -0.60529  -0.58947  -0.57178
 Alpha  occ. eigenvalues --   -0.55353  -0.54897  -0.53195  -0.52944  -0.52293
 Alpha  occ. eigenvalues --   -0.52015  -0.49557  -0.48888  -0.48871  -0.47546
 Alpha  occ. eigenvalues --   -0.46235  -0.45307  -0.45221  -0.44728  -0.43351
 Alpha  occ. eigenvalues --   -0.37401  -0.36442
 Alpha virt. eigenvalues --    0.04960   0.11037   0.16432   0.21033   0.23175
 Alpha virt. eigenvalues --    0.24359   0.26228   0.27249   0.27581   0.28003
 Alpha virt. eigenvalues --    0.28988   0.31042   0.31107   0.32154   0.32289

 Mulliken charges:
               1
     1  C   -0.170811
     2  C   -0.219150
     3  C   -0.172605
     4  C    0.158332
     5  C   -0.172467
     6  C   -0.218219
     7  H    0.226077
     8  H    0.224138
     9  H    0.277418
    10  H    0.276255
    11  H    0.224028
    12  N    0.491600
    13  O   -0.458681
    14  O   -0.458112
    15  C   -0.298234
    16  C   -0.300744
    17  C   -0.476227
    18  H    0.144722
    19  H    0.148653
    20  H    0.145164
    21  H    0.165184
    22  H    0.154316
    23  H    0.149840
    24  H    0.162904
    25  C   -0.302211
    26  C   -0.299442
    27  C   -0.473562
    28  H    0.144359
    29  H    0.162044
    30  H    0.148185
    31  H    0.152367
    32  H    0.160360
    33  H    0.146140
    34  H    0.158380
 Sum of Mulliken charges =  -0.00000

 Dipole moment (field-independent basis, Debye):
    X=              2.4715    Y=             -2.1954    Z=             -3.8228  Tot=              5.0539
 Quadrupole moment (field-independent basis, Debye-Ang):
   XX=            -85.4404   YY=            -92.2528   ZZ=            -98.5691
   XY=             -2.7647   XZ=             -8.1764   YZ=             -2.1375

 Normal termination of Gaussian 16 at Thu May  6 01:21:49 2021.
