 Gaussian 16, Revision A.03,
 Gaussian 16:  EM64L-G16RevA.03 25-Dec-2016

 -------------
 #p 6-31g* mp2
 -------------

 ------------------------------------------------------
 Input file generated by CHIRIPA (05-May-2021 14:57:21)
 ------------------------------------------------------
 Symbolic Z-matrix:
 Charge =  0 Multiplicity = 1

                         Standard orientation:
 ---------------------------------------------------------------------
 Center     Atomic      Atomic             Coordinates (Angstroms)
 Number     Number       Type             X           Y           Z
 ---------------------------------------------------------------------
      1          6           0       -1.257485   -1.895591   -1.552005
      2          6           0       -2.270233   -2.117389   -0.613034
      3          6           0       -2.887078   -1.042095    0.033335
      4          6           0       -2.464504    0.247676   -0.284803
      5          6           0       -1.458269    0.501057   -1.215705
      6          6           0       -0.855444   -0.589378   -1.849819
      7          1           0       -0.783750   -2.736786   -2.049361
      8          1           0       -2.584500   -3.130734   -0.379768
      9          1           0       -3.673577   -1.185217    0.764330
     10          1           0       -1.166443    1.522554   -1.427362
     11          1           0       -0.069188   -0.414130   -2.578609
     12          7           0       -3.110109    1.394056    0.392992
     13          8           0       -2.719712    2.520768    0.095088
     14          8           0       -3.994308    1.144170    1.209317
     15          6           0        3.476890    1.528022   -1.214831
     16          6           0        3.242696    1.922076    0.106682
     17          6           0        2.623546    1.051143    1.008169
     18          6           0        2.249940   -0.212141    0.552290
     19          6           0        2.469633   -0.633958   -0.758089
     20          6           0        3.090293    0.253509   -1.642245
     21          1           0        3.958446    2.211005   -1.908396
     22          1           0        3.541862    2.911273    0.441394
     23          1           0        2.430205    1.330431    2.036776
     24          1           0        2.160134   -1.626417   -1.062477
     25          1           0        3.270910   -0.055220   -2.667969
     26          7           0        1.593676   -1.142910    1.497480
     27          8           0        1.274048   -2.250479    1.071140
     28          8           0        1.411349   -0.747254    2.646763
 ---------------------------------------------------------------------

 SCF Done:  E(RHF) =  -868.337123899     A.U. after   16 cycles
 E2 =    -0.2603269894D+01 EUMP2 =    -0.87094039379288D+03

 The electronic state is 1-A.
 Alpha  occ. eigenvalues --  -20.61130 -20.61125 -20.60491 -20.60462 -15.86175
 Alpha  occ. eigenvalues --  -15.85532 -11.31594 -11.30835 -11.28295 -11.28149
 Alpha  occ. eigenvalues --  -11.27965 -11.27455 -11.27325 -11.27292 -11.27150
 Alpha  occ. eigenvalues --  -11.27145 -11.26486 -11.26316  -1.60189  -1.59553
 Alpha  occ. eigenvalues --   -1.39746  -1.39110  -1.19810  -1.19004  -1.09176
 Alpha  occ. eigenvalues --   -1.08415  -1.05245  -1.04397  -0.96007  -0.95258
 Alpha  occ. eigenvalues --   -0.86622  -0.85812  -0.82850  -0.82094  -0.77888
 Alpha  occ. eigenvalues --   -0.77151  -0.72412  -0.71757  -0.71509  -0.70920
 Alpha  occ. eigenvalues --   -0.70869  -0.70127  -0.65466  -0.65239  -0.64664
 Alpha  occ. eigenvalues --   -0.64440  -0.62585  -0.61759  -0.55714  -0.54932
 Alpha  occ. eigenvalues --   -0.53665  -0.53329  -0.52637  -0.52470  -0.49179
 Alpha  occ. eigenvalues --   -0.49144  -0.48513  -0.48503  -0.45142  -0.44531
 Alpha  occ. eigenvalues --   -0.37874  -0.37232  -0.36678  -0.35699
 Alpha virt. eigenvalues --    0.04634   0.05408   0.10460   0.11997   0.16022
 Alpha virt. eigenvalues --    0.16892   0.20303   0.22064   0.26217   0.27380
 Alpha virt. eigenvalues --    0.27868   0.29179   0.30104   0.31527   0.32473

 Mulliken charges:
               1
     1  C   -0.163092
     2  C   -0.210662
     3  C   -0.168757
     4  C    0.157712
     5  C   -0.173879
     6  C   -0.221065
     7  H    0.222885
     8  H    0.226215
     9  H    0.276639
    10  H    0.272220
    11  H    0.214974
    12  N    0.488641
    13  O   -0.464329
    14  O   -0.458723
    15  C   -0.170906
    16  C   -0.218503
    17  C   -0.169007
    18  C    0.161354
    19  C   -0.168953
    20  C   -0.225313
    21  H    0.227363
    22  H    0.227267
    23  H    0.279665
    24  H    0.269405
    25  H    0.220523
    26  N    0.489209
    27  O   -0.464095
    28  O   -0.456786
 Sum of Mulliken charges =  -0.00000

 Dipole moment (field-independent basis, Debye):
    X=              4.5658    Y=             -0.8213    Z=             -5.4240  Tot=              7.1373
 Quadrupole moment (field-independent basis, Debye-Ang):
   XX=           -104.9109   YY=           -104.2868   ZZ=           -104.3968
   XY=             20.7736   XZ=             -2.3582   YZ=              4.1566

 Normal termination of Gaussian 16 at Thu May  6 08:05:47 2021.
