 Gaussian 16, Revision A.03,
 Gaussian 16:  EM64L-G16RevA.03 25-Dec-2016

 -------------
 #p 6-31g* mp2
 -------------

 ------------------------------------------------------
 Input file generated by CHIRIPA (05-May-2021 14:51:10)
 ------------------------------------------------------
 Symbolic Z-matrix:
 Charge =  0 Multiplicity = 1

                         Standard orientation:
 ---------------------------------------------------------------------
 Center     Atomic      Atomic             Coordinates (Angstroms)
 Number     Number       Type             X           Y           Z
 ---------------------------------------------------------------------
      1          6           0       -2.479049   -1.427812    0.232571
      2          6           0       -1.005679   -1.745271   -0.025085
      3          6           0       -0.627043   -3.168570    0.385583
      4          1           0       -2.697891   -1.573683    1.299236
      5          1           0       -3.103203   -2.146950   -0.315759
      6          1           0       -0.384499   -1.024893    0.522462
      7          1           0       -0.790273   -1.598441   -1.091226
      8          1           0       -1.221900   -3.900902   -0.169787
      9          1           0       -0.813820   -3.324094    1.453070
     10          1           0        0.430502   -3.374155    0.192727
     11          6           0       -2.872853   -0.008557   -0.172846
     12          6           0       -4.346222    0.308902    0.084811
     13          6           0       -4.724858    1.732201   -0.325858
     14          1           0       -2.248698    0.710581    0.375484
     15          1           0       -2.654010    0.137315   -1.239511
     16          1           0       -4.561628    0.162073    1.150952
     17          1           0       -4.967402   -0.411476   -0.462736
     18          1           0       -4.538081    1.887726   -1.393344
     19          1           0       -4.130001    2.464533    0.229513
     20          1           0       -5.782403    1.937786   -0.133001
     21          6           0        3.227515    0.190774    0.002480
     22          6           0        2.734375   -1.222320   -0.310507
     23          6           0        3.849350   -2.266304   -0.241786
     24          1           0        4.026160    0.458200   -0.702924
     25          1           0        3.679033    0.200573    1.004194
     26          1           0        2.282677   -1.229139   -1.310777
     27          1           0        1.936680   -1.486340    0.395604
     28          1           0        4.294945   -2.288803    0.757984
     29          1           0        4.642907   -2.030140   -0.958092
     30          1           0        3.474769   -3.269280   -0.468916
     31          6           0        2.124385    1.245594   -0.062206
     32          6           0        2.617526    2.658689    0.250782
     33          6           0        1.502552    3.702673    0.182061
     34          1           0        1.672867    1.235795   -1.063920
     35          1           0        1.325741    0.978168    0.643199
     36          1           0        3.415221    2.922709   -0.455329
     37          1           0        3.069224    2.665508    1.251052
     38          1           0        0.708994    3.466509    0.898366
     39          1           0        1.056957    3.725171   -0.817709
     40          1           0        1.877133    4.705649    0.409191
 ---------------------------------------------------------------------

 SCF Done:  E(RHF) =  -470.731983164     A.U. after   11 cycles
 E2 =    -0.1584652675D+01 EUMP2 =    -0.47231663583885D+03

 The electronic state is 1-A.
 Alpha  occ. eigenvalues --  -11.21603 -11.21581 -11.21522 -11.21507 -11.21393
 Alpha  occ. eigenvalues --  -11.21371 -11.21331 -11.21311 -11.21078 -11.21063
 Alpha  occ. eigenvalues --  -11.21050 -11.21022  -1.08462  -1.08361  -1.03587
 Alpha  occ. eigenvalues --   -1.03439  -0.96004  -0.95929  -0.86991  -0.86967
 Alpha  occ. eigenvalues --   -0.79689  -0.79500  -0.78428  -0.78002  -0.65193
 Alpha  occ. eigenvalues --   -0.64921  -0.61062  -0.60803  -0.59616  -0.59101
 Alpha  occ. eigenvalues --   -0.57761  -0.57357  -0.55276  -0.55232  -0.52718
 Alpha  occ. eigenvalues --   -0.52603  -0.52399  -0.52366  -0.49912  -0.49897
 Alpha  occ. eigenvalues --   -0.47961  -0.47828  -0.46818  -0.46528  -0.46107
 Alpha  occ. eigenvalues --   -0.45824  -0.45583  -0.45118  -0.43770  -0.43752
 Alpha virt. eigenvalues --    0.21259   0.22675   0.23468   0.24346   0.25469
 Alpha virt. eigenvalues --    0.26062   0.26616   0.27539   0.28167   0.29822
 Alpha virt. eigenvalues --    0.30503   0.30898   0.31509   0.31702   0.32591

 Mulliken charges:
               1
     1  C   -0.297943
     2  C   -0.303564
     3  C   -0.481019
     4  H    0.149016
     5  H    0.149242
     6  H    0.156623
     7  H    0.152524
     8  H    0.155415
     9  H    0.154354
    10  H    0.164858
    11  C   -0.298169
    12  C   -0.299626
    13  C   -0.475644
    14  H    0.149464
    15  H    0.149556
    16  H    0.151738
    17  H    0.151888
    18  H    0.155135
    19  H    0.155314
    20  H    0.160127
    21  C   -0.298119
    22  C   -0.305605
    23  C   -0.476775
    24  H    0.149322
    25  H    0.148895
    26  H    0.152111
    27  H    0.160664
    28  H    0.155070
    29  H    0.155192
    30  H    0.160072
    31  C   -0.300556
    32  C   -0.299562
    33  C   -0.475477
    34  H    0.150192
    35  H    0.151137
    36  H    0.152100
    37  H    0.151708
    38  H    0.154478
    39  H    0.155583
    40  H    0.160279
 Sum of Mulliken charges =  -0.00000

 Dipole moment (field-independent basis, Debye):
    X=              0.0079    Y=              0.0068    Z=             -0.0128  Tot=              0.0165
 Quadrupole moment (field-independent basis, Debye-Ang):
   XX=            -85.5722   YY=            -86.5024   ZZ=            -82.9502
   XY=              1.1260   XZ=             -0.0687   YZ=              0.4200

 Normal termination of Gaussian 16 at Wed May  5 19:46:18 2021.
