 Gaussian 16, Revision A.03,
 Gaussian 16:  EM64L-G16RevA.03 25-Dec-2016

 -------------
 #p 6-31g* mp2
 -------------

 ------------------------------------------------------
 Input file generated by CHIRIPA (05-May-2021 14:55:23)
 ------------------------------------------------------
 Symbolic Z-matrix:
 Charge =  0 Multiplicity = 1

                         Standard orientation:
 ---------------------------------------------------------------------
 Center     Atomic      Atomic             Coordinates (Angstroms)
 Number     Number       Type             X           Y           Z
 ---------------------------------------------------------------------
      1          6           0       -2.740738   -2.174622    0.152793
      2          6           0       -3.335442   -1.479186   -0.905137
      3          6           0       -3.291162   -0.082579   -0.950711
      4          6           0       -2.640938    0.589696    0.082993
      5          6           0       -2.038973   -0.074732    1.150450
      6          6           0       -2.095540   -1.471416    1.175407
      7          1           0       -2.779908   -3.259570    0.180188
      8          1           0       -3.837196   -2.022684   -1.700686
      9          1           0       -3.743226    0.480910   -1.757889
     10          1           0       -1.546008    0.494680    1.929021
     11          1           0       -1.632811   -2.008869    1.998250
     12          7           0       -2.587558    2.068262    0.045659
     13          8           0       -2.008624    2.637213    0.968571
     14          8           0       -3.125662    2.630213   -0.905809
     15          6           0        2.869468   -0.853504   -0.491128
     16          6           0        2.045059   -1.766715    0.416825
     17          6           0        1.004642   -2.581697   -0.352025
     18          1           0        2.193570   -0.174273   -1.028485
     19          1           0        3.371489   -1.463627   -1.254751
     20          1           0        1.545844   -1.155202    1.179355
     21          1           0        2.723014   -2.443722    0.952228
     22          1           0        1.489108   -3.215806   -1.101559
     23          1           0        0.305249   -1.919964   -0.873140
     24          1           0        0.426662   -3.227541    0.316320
     25          6           0        3.913857   -0.032283    0.262914
     26          6           0        4.738265    0.880928   -0.645040
     27          6           0        5.778682    1.695910    0.123811
     28          1           0        3.411835    0.577840    1.026536
     29          1           0        4.589754   -0.711514    0.800271
     30          1           0        4.060310    1.557935   -1.180442
     31          1           0        5.237480    0.269415   -1.407570
     32          1           0        6.478075    1.034177    0.644926
     33          1           0        5.294216    2.330019    0.873344
     34          1           0        6.356663    2.341753   -0.544534
 ---------------------------------------------------------------------

 SCF Done:  E(RHF) =  -669.534977302     A.U. after   15 cycles
 E2 =    -0.2092606249D+01 EUMP2 =    -0.67162758355108D+03

 The electronic state is 1-A.
 Alpha  occ. eigenvalues --  -20.60809 -20.60804 -15.85863 -11.31229 -11.27798
 Alpha  occ. eigenvalues --  -11.27784 -11.27511 -11.26807 -11.26786 -11.21956
 Alpha  occ. eigenvalues --  -11.21577 -11.21552 -11.21459 -11.21429 -11.21001
 Alpha  occ. eigenvalues --   -1.59885  -1.39439  -1.19404  -1.08798  -1.08566
 Alpha  occ. eigenvalues --   -1.04807  -1.03685  -0.96140  -0.95625  -0.87165
 Alpha  occ. eigenvalues --   -0.86192  -0.82459  -0.79765  -0.78364  -0.77509
 Alpha  occ. eigenvalues --   -0.72080  -0.71211  -0.70500  -0.65199  -0.65051
 Alpha  occ. eigenvalues --   -0.64808  -0.62161  -0.61090  -0.59542  -0.57748
 Alpha  occ. eigenvalues --   -0.55484  -0.55293  -0.53224  -0.52910  -0.52714
 Alpha  occ. eigenvalues --   -0.52543  -0.50028  -0.48839  -0.48835  -0.48078
 Alpha  occ. eigenvalues --   -0.46784  -0.45910  -0.45815  -0.44845  -0.43953
 Alpha  occ. eigenvalues --   -0.37316  -0.36381
 Alpha virt. eigenvalues --    0.05001   0.11205   0.16443   0.20567   0.22875
 Alpha virt. eigenvalues --    0.24199   0.26213   0.26620   0.27123   0.28175
 Alpha virt. eigenvalues --    0.28500   0.30800   0.31088   0.31478   0.32036

 Mulliken charges:
               1
     1  C   -0.168382
     2  C   -0.219404
     3  C   -0.171464
     4  C    0.157926
     5  C   -0.173108
     6  C   -0.213607
     7  H    0.226023
     8  H    0.223831
     9  H    0.275746
    10  H    0.275372
    11  H    0.223919
    12  N    0.488070
    13  O   -0.460592
    14  O   -0.460311
    15  C   -0.298836
    16  C   -0.299556
    17  C   -0.474276
    18  H    0.152635
    19  H    0.149584
    20  H    0.147485
    21  H    0.151462
    22  H    0.154480
    23  H    0.162530
    24  H    0.147662
    25  C   -0.298743
    26  C   -0.300201
    27  C   -0.476055
    28  H    0.151202
    29  H    0.148636
    30  H    0.154749
    31  H    0.151134
    32  H    0.154121
    33  H    0.156961
    34  H    0.161003
 Sum of Mulliken charges =  -0.00000

 Dipole moment (field-independent basis, Debye):
    X=             -0.2008    Y=             -5.1539    Z=              0.0834  Tot=              5.1585
 Quadrupole moment (field-independent basis, Debye-Ang):
   XX=            -93.0793   YY=           -101.6846   ZZ=            -91.4456
   XY=             13.1179   XZ=              1.7284   YZ=             -0.4689

 Normal termination of Gaussian 16 at Wed May  5 22:19:33 2021.
