 Gaussian 16, Revision A.03,
 Gaussian 16:  EM64L-G16RevA.03 25-Dec-2016

 -------------
 #p 6-31g* mp2
 -------------

 ------------------------------------------------------
 Input file generated by CHIRIPA (05-May-2021 14:51:08)
 ------------------------------------------------------
 Symbolic Z-matrix:
 Charge =  0 Multiplicity = 1

                         Standard orientation:
 ---------------------------------------------------------------------
 Center     Atomic      Atomic             Coordinates (Angstroms)
 Number     Number       Type             X           Y           Z
 ---------------------------------------------------------------------
      1          6           0       -2.868957   -0.324805   -0.000733
      2          6           0       -3.620659   -1.420878   -0.756745
      3          6           0       -3.026991   -2.811069   -0.527132
      4          1           0       -1.815099   -0.330856   -0.311040
      5          1           0       -2.879864   -0.556350    1.073354
      6          1           0       -3.609527   -1.186615   -1.828945
      7          1           0       -4.672892   -1.412092   -0.444743
      8          1           0       -3.052579   -3.070051    0.536294
      9          1           0       -1.983172   -2.843293   -0.855773
     10          1           0       -3.579607   -3.579394   -1.076815
     11          6           0       -3.450598    1.070628   -0.220252
     12          6           0       -2.698896    2.166701    0.535759
     13          6           0       -3.292564    3.556891    0.306147
     14          1           0       -3.439691    1.302173   -1.294339
     15          1           0       -4.504457    1.076678    0.090055
     16          1           0       -1.646664    2.157914    0.223757
     17          1           0       -2.710029    1.932437    1.607959
     18          1           0       -4.336383    3.589116    0.634788
     19          1           0       -3.266977    3.815874   -0.757279
     20          1           0       -2.739948    4.325217    0.855830
     21          6           0        2.826901   -0.875919    0.579117
     22          6           0        1.472782   -1.373060    0.071969
     23          6           0        0.819305   -2.378741    1.020316
     24          1           0        3.495894   -1.735567    0.721936
     25          1           0        2.693787   -0.415761    1.568021
     26          1           0        1.608185   -1.830904   -0.916292
     27          1           0        0.806998   -0.512110   -0.069843
     28          1           0        0.655371   -1.929302    2.005066
     29          1           0        1.461111   -3.255591    1.153807
     30          1           0       -0.147572   -2.720998    0.638388
     31          6           0        3.492654    0.130096   -0.358132
     32          6           0        4.846773    0.627237    0.149017
     33          6           0        5.500251    1.632919   -0.799331
     34          1           0        3.625768   -0.330061   -1.347035
     35          1           0        2.823661    0.989744   -0.500952
     36          1           0        5.512558   -0.233713    0.290829
     37          1           0        4.711370    1.085082    1.137278
     38          1           0        4.858444    2.509768   -0.932822
     39          1           0        5.664184    1.183480   -1.784080
     40          1           0        6.467129    1.975176   -0.417403
 ---------------------------------------------------------------------

 SCF Done:  E(RHF) =  -470.732928022     A.U. after   11 cycles
 E2 =    -0.1583582846D+01 EUMP2 =    -0.47231651086746D+03

 The electronic state is 1-A.
 Alpha  occ. eigenvalues --  -11.21636 -11.21625 -11.21599 -11.21586 -11.21416
 Alpha  occ. eigenvalues --  -11.21397 -11.21353 -11.21337 -11.21104 -11.21096
 Alpha  occ. eigenvalues --  -11.21071 -11.20941  -1.08462  -1.08409  -1.03577
 Alpha  occ. eigenvalues --   -1.03492  -0.96023  -0.95939  -0.87058  -0.86939
 Alpha  occ. eigenvalues --   -0.79641  -0.79561  -0.78305  -0.78200  -0.65130
 Alpha  occ. eigenvalues --   -0.65009  -0.60980  -0.60902  -0.59531  -0.59205
 Alpha  occ. eigenvalues --   -0.57730  -0.57461  -0.55323  -0.55214  -0.52809
 Alpha  occ. eigenvalues --   -0.52701  -0.52455  -0.52212  -0.49959  -0.49885
 Alpha  occ. eigenvalues --   -0.48021  -0.47770  -0.46698  -0.46607  -0.45936
 Alpha  occ. eigenvalues --   -0.45764  -0.45737  -0.45483  -0.43812  -0.43729
 Alpha virt. eigenvalues --    0.20897   0.23176   0.23340   0.24500   0.25646
 Alpha virt. eigenvalues --    0.26670   0.26860   0.27283   0.28231   0.29302
 Alpha virt. eigenvalues --    0.30888   0.31520   0.31692   0.31700   0.32023

 Mulliken charges:
               1
     1  C   -0.304759
     2  C   -0.299322
     3  C   -0.480004
     4  H    0.156484
     5  H    0.149827
     6  H    0.151927
     7  H    0.152073
     8  H    0.156052
     9  H    0.158680
    10  H    0.160802
    11  C   -0.298094
    12  C   -0.299688
    13  C   -0.475703
    14  H    0.149533
    15  H    0.149800
    16  H    0.151147
    17  H    0.151999
    18  H    0.155368
    19  H    0.155301
    20  H    0.160205
    21  C   -0.297841
    22  C   -0.303376
    23  C   -0.482923
    24  H    0.149782
    25  H    0.149771
    26  H    0.151007
    27  H    0.154131
    28  H    0.154805
    29  H    0.154390
    30  H    0.169095
    31  C   -0.298253
    32  C   -0.299643
    33  C   -0.475704
    34  H    0.149377
    35  H    0.149237
    36  H    0.151996
    37  H    0.152000
    38  H    0.155113
    39  H    0.155131
    40  H    0.160276
 Sum of Mulliken charges =  -0.00000

 Dipole moment (field-independent basis, Debye):
    X=             -0.0400    Y=             -0.0114    Z=             -0.0022  Tot=              0.0416
 Quadrupole moment (field-independent basis, Debye-Ang):
   XX=            -84.6217   YY=            -85.8424   ZZ=            -84.2430
   XY=             -0.3275   XZ=             -0.4130   YZ=              0.7951

 Normal termination of Gaussian 16 at Wed May  5 16:35:00 2021.
