 Gaussian 16, Revision A.03,
 Gaussian 16:  EM64L-G16RevA.03 25-Dec-2016

 -------------
 #p 6-31g* mp2
 -------------

 ------------------------------------------------------
 Input file generated by CHIRIPA (05-May-2021 14:57:24)
 ------------------------------------------------------
 Symbolic Z-matrix:
 Charge =  0 Multiplicity = 1

                         Standard orientation:
 ---------------------------------------------------------------------
 Center     Atomic      Atomic             Coordinates (Angstroms)
 Number     Number       Type             X           Y           Z
 ---------------------------------------------------------------------
      1          6           0       -4.964965    0.590315   -1.224042
      2          6           0       -4.108103   -0.387478   -1.740017
      3          6           0       -3.078830   -0.915476   -0.954930
      4          6           0       -2.934501   -0.440667    0.347766
      5          6           0       -3.772015    0.532680    0.890404
      6          6           0       -4.794486    1.046469    0.087210
      7          1           0       -5.761887    0.994958   -1.840950
      8          1           0       -4.238139   -0.743613   -2.758007
      9          1           0       -2.401184   -1.673203   -1.329180
     10          1           0       -3.617516    0.867879    1.908829
     11          1           0       -5.458438    1.805757    0.490564
     12          7           0       -1.848456   -0.992114    1.188487
     13          8           0       -1.742301   -0.557078    2.333088
     14          8           0       -1.123933   -1.848932    0.686924
     15          6           0        4.662642   -1.638195   -0.327580
     16          6           0        5.148947   -0.395842    0.092644
     17          6           0        4.299665    0.712512    0.162073
     18          6           0        2.963728    0.541972   -0.197761
     19          6           0        2.449312   -0.682801   -0.620369
     20          6           0        3.316749   -1.777464   -0.682120
     21          1           0        5.329436   -2.493873   -0.378532
     22          1           0        6.193721   -0.284745    0.368594
     23          1           0        4.649764    1.685783    0.483929
     24          1           0        1.402947   -0.762574   -0.889022
     25          1           0        2.936313   -2.741088   -1.008835
     26          7           0        2.055022    1.708089   -0.128323
     27          8           0        0.882181    1.531693   -0.450764
     28          8           0        2.532823    2.776408    0.247227
 ---------------------------------------------------------------------

 SCF Done:  E(RHF) =  -868.339685647     A.U. after   16 cycles
 E2 =    -0.2598940553D+01 EUMP2 =    -0.87093862619991D+03

 The electronic state is 1-A.
 Alpha  occ. eigenvalues --  -20.60599 -20.60516 -20.60208 -20.60194 -15.85595
 Alpha  occ. eigenvalues --  -15.85254 -11.30773 -11.30431 -11.27385 -11.27304
 Alpha  occ. eigenvalues --  -11.27078 -11.27058 -11.26918 -11.26782 -11.26364
 Alpha  occ. eigenvalues --  -11.26314 -11.26053 -11.25951  -1.59600  -1.59272
 Alpha  occ. eigenvalues --   -1.39173  -1.38834  -1.18932  -1.18611  -1.08367
 Alpha  occ. eigenvalues --   -1.08055  -1.04333  -1.03987  -0.95239  -0.94912
 Alpha  occ. eigenvalues --   -0.85746  -0.85406  -0.82098  -0.81753  -0.77159
 Alpha  occ. eigenvalues --   -0.76804  -0.71847  -0.71501  -0.70869  -0.70567
 Alpha  occ. eigenvalues --   -0.70086  -0.69742  -0.64617  -0.64365  -0.64279
 Alpha  occ. eigenvalues --   -0.64008  -0.61705  -0.61331  -0.54867  -0.54544
 Alpha  occ. eigenvalues --   -0.52635  -0.52451  -0.52330  -0.52089  -0.48598
 Alpha  occ. eigenvalues --   -0.48563  -0.48239  -0.48225  -0.44621  -0.44281
 Alpha  occ. eigenvalues --   -0.36890  -0.36612  -0.35912  -0.35567
 Alpha virt. eigenvalues --    0.05384   0.05724   0.11738   0.12077   0.16873
 Alpha virt. eigenvalues --    0.17235   0.21671   0.22210   0.27435   0.27987
 Alpha virt. eigenvalues --    0.28496   0.29220   0.31066   0.31788   0.32543

 Mulliken charges:
               1
     1  C   -0.169804
     2  C   -0.217689
     3  C   -0.168319
     4  C    0.164943
     5  C   -0.167063
     6  C   -0.217782
     7  H    0.224571
     8  H    0.221214
     9  H    0.269184
    10  H    0.276178
    11  H    0.223160
    12  N    0.492502
    13  O   -0.456001
    14  O   -0.472550
    15  C   -0.170544
    16  C   -0.219301
    17  C   -0.171000
    18  C    0.157194
    19  C   -0.164540
    20  C   -0.218659
    21  H    0.223299
    22  H    0.220619
    23  H    0.273093
    24  H    0.280640
    25  H    0.224166
    26  N    0.489703
    27  O   -0.464595
    28  O   -0.462619
 Sum of Mulliken charges =  -0.00000

 Dipole moment (field-independent basis, Debye):
    X=             -0.8115    Y=             -2.1235    Z=             -3.1110  Tot=              3.8530
 Quadrupole moment (field-independent basis, Debye-Ang):
   XX=            -61.5091   YY=           -108.9047   ZZ=           -104.4621
   XY=            -13.7794   XZ=              6.2154   YZ=              6.3975

 Normal termination of Gaussian 16 at Fri May  7 08:01:59 2021.
