 Gaussian 16, Revision A.03,
 Gaussian 16:  EM64L-G16RevA.03 25-Dec-2016

 -------------
 #p 6-31g* mp2
 -------------

 ------------------------------------------------------
 Input file generated by CHIRIPA (05-May-2021 14:53:12)
 ------------------------------------------------------
 Symbolic Z-matrix:
 Charge =  0 Multiplicity = 1

                         Standard orientation:
 ---------------------------------------------------------------------
 Center     Atomic      Atomic             Coordinates (Angstroms)
 Number     Number       Type             X           Y           Z
 ---------------------------------------------------------------------
      1          6           0       -2.554586    0.583766    0.852457
      2          6           0       -2.194706    2.069437    0.887845
      3          6           0       -1.463431    2.470182    2.169419
      4          1           0       -3.179676    0.343590    1.723390
      5          1           0       -1.636342   -0.011287    0.953127
      6          1           0       -3.113208    2.661507    0.785748
      7          1           0       -1.570559    2.306145    0.016623
      8          1           0       -0.531738    1.904870    2.274167
      9          1           0       -2.083152    2.262251    3.047662
     10          1           0       -1.215725    3.536242    2.173691
     11          6           0       -3.286085    0.167829   -0.422547
     12          6           0       -3.645965   -1.317842   -0.457934
     13          6           0       -4.377240   -1.718588   -1.739509
     14          1           0       -4.204329    0.762882   -0.523216
     15          1           0       -2.660995    0.408005   -1.293479
     16          1           0       -4.270111   -1.554550    0.413287
     17          1           0       -2.727463   -1.909912   -0.355838
     18          1           0       -3.757519   -1.510656   -2.617752
     19          1           0       -5.308932   -1.153275   -1.844257
     20          1           0       -4.624946   -2.784648   -1.743780
     21          6           0        1.885645   -2.155715    1.487876
     22          6           0        0.806011   -1.581903    0.808428
     23          6           0        1.013568   -0.549562   -0.111212
     24          6           0        2.319783   -0.113568   -0.328011
     25          6           0        3.416069   -0.665068    0.333273
     26          6           0        3.184937   -1.696276    1.248553
     27          1           0        1.715254   -2.957223    2.200581
     28          1           0       -0.204119   -1.936697    0.992289
     29          1           0        0.195944   -0.087509   -0.651041
     30          1           0        4.411615   -0.290188    0.128897
     31          1           0        4.025303   -2.140038    1.774772
     32          7           0        2.551993    0.978725   -1.299285
     33          8           0        3.712394    1.344934   -1.472477
     34          8           0        1.569200    1.447974   -1.868987
 ---------------------------------------------------------------------

 SCF Done:  E(RHF) =  -669.534711615     A.U. after   15 cycles
 E2 =    -0.2094006408D+01 EUMP2 =    -0.67162871802241D+03

 The electronic state is 1-A.
 Alpha  occ. eigenvalues --  -20.60832 -20.60826 -15.85881 -11.31238 -11.27808
 Alpha  occ. eigenvalues --  -11.27793 -11.27539 -11.26819 -11.26791 -11.22244
 Alpha  occ. eigenvalues --  -11.21910 -11.21841 -11.21743 -11.21482 -11.21165
 Alpha  occ. eigenvalues --   -1.59902  -1.39457  -1.19416  -1.08907  -1.08803
 Alpha  occ. eigenvalues --   -1.04826  -1.03885  -0.96337  -0.95643  -0.87350
 Alpha  occ. eigenvalues --   -0.86212  -0.82497  -0.79967  -0.78741  -0.77518
 Alpha  occ. eigenvalues --   -0.72102  -0.71223  -0.70538  -0.65666  -0.65029
 Alpha  occ. eigenvalues --   -0.64822  -0.62136  -0.61263  -0.59703  -0.57937
 Alpha  occ. eigenvalues --   -0.55648  -0.55276  -0.53158  -0.53027  -0.52889
 Alpha  occ. eigenvalues --   -0.52731  -0.50286  -0.48859  -0.48856  -0.48269
 Alpha  occ. eigenvalues --   -0.47012  -0.46224  -0.46149  -0.44860  -0.44170
 Alpha  occ. eigenvalues --   -0.37388  -0.36377
 Alpha virt. eigenvalues --    0.04959   0.11201   0.16346   0.18933   0.22780
 Alpha virt. eigenvalues --    0.23699   0.24935   0.25732   0.27312   0.28326
 Alpha virt. eigenvalues --    0.30321   0.31060   0.31422   0.31606   0.32558

 Mulliken charges:
               1
     1  C   -0.306978
     2  C   -0.303879
     3  C   -0.476628
     4  H    0.151118
     5  H    0.142375
     6  H    0.154155
     7  H    0.162774
     8  H    0.155081
     9  H    0.153109
    10  H    0.164376
    11  C   -0.302813
    12  C   -0.300496
    13  C   -0.476044
    14  H    0.154708
    15  H    0.153996
    16  H    0.153284
    17  H    0.142191
    18  H    0.158473
    19  H    0.158098
    20  H    0.160630
    21  C   -0.171350
    22  C   -0.223656
    23  C   -0.173447
    24  C    0.156803
    25  C   -0.170535
    26  C   -0.218642
    27  H    0.226342
    28  H    0.228989
    29  H    0.281349
    30  H    0.275816
    31  H    0.223775
    32  N    0.488317
    33  O   -0.459766
    34  O   -0.461524
 Sum of Mulliken charges =  -0.00000

 Dipole moment (field-independent basis, Debye):
    X=             -0.8695    Y=             -3.7365    Z=              3.3593  Tot=              5.0993
 Quadrupole moment (field-independent basis, Debye-Ang):
   XX=            -92.5581   YY=            -94.4611   ZZ=            -98.0970
   XY=             -9.8835   XZ=              8.7867   YZ=              0.4367

 Normal termination of Gaussian 16 at Wed May  5 18:31:26 2021.
