 Gaussian 16, Revision A.03,
 Gaussian 16:  EM64L-G16RevA.03 25-Dec-2016

 -------------
 #p 6-31g* mp2
 -------------

 ------------------------------------------------------
 Input file generated by CHIRIPA (05-May-2021 14:55:19)
 ------------------------------------------------------
 Symbolic Z-matrix:
 Charge =  0 Multiplicity = 1

                         Standard orientation:
 ---------------------------------------------------------------------
 Center     Atomic      Atomic             Coordinates (Angstroms)
 Number     Number       Type             X           Y           Z
 ---------------------------------------------------------------------
      1          6           0       -5.040618    0.739228    0.445258
      2          6           0       -4.898510   -0.650821    0.381299
      3          6           0       -3.657134   -1.225051    0.091831
      4          6           0       -2.574166   -0.375590   -0.129269
      5          6           0       -2.683866    1.012949   -0.072552
      6          6           0       -3.934792    1.565220    0.218528
      7          1           0       -6.008659    1.176775    0.670750
      8          1           0       -5.755571   -1.294748    0.556936
      9          1           0       -3.518984   -2.298005    0.036132
     10          1           0       -1.811189    1.629017   -0.252311
     11          1           0       -4.042206    2.645083    0.267552
     12          7           0       -1.254921   -0.971878   -0.436569
     13          8           0       -0.316288   -0.201693   -0.627411
     14          8           0       -1.184510   -2.198143   -0.480770
     15          6           0        3.554154    1.064358    0.383170
     16          6           0        2.835293    2.060513   -0.527269
     17          6           0        2.805368    3.475365    0.051602
     18          1           0        3.059215    1.050427    1.363877
     19          1           0        4.581868    1.412369    0.556629
     20          1           0        1.809672    1.710011   -0.700080
     21          1           0        3.331884    2.071935   -1.505984
     22          1           0        3.822416    3.849277    0.207815
     23          1           0        2.291555    3.485298    1.018297
     24          1           0        2.286819    4.171137   -0.615383
     25          6           0        3.592325   -0.354434   -0.181898
     26          6           0        4.311185   -1.350589    0.728541
     27          6           0        4.341111   -2.765441    0.149669
     28          1           0        2.564611   -0.702445   -0.355358
     29          1           0        4.087264   -0.340502   -1.162605
     30          1           0        3.814593   -1.362010    1.707256
     31          1           0        5.336806   -1.000086    0.901353
     32          1           0        4.854923   -2.775372   -0.817025
     33          1           0        3.324062   -3.139353   -0.006543
     34          1           0        4.859660   -3.461212    0.816655
 ---------------------------------------------------------------------

 SCF Done:  E(RHF) =  -669.536611138     A.U. after   15 cycles
 E2 =    -0.2091827942D+01 EUMP2 =    -0.67162843908006D+03

 The electronic state is 1-A.
 Alpha  occ. eigenvalues --  -20.61138 -20.61126 -15.86152 -11.31400 -11.27952
 Alpha  occ. eigenvalues --  -11.27949 -11.27677 -11.26943 -11.26933 -11.20401
 Alpha  occ. eigenvalues --  -11.20374 -11.20329 -11.20178 -11.19882 -11.19777
 Alpha  occ. eigenvalues --   -1.60184  -1.39743  -1.19560  -1.08978  -1.07149
 Alpha  occ. eigenvalues --   -1.04944  -1.02396  -0.95833  -0.94860  -0.86349
 Alpha  occ. eigenvalues --   -0.85881  -0.82673  -0.78452  -0.77734  -0.76923
 Alpha  occ. eigenvalues --   -0.72381  -0.71489  -0.70668  -0.65222  -0.64947
 Alpha  occ. eigenvalues --   -0.63752  -0.62292  -0.59793  -0.58248  -0.56470
 Alpha  occ. eigenvalues --   -0.55452  -0.54151  -0.53280  -0.53035  -0.51614
 Alpha  occ. eigenvalues --   -0.51292  -0.49201  -0.49133  -0.48734  -0.46772
 Alpha  occ. eigenvalues --   -0.45444  -0.45185  -0.44528  -0.44229  -0.42600
 Alpha  occ. eigenvalues --   -0.37535  -0.36542
 Alpha virt. eigenvalues --    0.04793   0.11114   0.16303   0.21089   0.24009
 Alpha virt. eigenvalues --    0.25201   0.26999   0.27479   0.28124   0.28977
 Alpha virt. eigenvalues --    0.29277   0.30847   0.31885   0.32564   0.32665

 Mulliken charges:
               1
     1  C   -0.170340
     2  C   -0.218601
     3  C   -0.170472
     4  C    0.156962
     5  C   -0.170423
     6  C   -0.218608
     7  H    0.226442
     8  H    0.224198
     9  H    0.276062
    10  H    0.276049
    11  H    0.224441
    12  N    0.497116
    13  O   -0.468223
    14  O   -0.458050
    15  C   -0.294432
    16  C   -0.308669
    17  C   -0.474944
    18  H    0.146078
    19  H    0.142899
    20  H    0.172850
    21  H    0.148225
    22  H    0.152757
    23  H    0.150706
    24  H    0.154153
    25  C   -0.310662
    26  C   -0.297820
    27  C   -0.476665
    28  H    0.179934
    29  H    0.143886
    30  H    0.149144
    31  H    0.145771
    32  H    0.152254
    33  H    0.163392
    34  H    0.154591
 Sum of Mulliken charges =  -0.00000

 Dipole moment (field-independent basis, Debye):
    X=             -5.1172    Y=              1.9243    Z=              0.9945  Tot=              5.5568
 Quadrupole moment (field-independent basis, Debye-Ang):
   XX=            -71.2531   YY=            -94.1081   ZZ=            -95.9558
   XY=             -1.6851   XZ=             -3.1503   YZ=             -1.3772

 Normal termination of Gaussian 16 at Thu May  6 10:45:42 2021.
