 Gaussian 16, Revision A.03,
 Gaussian 16:  EM64L-G16RevA.03 25-Dec-2016

 -------------
 #p 6-31g* mp2
 -------------

 ------------------------------------------------------
 Input file generated by CHIRIPA (05-May-2021 14:55:24)
 ------------------------------------------------------
 Symbolic Z-matrix:
 Charge =  0 Multiplicity = 1

                         Standard orientation:
 ---------------------------------------------------------------------
 Center     Atomic      Atomic             Coordinates (Angstroms)
 Number     Number       Type             X           Y           Z
 ---------------------------------------------------------------------
      1          6           0       -1.666338    2.303502    0.197394
      2          6           0       -1.344523    1.151633    0.922757
      3          6           0       -2.183995    0.034159    0.889813
      4          6           0       -3.342498    0.103410    0.117565
      5          6           0       -3.690482    1.236530   -0.616081
      6          6           0       -2.836228    2.342206   -0.568361
      7          1           0       -1.008474    3.167000    0.228725
      8          1           0       -0.436626    1.118736    1.518313
      9          1           0       -1.958992   -0.870389    1.441705
     10          1           0       -4.602427    1.239414   -1.200690
     11          1           0       -3.088684    3.235421   -1.132700
     12          7           0       -4.239034   -1.073365    0.074866
     13          8           0       -5.253844   -0.987103   -0.613143
     14          8           0       -3.909954   -2.059700    0.730217
     15          6           0        4.638079   -0.003475    0.214673
     16          6           0        6.032099   -0.218238   -0.375723
     17          6           0        7.119351    0.542705    0.383648
     18          1           0        4.406707    1.070488    0.210904
     19          1           0        4.640685   -0.318962    1.267221
     20          1           0        6.026501    0.096268   -1.427232
     21          1           0        6.260103   -1.291832   -0.370725
     22          1           0        7.154003    0.222931    1.430140
     23          1           0        6.919074    1.618917    0.367629
     24          1           0        8.107837    0.375002   -0.055250
     25          6           0        3.540450   -0.757759   -0.533654
     26          6           0        2.146429   -0.542996    0.056742
     27          6           0        1.059177   -1.303939   -0.702629
     28          1           0        3.537843   -0.442272   -1.586202
     29          1           0        3.771822   -1.831722   -0.529885
     30          1           0        1.918426    0.530599    0.051744
     31          1           0        2.152028   -0.857501    1.108251
     32          1           0        1.259454   -2.380151   -0.686610
     33          1           0        1.024526   -0.984164   -1.749121
     34          1           0        0.070692   -1.136236   -0.263731
 ---------------------------------------------------------------------

 SCF Done:  E(RHF) =  -669.534489296     A.U. after   15 cycles
 E2 =    -0.2092962487D+01 EUMP2 =    -0.67162745178297D+03

 The electronic state is 1-A.
 Alpha  occ. eigenvalues --  -20.60784 -20.60779 -15.85839 -11.31231 -11.27785
 Alpha  occ. eigenvalues --  -11.27780 -11.27527 -11.26814 -11.26786 -11.22208
 Alpha  occ. eigenvalues --  -11.21964 -11.21857 -11.21797 -11.21403 -11.21318
 Alpha  occ. eigenvalues --   -1.59859  -1.39412  -1.19407  -1.08883  -1.08786
 Alpha  occ. eigenvalues --   -1.04829  -1.03943  -0.96368  -0.95623  -0.87380
 Alpha  occ. eigenvalues --   -0.86203  -0.82457  -0.80033  -0.78708  -0.77501
 Alpha  occ. eigenvalues --   -0.72057  -0.71183  -0.70511  -0.65514  -0.65059
 Alpha  occ. eigenvalues --   -0.64802  -0.62203  -0.61341  -0.59763  -0.58021
 Alpha  occ. eigenvalues --   -0.55637  -0.55299  -0.53517  -0.52922  -0.52880
 Alpha  occ. eigenvalues --   -0.52519  -0.50293  -0.48822  -0.48810  -0.48332
 Alpha  occ. eigenvalues --   -0.47072  -0.46237  -0.46166  -0.44814  -0.44210
 Alpha  occ. eigenvalues --   -0.37379  -0.36317
 Alpha virt. eigenvalues --    0.05005   0.11130   0.16433   0.20623   0.22593
 Alpha virt. eigenvalues --    0.24070   0.25997   0.26214   0.27110   0.28164
 Alpha virt. eigenvalues --    0.28768   0.30300   0.30992   0.31510   0.32293

 Mulliken charges:
               1
     1  C   -0.172087
     2  C   -0.215014
     3  C   -0.175485
     4  C    0.159276
     5  C   -0.171349
     6  C   -0.218021
     7  H    0.225670
     8  H    0.228017
     9  H    0.276562
    10  H    0.275786
    11  H    0.223605
    12  N    0.488234
    13  O   -0.460235
    14  O   -0.460248
    15  C   -0.298259
    16  C   -0.299986
    17  C   -0.475865
    18  H    0.146954
    19  H    0.149458
    20  H    0.152485
    21  H    0.153513
    22  H    0.155520
    23  H    0.154388
    24  H    0.161614
    25  C   -0.298164
    26  C   -0.301372
    27  C   -0.480022
    28  H    0.150939
    29  H    0.152705
    30  H    0.144127
    31  H    0.148568
    32  H    0.158320
    33  H    0.156832
    34  H    0.163534
 Sum of Mulliken charges =  -0.00000

 Dipole moment (field-independent basis, Debye):
    X=              3.1685    Y=              4.1267    Z=              0.1039  Tot=              5.2038
 Quadrupole moment (field-independent basis, Debye-Ang):
   XX=           -114.9100   YY=            -92.6760   ZZ=            -93.1702
   XY=            -16.0948   XZ=              1.6504   YZ=             -1.9535

 Normal termination of Gaussian 16 at Thu May  6 19:19:52 2021.
