 Gaussian 16, Revision A.03,
 Gaussian 16:  EM64L-G16RevA.03 25-Dec-2016

 -------------
 #p 6-31g* mp2
 -------------

 ------------------------------------------------------
 Input file generated by CHIRIPA (05-May-2021 14:53:17)
 ------------------------------------------------------
 Symbolic Z-matrix:
 Charge =  0 Multiplicity = 1

                         Standard orientation:
 ---------------------------------------------------------------------
 Center     Atomic      Atomic             Coordinates (Angstroms)
 Number     Number       Type             X           Y           Z
 ---------------------------------------------------------------------
      1          6           0       -2.995027   -0.699727   -0.214769
      2          6           0       -2.416052   -2.031232    0.264673
      3          6           0       -1.028651   -2.314492   -0.312109
      4          1           0       -3.046348   -0.703403   -1.312174
      5          1           0       -2.308591    0.111979    0.063322
      6          1           0       -3.104046   -2.840037   -0.013022
      7          1           0       -2.366282   -2.024460    1.361073
      8          1           0       -0.323698   -1.528006   -0.023868
      9          1           0       -1.065654   -2.348218   -1.405770
     10          1           0       -0.633644   -3.271189    0.043644
     11          6           0       -4.381638   -0.402439    0.353262
     12          6           0       -4.960613    0.929067   -0.126179
     13          6           0       -6.348014    1.212327    0.450603
     14          1           0       -5.068073   -1.214144    0.075171
     15          1           0       -4.330317   -0.398762    1.450667
     16          1           0       -5.010383    0.922295   -1.222580
     17          1           0       -4.272619    1.737872    0.151516
     18          1           0       -6.311011    1.246053    1.544264
     19          1           0       -7.052967    0.425841    0.162361
     20          1           0       -6.743021    2.169024    0.094850
     21          6           0        4.058357   -1.778186    0.266077
     22          6           0        4.555742   -0.624422    0.880860
     23          6           0        3.911832    0.604757    0.710428
     24          6           0        2.767736    0.644064   -0.085052
     25          6           0        2.247728   -0.487922   -0.710742
     26          6           0        2.907965   -1.706381   -0.526364
     27          1           0        4.564904   -2.728878    0.403890
     28          1           0        5.448959   -0.677206    1.496832
     29          1           0        4.275316    1.513436    1.174755
     30          1           0        1.355309   -0.403891   -1.318973
     31          1           0        2.519429   -2.600787   -1.005031
     32          7           0        2.077415    1.939666   -0.272864
     33          8           0        1.071167    1.947774   -0.978579
     34          8           0        2.555662    2.922519    0.289203
 ---------------------------------------------------------------------

 SCF Done:  E(RHF) =  -669.535060316     A.U. after   15 cycles
 E2 =    -0.2092090018D+01 EUMP2 =    -0.67162715033340D+03

 The electronic state is 1-A.
 Alpha  occ. eigenvalues --  -20.60787 -20.60781 -15.85836 -11.31174 -11.27748
 Alpha  occ. eigenvalues --  -11.27693 -11.27481 -11.26762 -11.26727 -11.21698
 Alpha  occ. eigenvalues --  -11.21454 -11.21261 -11.21193 -11.21132 -11.20780
 Alpha  occ. eigenvalues --   -1.59861  -1.39415  -1.19353  -1.08750  -1.08286
 Alpha  occ. eigenvalues --   -1.04753  -1.03464  -0.95950  -0.95583  -0.86985
 Alpha  occ. eigenvalues --   -0.86144  -0.82417  -0.79548  -0.78057  -0.77455
 Alpha  occ. eigenvalues --   -0.72054  -0.71186  -0.70466  -0.65005  -0.64921
 Alpha  occ. eigenvalues --   -0.64740  -0.62128  -0.60851  -0.59322  -0.57530
 Alpha  occ. eigenvalues --   -0.55321  -0.55186  -0.53144  -0.52885  -0.52636
 Alpha  occ. eigenvalues --   -0.52275  -0.49877  -0.48811  -0.48809  -0.47841
 Alpha  occ. eigenvalues --   -0.46539  -0.45614  -0.45497  -0.44816  -0.43692
 Alpha  occ. eigenvalues --   -0.37337  -0.36297
 Alpha virt. eigenvalues --    0.05026   0.11235   0.16502   0.21034   0.23033
 Alpha virt. eigenvalues --    0.24286   0.26237   0.26844   0.27535   0.28201
 Alpha virt. eigenvalues --    0.29396   0.30605   0.31419   0.31721   0.32249

 Mulliken charges:
               1
     1  C   -0.301243
     2  C   -0.298532
     3  C   -0.483972
     4  H    0.149751
     5  H    0.158997
     6  H    0.151517
     7  H    0.152936
     8  H    0.159459
     9  H    0.152040
    10  H    0.156385
    11  C   -0.298452
    12  C   -0.300451
    13  C   -0.475785
    14  H    0.147629
    15  H    0.149183
    16  H    0.152290
    17  H    0.157264
    18  H    0.154711
    19  H    0.153564
    20  H    0.160980
    21  C   -0.171074
    22  C   -0.218442
    23  C   -0.171273
    24  C    0.157113
    25  C   -0.172899
    26  C   -0.217749
    27  H    0.225562
    28  H    0.223343
    29  H    0.275404
    30  H    0.279097
    31  H    0.225715
    32  N    0.488279
    33  O   -0.460991
    34  O   -0.460356
 Sum of Mulliken charges =  -0.00000

 Dipole moment (field-independent basis, Debye):
    X=              2.4209    Y=             -4.4777    Z=              0.6740  Tot=              5.1347
 Quadrupole moment (field-independent basis, Debye-Ang):
   XX=            -80.1720   YY=           -100.3217   ZZ=            -93.2812
   XY=             -9.2673   XZ=              4.6522   YZ=              2.5484

 Normal termination of Gaussian 16 at Wed May  5 15:45:47 2021.
