 Gaussian 16, Revision A.03,
 Gaussian 16:  EM64L-G16RevA.03 25-Dec-2016

 -------------
 #p 6-31g* mp2
 -------------

 ------------------------------------------------------
 Input file generated by CHIRIPA (05-May-2021 14:53:12)
 ------------------------------------------------------
 Symbolic Z-matrix:
 Charge =  0 Multiplicity = 1

                         Standard orientation:
 ---------------------------------------------------------------------
 Center     Atomic      Atomic             Coordinates (Angstroms)
 Number     Number       Type             X           Y           Z
 ---------------------------------------------------------------------
      1          6           0        4.871846   -0.268356    0.138429
      2          6           0        5.685391   -0.771279   -1.054549
      3          6           0        6.615937   -1.928377   -0.689854
      4          1           0        5.558752    0.048737    0.935020
      5          1           0        4.281474   -1.099950    0.547461
      6          1           0        6.272999    0.061346   -1.462066
      7          1           0        4.996471   -1.087032   -1.848467
      8          1           0        6.042242   -2.777017   -0.303479
      9          1           0        7.326023   -1.622115    0.085118
     10          1           0        7.187898   -2.272295   -1.557288
     11          6           0        3.936857    0.888318   -0.210326
     12          6           0        3.123312    1.391241    0.982653
     13          6           0        2.192767    2.548339    0.617958
     14          1           0        4.527229    1.719912   -0.619358
     15          1           0        3.249951    0.571226   -1.006917
     16          1           0        3.812232    1.706994    1.776570
     17          1           0        2.535704    0.558616    1.390169
     18          1           0        1.482680    2.242077   -0.157014
     19          1           0        2.766461    3.396979    0.231582
     20          1           0        1.620805    2.892257    1.485391
     21          6           0       -1.166111   -0.536299    1.079155
     22          6           0       -1.328633    0.329867   -0.007060
     23          6           0       -2.584417    0.500612   -0.597317
     24          6           0       -3.660818   -0.213738   -0.073529
     25          6           0       -3.530888   -1.084064    1.007646
     26          6           0       -2.265818   -1.239262    1.582154
     27          1           0       -0.186981   -0.662900    1.531563
     28          1           0       -0.476367    0.877089   -0.399791
     29          1           0       -2.738468    1.164690   -1.439153
     30          1           0       -4.399243   -1.615946    1.377077
     31          1           0       -2.142559   -1.912618    2.425626
     32          7           0       -4.995175   -0.041207   -0.690070
     33          8           0       -5.927636   -0.682046   -0.209988
     34          8           0       -5.083318    0.731594   -1.641725
 ---------------------------------------------------------------------

 SCF Done:  E(RHF) =  -669.535369042     A.U. after   15 cycles
 E2 =    -0.2091288018D+01 EUMP2 =    -0.67162665705998D+03

 The electronic state is 1-A.
 Alpha  occ. eigenvalues --  -20.60736 -20.60731 -15.85789 -11.31151 -11.27722
 Alpha  occ. eigenvalues --  -11.27711 -11.27461 -11.26740 -11.26704 -11.22740
 Alpha  occ. eigenvalues --  -11.22309 -11.22249 -11.22229 -11.22140 -11.21597
 Alpha  occ. eigenvalues --   -1.59811  -1.39365  -1.19323  -1.09304  -1.08719
 Alpha  occ. eigenvalues --   -1.04728  -1.04396  -0.96837  -0.95554  -0.87855
 Alpha  occ. eigenvalues --   -0.86125  -0.82389  -0.80472  -0.79079  -0.77437
 Alpha  occ. eigenvalues --   -0.72008  -0.71134  -0.70437  -0.65971  -0.64974
 Alpha  occ. eigenvalues --   -0.64747  -0.62175  -0.61702  -0.60214  -0.58431
 Alpha  occ. eigenvalues --   -0.56144  -0.55233  -0.53529  -0.53274  -0.53054
 Alpha  occ. eigenvalues --   -0.52802  -0.50768  -0.48796  -0.48763  -0.48742
 Alpha  occ. eigenvalues --   -0.47515  -0.46623  -0.46535  -0.44771  -0.44631
 Alpha  occ. eigenvalues --   -0.37304  -0.36328
 Alpha virt. eigenvalues --    0.05100   0.11311   0.16591   0.18282   0.22667
 Alpha virt. eigenvalues --    0.23851   0.24360   0.25432   0.26923   0.28224
 Alpha virt. eigenvalues --    0.28637   0.29556   0.30915   0.31706   0.31818

 Mulliken charges:
               1
     1  C   -0.298327
     2  C   -0.300330
     3  C   -0.476124
     4  H    0.151624
     5  H    0.147409
     6  H    0.153608
     7  H    0.152634
     8  H    0.155157
     9  H    0.156070
    10  H    0.162465
    11  C   -0.298453
    12  C   -0.301389
    13  C   -0.479547
    14  H    0.153466
    15  H    0.147458
    16  H    0.157566
    17  H    0.143496
    18  H    0.147798
    19  H    0.162387
    20  H    0.164226
    21  C   -0.175287
    22  C   -0.223375
    23  C   -0.172682
    24  C    0.158824
    25  C   -0.171077
    26  C   -0.218766
    27  H    0.227888
    28  H    0.231577
    29  H    0.275950
    30  H    0.275424
    31  H    0.223353
    32  N    0.488012
    33  O   -0.460603
    34  O   -0.460434
 Sum of Mulliken charges =  -0.00000

 Dipole moment (field-independent basis, Debye):
    X=              4.9512    Y=             -0.5426    Z=              2.1774  Tot=              5.4360
 Quadrupole moment (field-independent basis, Debye-Ang):
   XX=           -127.9582   YY=            -92.8351   ZZ=            -93.3165
   XY=              4.0272   XZ=             -9.7500   YZ=             -2.5882

 Normal termination of Gaussian 16 at Thu May  6 08:51:27 2021.
