 Gaussian 16, Revision A.03,
 Gaussian 16:  EM64L-G16RevA.03 25-Dec-2016

 -------------
 #p 6-31g* mp2
 -------------

 ------------------------------------------------------
 Input file generated by CHIRIPA (05-May-2021 14:51:10)
 ------------------------------------------------------
 Symbolic Z-matrix:
 Charge =  0 Multiplicity = 1

                         Standard orientation:
 ---------------------------------------------------------------------
 Center     Atomic      Atomic             Coordinates (Angstroms)
 Number     Number       Type             X           Y           Z
 ---------------------------------------------------------------------
      1          6           0        2.669808    0.485823    0.911994
      2          6           0        1.178631    0.341764    1.217974
      3          6           0        0.671689    1.399025    2.199302
      4          1           0        3.238092    0.420080    1.849904
      5          1           0        2.857775    1.487895    0.502220
      6          1           0        0.993315   -0.660227    1.625757
      7          1           0        0.613844    0.407666    0.279204
      8          1           0        0.827713    2.404956    1.796362
      9          1           0        1.209340    1.330995    3.150567
     10          1           0       -0.396583    1.277454    2.403938
     11          6           0        3.191426   -0.563990   -0.067565
     12          6           0        4.682603   -0.419931   -0.373545
     13          6           0        5.189544   -1.477192   -1.354873
     14          1           0        3.003458   -1.566062    0.342209
     15          1           0        2.623141   -0.498247   -1.005475
     16          1           0        5.247389   -0.485833    0.565225
     17          1           0        4.867919    0.582060   -0.781328
     18          1           0        4.651894   -1.409162   -2.306138
     19          1           0        5.033520   -2.483123   -0.951934
     20          1           0        6.257816   -1.355621   -1.559509
     21          6           0       -3.241714   -0.428621    0.095380
     22          6           0       -3.535762   -1.826600   -0.449758
     23          6           0       -4.157907   -2.750694    0.597514
     24          1           0       -2.567649   -0.512973    0.958785
     25          1           0       -4.174716    0.015217    0.469424
     26          1           0       -2.602727   -2.267123   -0.823925
     27          1           0       -4.209052   -1.738896   -1.312083
     28          1           0       -5.102783   -2.336594    0.964027
     29          1           0       -3.487332   -2.867823    1.454958
     30          1           0       -4.359891   -3.744747    0.186514
     31          6           0       -2.619520    0.506787   -0.939809
     32          6           0       -2.325472    1.904767   -0.394671
     33          6           0       -1.703326    2.828862   -1.441943
     34          1           0       -1.686517    0.062950   -1.313852
     35          1           0       -3.293584    0.591139   -1.803214
     36          1           0       -1.652182    1.817063    0.467654
     37          1           0       -3.258507    2.345290   -0.020504
     38          1           0       -2.373902    2.945990   -2.299388
     39          1           0       -0.758451    2.414761   -1.808455
     40          1           0       -1.501342    3.822914   -1.030942
 ---------------------------------------------------------------------

 SCF Done:  E(RHF) =  -470.732750366     A.U. after   11 cycles
 E2 =    -0.1584113786D+01 EUMP2 =    -0.47231686415270D+03

 The electronic state is 1-A.
 Alpha  occ. eigenvalues --  -11.21695 -11.21643 -11.21584 -11.21493 -11.21470
 Alpha  occ. eigenvalues --  -11.21409 -11.21383 -11.21323 -11.21152 -11.21103
 Alpha  occ. eigenvalues --  -11.21068 -11.21059  -1.08512  -1.08392  -1.03630
 Alpha  occ. eigenvalues --   -1.03477  -0.96054  -0.95959  -0.87073  -0.86972
 Alpha  occ. eigenvalues --   -0.79677  -0.79555  -0.78310  -0.78223  -0.65303
 Alpha  occ. eigenvalues --   -0.64921  -0.61252  -0.60692  -0.59454  -0.59268
 Alpha  occ. eigenvalues --   -0.57656  -0.57566  -0.55377  -0.55202  -0.52784
 Alpha  occ. eigenvalues --   -0.52640  -0.52492  -0.52367  -0.49995  -0.49895
 Alpha  occ. eigenvalues --   -0.48006  -0.47863  -0.46709  -0.46561  -0.45914
 Alpha  occ. eigenvalues --   -0.45796  -0.45672  -0.45614  -0.43838  -0.43753
 Alpha virt. eigenvalues --    0.19784   0.23074   0.23866   0.24175   0.25918
 Alpha virt. eigenvalues --    0.26165   0.26880   0.27819   0.28496   0.29502
 Alpha virt. eigenvalues --    0.30896   0.31387   0.31629   0.31840   0.32215

 Mulliken charges:
               1
     1  C   -0.298136
     2  C   -0.305361
     3  C   -0.480341
     4  H    0.150068
     5  H    0.150011
     6  H    0.151948
     7  H    0.156654
     8  H    0.156289
     9  H    0.156944
    10  H    0.161882
    11  C   -0.298304
    12  C   -0.299730
    13  C   -0.475772
    14  H    0.149602
    15  H    0.149237
    16  H    0.152093
    17  H    0.152130
    18  H    0.155259
    19  H    0.155223
    20  H    0.160448
    21  C   -0.299883
    22  C   -0.299656
    23  C   -0.475712
    24  H    0.150779
    25  H    0.149464
    26  H    0.152236
    27  H    0.151927
    28  H    0.155106
    29  H    0.155104
    30  H    0.160206
    31  C   -0.298927
    32  C   -0.310211
    33  C   -0.475680
    34  H    0.149843
    35  H    0.149523
    36  H    0.164948
    37  H    0.151599
    38  H    0.155246
    39  H    0.153905
    40  H    0.160039
 Sum of Mulliken charges =  -0.00000

 Dipole moment (field-independent basis, Debye):
    X=              0.0346    Y=              0.0029    Z=              0.0308  Tot=              0.0464
 Quadrupole moment (field-independent basis, Debye-Ang):
   XX=            -84.3431   YY=            -85.4279   ZZ=            -84.9982
   XY=             -0.4036   XZ=              1.0719   YZ=             -0.4951

 Normal termination of Gaussian 16 at Wed May  5 18:14:13 2021.
