 Gaussian 16, Revision A.03,
 Gaussian 16:  EM64L-G16RevA.03 25-Dec-2016

 -------------
 #p 6-31g* mp2
 -------------

 ------------------------------------------------------
 Input file generated by CHIRIPA (05-May-2021 14:51:10)
 ------------------------------------------------------
 Symbolic Z-matrix:
 Charge =  0 Multiplicity = 1

                         Standard orientation:
 ---------------------------------------------------------------------
 Center     Atomic      Atomic             Coordinates (Angstroms)
 Number     Number       Type             X           Y           Z
 ---------------------------------------------------------------------
      1          6           0        2.797805   -0.666127   -0.079179
      2          6           0        4.093268   -0.899061    0.698962
      3          6           0        4.089654   -2.218434    1.471642
      4          1           0        1.950122   -0.681199    0.619499
      5          1           0        2.642451   -1.500452   -0.777149
      6          1           0        4.246846   -0.063853    1.394274
      7          1           0        4.937984   -0.883242   -0.001624
      8          1           0        3.961093   -3.064448    0.788756
      9          1           0        3.266028   -2.240403    2.192585
     10          1           0        5.025090   -2.364714    2.020662
     11          6           0        2.786248    0.648779   -0.856749
     12          6           0        1.490786    0.881713   -1.634890
     13          6           0        1.494400    2.201086   -2.407570
     14          1           0        2.941603    1.483104   -0.158779
     15          1           0        3.633931    0.663851   -1.555427
     16          1           0        0.646070    0.865894   -0.934304
     17          1           0        1.337208    0.046505   -2.330202
     18          1           0        2.318026    2.223055   -3.128513
     19          1           0        1.622961    3.047100   -1.724684
     20          1           0        0.558964    2.347366   -2.956590
     21          6           0       -3.019843   -0.232105   -0.220191
     22          6           0       -3.624971   -1.636192   -0.201628
     23          6           0       -4.075985   -2.103878   -1.585698
     24          1           0       -3.758654    0.473358   -0.624450
     25          1           0       -2.164428   -0.218147   -0.909730
     26          1           0       -4.478139   -1.647848    0.488723
     27          1           0       -2.884701   -2.338362    0.202813
     28          1           0       -3.230545   -2.120717   -2.281074
     29          1           0       -4.833037   -1.426280   -1.993539
     30          1           0       -4.505423   -3.109919   -1.549313
     31          6           0       -2.564210    0.249453    1.156119
     32          6           0       -1.959083    1.653540    1.137555
     33          6           0       -1.508068    2.121225    2.521626
     34          1           0       -3.419626    0.235495    1.845659
     35          1           0       -1.825399   -0.456010    1.560378
     36          1           0       -2.699353    2.355711    0.733114
     37          1           0       -1.105914    1.665196    0.447205
     38          1           0       -0.751016    1.443628    2.929468
     39          1           0       -2.353509    2.138065    3.217002
     40          1           0       -1.078631    3.127266    2.485241
 ---------------------------------------------------------------------

 SCF Done:  E(RHF) =  -470.733369558     A.U. after   11 cycles
 E2 =    -0.1583196845D+01 EUMP2 =    -0.47231656640289D+03

 The electronic state is 1-A.
 Alpha  occ. eigenvalues --  -11.21652 -11.21641 -11.21622 -11.21594 -11.21458
 Alpha  occ. eigenvalues --  -11.21415 -11.21398 -11.21350 -11.21115 -11.21107
 Alpha  occ. eigenvalues --  -11.21106 -11.21062  -1.08488  -1.08436  -1.03583
 Alpha  occ. eigenvalues --   -1.03536  -0.96020  -0.95992  -0.87037  -0.87007
 Alpha  occ. eigenvalues --   -0.79679  -0.79577  -0.78342  -0.78208  -0.65246
 Alpha  occ. eigenvalues --   -0.64960  -0.61103  -0.60824  -0.59403  -0.59342
 Alpha  occ. eigenvalues --   -0.57632  -0.57602  -0.55310  -0.55277  -0.52715
 Alpha  occ. eigenvalues --   -0.52686  -0.52445  -0.52416  -0.50000  -0.49910
 Alpha  occ. eigenvalues --   -0.48050  -0.47887  -0.46906  -0.46497  -0.46032
 Alpha  occ. eigenvalues --   -0.45788  -0.45761  -0.45351  -0.43828  -0.43794
 Alpha virt. eigenvalues --    0.20080   0.23328   0.23828   0.24419   0.25683
 Alpha virt. eigenvalues --    0.26877   0.26980   0.27894   0.28166   0.29251
 Alpha virt. eigenvalues --    0.30825   0.31606   0.31750   0.31824   0.31960

 Mulliken charges:
               1
     1  C   -0.298275
     2  C   -0.299737
     3  C   -0.475731
     4  H    0.148750
     5  H    0.149585
     6  H    0.152175
     7  H    0.152157
     8  H    0.155218
     9  H    0.155050
    10  H    0.160487
    11  C   -0.297766
    12  C   -0.309955
    13  C   -0.475401
    14  H    0.149789
    15  H    0.150028
    16  H    0.160208
    17  H    0.151996
    18  H    0.155479
    19  H    0.155337
    20  H    0.160739
    21  C   -0.300707
    22  C   -0.299602
    23  C   -0.475751
    24  H    0.149582
    25  H    0.151914
    26  H    0.151854
    27  H    0.152152
    28  H    0.155364
    29  H    0.155093
    30  H    0.160218
    31  C   -0.297657
    32  C   -0.308209
    33  C   -0.475197
    34  H    0.149739
    35  H    0.149161
    36  H    0.152439
    37  H    0.159261
    38  H    0.154463
    39  H    0.155570
    40  H    0.160180
 Sum of Mulliken charges =  -0.00000

 Dipole moment (field-independent basis, Debye):
    X=              0.0103    Y=              0.0080    Z=             -0.0126  Tot=              0.0181
 Quadrupole moment (field-independent basis, Debye-Ang):
   XX=            -83.8569   YY=            -85.4511   ZZ=            -85.3461
   XY=             -0.6229   XZ=             -0.9321   YZ=              0.5578

 Normal termination of Gaussian 16 at Wed May  5 16:42:59 2021.
