 Gaussian 16, Revision A.03,
 Gaussian 16:  EM64L-G16RevA.03 25-Dec-2016

 -------------
 #p 6-31g* mp2
 -------------

 ------------------------------------------------------
 Input file generated by CHIRIPA (05-May-2021 14:57:24)
 ------------------------------------------------------
 Symbolic Z-matrix:
 Charge =  0 Multiplicity = 1

                         Standard orientation:
 ---------------------------------------------------------------------
 Center     Atomic      Atomic             Coordinates (Angstroms)
 Number     Number       Type             X           Y           Z
 ---------------------------------------------------------------------
      1          6           0        3.784430    2.469333    0.615978
      2          6           0        4.994297    1.789745    0.440183
      3          6           0        5.005175    0.456680    0.019033
      4          6           0        3.782220   -0.168906   -0.218276
      5          6           0        2.560335    0.481245   -0.052177
      6          6           0        2.573445    1.814069    0.369671
      7          1           0        3.785297    3.504796    0.943409
      8          1           0        5.936282    2.296109    0.630720
      9          1           0        5.927284   -0.093205   -0.125046
     10          1           0        1.637320   -0.050100   -0.250000
     11          1           0        1.632324    2.339355    0.505359
     12          7           0        3.781039   -1.580034   -0.664499
     13          8           0        2.690104   -2.108739   -0.866911
     14          8           0        4.871069   -2.130653   -0.803386
     15          6           0       -1.840794   -1.032306    1.432277
     16          6           0       -1.666338    0.127405    0.669940
     17          6           0       -2.735094    0.672943   -0.047483
     18          6           0       -3.970124    0.029979    0.020259
     19          6           0       -4.175503   -1.126659    0.770790
     20          6           0       -3.092614   -1.654539    1.480185
     21          1           0       -1.005069   -1.449234    1.986470
     22          1           0       -0.695286    0.612769    0.630884
     23          1           0       -2.627886    1.569702   -0.645602
     24          1           0       -5.155374   -1.588061    0.790222
     25          1           0       -3.231019   -2.555296    2.071392
     26          7           0       -5.109050    0.598169   -0.734995
     27          8           0       -6.187084    0.012779   -0.658851
     28          8           0       -4.902140    1.618148   -1.388806
 ---------------------------------------------------------------------

 SCF Done:  E(RHF) =  -868.336938885     A.U. after   16 cycles
 E2 =    -0.2599840435D+01 EUMP2 =    -0.87093677932054D+03

 The electronic state is 1-A.
 Alpha  occ. eigenvalues --  -20.61435 -20.61418 -20.60933 -20.60923 -15.86486
 Alpha  occ. eigenvalues --  -15.85991 -11.31936 -11.31401 -11.28595 -11.28458
 Alpha  occ. eigenvalues --  -11.28229 -11.28075 -11.27968 -11.27745 -11.27615
 Alpha  occ. eigenvalues --  -11.27467 -11.27166 -11.26936  -1.60503  -1.60006
 Alpha  occ. eigenvalues --   -1.40055  -1.39558  -1.20111  -1.19598  -1.09476
 Alpha  occ. eigenvalues --   -1.08975  -1.05549  -1.05032  -0.96304  -0.95796
 Alpha  occ. eigenvalues --   -0.86926  -0.86431  -0.83154  -0.82645  -0.78207
 Alpha  occ. eigenvalues --   -0.77685  -0.72700  -0.72209  -0.71829  -0.71329
 Alpha  occ. eigenvalues --   -0.71211  -0.70678  -0.65778  -0.65555  -0.65259
 Alpha  occ. eigenvalues --   -0.65100  -0.62958  -0.62316  -0.55998  -0.55486
 Alpha  occ. eigenvalues --   -0.53842  -0.53655  -0.53313  -0.53138  -0.49466
 Alpha  occ. eigenvalues --   -0.49451  -0.48971  -0.48958  -0.45444  -0.44954
 Alpha  occ. eigenvalues --   -0.38061  -0.37548  -0.37149  -0.36631
 Alpha virt. eigenvalues --    0.04358   0.04888   0.10511   0.10934   0.15815
 Alpha virt. eigenvalues --    0.16347   0.18042   0.22107   0.24566   0.27156
 Alpha virt. eigenvalues --    0.27932   0.29116   0.29809   0.31501   0.32119

 Mulliken charges:
               1
     1  C   -0.169971
     2  C   -0.218192
     3  C   -0.169673
     4  C    0.160136
     5  C   -0.177193
     6  C   -0.219897
     7  H    0.228621
     8  H    0.226573
     9  H    0.277985
    10  H    0.272227
    11  H    0.219551
    12  N    0.488140
    13  O   -0.461613
    14  O   -0.457421
    15  C   -0.168377
    16  C   -0.221465
    17  C   -0.170273
    18  C    0.158731
    19  C   -0.169243
    20  C   -0.218216
    21  H    0.229999
    22  H    0.213885
    23  H    0.274070
    24  H    0.277178
    25  H    0.226297
    26  N    0.488244
    27  O   -0.459071
    28  O   -0.461033
 Sum of Mulliken charges =  -0.00000

 Dipole moment (field-independent basis, Debye):
    X=              4.1182    Y=              2.8661    Z=              4.2769  Tot=              6.5928
 Quadrupole moment (field-independent basis, Debye-Ang):
   XX=           -128.4330   YY=           -104.5222   ZZ=           -106.3163
   XY=             30.1076   XZ=             -5.6266   YZ=             -2.8591

 Normal termination of Gaussian 16 at Thu May  6 13:00:36 2021.
