 Gaussian 16, Revision A.03,
 Gaussian 16:  EM64L-G16RevA.03 25-Dec-2016

 -------------
 #p 6-31g* mp2
 -------------

 ------------------------------------------------------
 Input file generated by CHIRIPA (05-May-2021 14:53:14)
 ------------------------------------------------------
 Symbolic Z-matrix:
 Charge =  0 Multiplicity = 1

                         Standard orientation:
 ---------------------------------------------------------------------
 Center     Atomic      Atomic             Coordinates (Angstroms)
 Number     Number       Type             X           Y           Z
 ---------------------------------------------------------------------
      1          6           0        3.388120   -0.315651   -0.368622
      2          6           0        3.204163   -1.459541    0.629206
      3          6           0        3.588232   -2.819908    0.046380
      4          1           0        2.782945   -0.516978   -1.263147
      5          1           0        4.435818   -0.291473   -0.698984
      6          1           0        2.157434   -1.480687    0.958638
      7          1           0        3.809697   -1.255373    1.521540
      8          1           0        4.637641   -2.822955   -0.265601
      9          1           0        2.975990   -3.049549   -0.831701
     10          1           0        3.449031   -3.623255    0.776529
     11          6           0        3.008296    1.050680    0.199357
     12          6           0        3.192252    2.194570   -0.798471
     13          6           0        2.808184    3.554938   -0.215645
     14          1           0        1.960598    1.026502    0.529719
     15          1           0        3.613471    1.252008    1.093883
     16          1           0        2.586718    1.990402   -1.690805
     17          1           0        4.238982    2.215716   -1.127903
     18          1           0        3.420426    3.784578    0.662436
     19          1           0        1.758775    3.557984    0.096336
     20          1           0        2.947385    4.358284   -0.945794
     21          6           0       -1.255648   -2.474792   -0.121197
     22          6           0       -2.275410   -2.169174   -1.028503
     23          6           0       -2.970799   -0.960004   -0.934220
     24          6           0       -2.618764   -0.075625    0.084228
     25          6           0       -1.607586   -0.351378    1.003342
     26          6           0       -0.925573   -1.566520    0.890047
     27          1           0       -0.720648   -3.416424   -0.201823
     28          1           0       -2.533893   -2.872649   -1.814858
     29          1           0       -3.764531   -0.698043   -1.623266
     30          1           0       -1.372499    0.369913    1.776576
     31          1           0       -0.134059   -1.801210    1.596074
     32          7           0       -3.347861    1.207630    0.194105
     33          8           0       -3.018651    1.969857    1.100344
     34          8           0       -4.234731    1.426921   -0.628094
 ---------------------------------------------------------------------

 SCF Done:  E(RHF) =  -669.535556951     A.U. after   15 cycles
 E2 =    -0.2091988859D+01 EUMP2 =    -0.67162754581000D+03

 The electronic state is 1-A.
 Alpha  occ. eigenvalues --  -20.60821 -20.60816 -15.85875 -11.31261 -11.27836
 Alpha  occ. eigenvalues --  -11.27831 -11.27570 -11.26845 -11.26831 -11.22336
 Alpha  occ. eigenvalues --  -11.21863 -11.21854 -11.21767 -11.21692 -11.21063
 Alpha  occ. eigenvalues --   -1.59896  -1.39449  -1.19437  -1.08869  -1.08815
 Alpha  occ. eigenvalues --   -1.04843  -1.03949  -0.96380  -0.95655  -0.87400
 Alpha  occ. eigenvalues --   -0.86239  -0.82489  -0.80048  -0.78646  -0.77530
 Alpha  occ. eigenvalues --   -0.72092  -0.71221  -0.70532  -0.65551  -0.65086
 Alpha  occ. eigenvalues --   -0.64818  -0.62214  -0.61317  -0.59789  -0.57986
 Alpha  occ. eigenvalues --   -0.55659  -0.55333  -0.53179  -0.53088  -0.52959
 Alpha  occ. eigenvalues --   -0.52781  -0.50319  -0.48860  -0.48847  -0.48334
 Alpha  occ. eigenvalues --   -0.47069  -0.46182  -0.46081  -0.44850  -0.44192
 Alpha  occ. eigenvalues --   -0.37405  -0.36427
 Alpha virt. eigenvalues --    0.04983   0.11085   0.16393   0.20081   0.22916
 Alpha virt. eigenvalues --    0.23884   0.25247   0.26544   0.27240   0.28540
 Alpha virt. eigenvalues --    0.29067   0.29769   0.31213   0.31448   0.31942

 Mulliken charges:
               1
     1  C   -0.297542
     2  C   -0.303231
     3  C   -0.476632
     4  H    0.150915
     5  H    0.151414
     6  H    0.144485
     7  H    0.154302
     8  H    0.159897
     9  H    0.152806
    10  H    0.157757
    11  C   -0.298795
    12  C   -0.300102
    13  C   -0.476934
    14  H    0.147712
    15  H    0.149879
    16  H    0.153158
    17  H    0.151766
    18  H    0.154673
    19  H    0.159677
    20  H    0.161854
    21  C   -0.172197
    22  C   -0.218594
    23  C   -0.170622
    24  C    0.158453
    25  C   -0.172827
    26  C   -0.218734
    27  H    0.226897
    28  H    0.223826
    29  H    0.275928
    30  H    0.276202
    31  H    0.226990
    32  N    0.488065
    33  O   -0.460277
    34  O   -0.460169
 Sum of Mulliken charges =  -0.00000

 Dipole moment (field-independent basis, Debye):
    X=              2.5933    Y=             -4.4463    Z=             -0.4462  Tot=              5.1666
 Quadrupole moment (field-independent basis, Debye-Ang):
   XX=           -106.0636   YY=            -95.3429   ZZ=            -91.9922
   XY=             13.0553   XZ=              4.1016   YZ=              0.6158

 Normal termination of Gaussian 16 at Thu May  6 02:39:30 2021.
