 Gaussian 16, Revision A.03,
 Gaussian 16:  EM64L-G16RevA.03 25-Dec-2016

 -------------
 #p 6-31g* mp2
 -------------

 ------------------------------------------------------
 Input file generated by CHIRIPA (05-May-2021 14:57:21)
 ------------------------------------------------------
 Symbolic Z-matrix:
 Charge =  0 Multiplicity = 1

                         Standard orientation:
 ---------------------------------------------------------------------
 Center     Atomic      Atomic             Coordinates (Angstroms)
 Number     Number       Type             X           Y           Z
 ---------------------------------------------------------------------
      1          6           0       -2.642805   -1.985752    1.133780
      2          6           0       -2.443812   -1.848097   -0.243890
      3          6           0       -2.281358   -0.582322   -0.814829
      4          6           0       -2.323586    0.529320    0.025266
      5          6           0       -2.520175    0.424783    1.401389
      6          6           0       -2.680285   -0.850874    1.950582
      7          1           0       -2.768092   -2.972875    1.568852
      8          1           0       -2.414252   -2.727696   -0.880662
      9          1           0       -2.125828   -0.446978   -1.878271
     10          1           0       -2.544880    1.320191    2.010530
     11          1           0       -2.834671   -0.954762    3.020824
     12          7           0       -2.152845    1.874570   -0.567651
     13          8           0       -2.194068    2.838240    0.194108
     14          8           0       -1.981027    1.939833   -1.782910
     15          6           0        3.635692    1.170615    1.468309
     16          6           0        2.972413    0.036153    1.947453
     17          6           0        2.257944   -0.790085    1.074862
     18          6           0        2.227597   -0.450515   -0.276826
     19          6           0        2.878144    0.672962   -0.784644
     20          6           0        3.586528    1.484845    0.106192
     21          1           0        4.188344    1.806881    2.153245
     22          1           0        3.008870   -0.210331    3.004789
     23          1           0        1.735371   -1.674360    1.418943
     24          1           0        2.823639    0.892850   -1.843935
     25          1           0        4.100688    2.365251   -0.268732
     26          7           0        1.474443   -1.317617   -1.210257
     27          8           0        1.463043   -0.996657   -2.396633
     28          8           0        0.909781   -2.301795   -0.737827
 ---------------------------------------------------------------------

 SCF Done:  E(RHF) =  -868.339215536     A.U. after   16 cycles
 E2 =    -0.2601117821D+01 EUMP2 =    -0.87094033335649D+03

 The electronic state is 1-A.
 Alpha  occ. eigenvalues --  -20.61024 -20.61008 -20.60343 -20.60315 -15.86026
 Alpha  occ. eigenvalues --  -15.85374 -11.31201 -11.30577 -11.27798 -11.27707
 Alpha  occ. eigenvalues --  -11.27472 -11.27159 -11.26937 -11.26783 -11.26766
 Alpha  occ. eigenvalues --  -11.26683 -11.26204 -11.25934  -1.60082  -1.59415
 Alpha  occ. eigenvalues --   -1.39638  -1.38969  -1.19361  -1.18710  -1.08797
 Alpha  occ. eigenvalues --   -1.08144  -1.04735  -1.04057  -0.95666  -0.95007
 Alpha  occ. eigenvalues --   -0.86144  -0.85474  -0.82509  -0.81825  -0.77574
 Alpha  occ. eigenvalues --   -0.76897  -0.72283  -0.71598  -0.71402  -0.70734
 Alpha  occ. eigenvalues --   -0.70474  -0.69810  -0.65022  -0.64745  -0.64349
 Alpha  occ. eigenvalues --   -0.64049  -0.62088  -0.61394  -0.55255  -0.54590
 Alpha  occ. eigenvalues --   -0.53072  -0.52832  -0.52436  -0.52136  -0.49056
 Alpha  occ. eigenvalues --   -0.49016  -0.48360  -0.48339  -0.45084  -0.44409
 Alpha  occ. eigenvalues --   -0.37355  -0.36690  -0.36328  -0.35562
 Alpha virt. eigenvalues --    0.04898   0.05625   0.11334   0.11999   0.16456
 Alpha virt. eigenvalues --    0.17190   0.21452   0.22134   0.27367   0.28083
 Alpha virt. eigenvalues --    0.28368   0.28979   0.30996   0.31654   0.32550

 Mulliken charges:
               1
     1  C   -0.174095
     2  C   -0.200110
     3  C   -0.176638
     4  C    0.154578
     5  C   -0.174547
     6  C   -0.221014
     7  H    0.223676
     8  H    0.231714
     9  H    0.282285
    10  H    0.270935
    11  H    0.218370
    12  N    0.487569
    13  O   -0.465360
    14  O   -0.458602
    15  C   -0.169416
    16  C   -0.218885
    17  C   -0.169757
    18  C    0.156825
    19  C   -0.168195
    20  C   -0.217413
    21  H    0.226353
    22  H    0.221634
    23  H    0.272050
    24  H    0.278873
    25  H    0.225993
    26  N    0.488029
    27  O   -0.458393
    28  O   -0.466458
 Sum of Mulliken charges =  -0.00000

 Dipole moment (field-independent basis, Debye):
    X=              2.2113    Y=             -1.7965    Z=              5.1054  Tot=              5.8465
 Quadrupole moment (field-independent basis, Debye-Ang):
   XX=            -91.2749   YY=           -110.8968   ZZ=           -100.0376
   XY=             18.1073   XZ=              0.6362   YZ=             -1.6977

 Normal termination of Gaussian 16 at Thu May  6 19:30:13 2021.
