 Gaussian 16, Revision A.03,
 Gaussian 16:  EM64L-G16RevA.03 25-Dec-2016

 -------------
 #p 6-31g* mp2
 -------------

 ------------------------------------------------------
 Input file generated by CHIRIPA (05-May-2021 14:51:09)
 ------------------------------------------------------
 Symbolic Z-matrix:
 Charge =  0 Multiplicity = 1

                         Standard orientation:
 ---------------------------------------------------------------------
 Center     Atomic      Atomic             Coordinates (Angstroms)
 Number     Number       Type             X           Y           Z
 ---------------------------------------------------------------------
      1          6           0        2.640368   -0.475144   -0.187372
      2          6           0        3.150406   -1.887370   -0.476276
      3          6           0        2.018277   -2.894962   -0.678351
      4          1           0        2.003833   -0.498017    0.707751
      5          1           0        2.000113   -0.146994   -1.017906
      6          1           0        3.790625   -2.212222    0.353909
      7          1           0        3.785956   -1.861099   -1.370704
      8          1           0        1.383409   -2.597564   -1.519243
      9          1           0        1.388105   -2.950682    0.215170
     10          1           0        2.405343   -3.897915   -0.883596
     11          6           0        3.760362    0.543473    0.016981
     12          6           0        3.250324    1.955698    0.305885
     13          6           0        4.382453    2.963291    0.507960
     14          1           0        4.400617    0.215322    0.847515
     15          1           0        4.396897    0.566345   -0.878142
     16          1           0        2.614774    1.929428    1.200313
     17          1           0        2.610105    2.280551   -0.524300
     18          1           0        5.012625    3.019011   -0.385560
     19          1           0        5.017321    2.665892    1.348852
     20          1           0        3.995387    3.966244    0.713205
     21          6           0       -2.817048   -0.659849   -0.126982
     22          6           0       -2.777467   -1.741940    0.952600
     23          6           0       -2.007099   -2.987443    0.513226
     24          1           0       -3.274617   -1.074132   -1.035797
     25          1           0       -1.788474   -0.380611   -0.394293
     26          1           0       -3.805824   -2.018067    1.218785
     27          1           0       -2.320114   -1.324978    1.859014
     28          1           0       -0.971289   -2.732703    0.266641
     29          1           0       -2.465440   -3.429730   -0.377227
     30          1           0       -1.991311   -3.748076    1.300023
     31          6           0       -3.583682    0.591521    0.297372
     32          6           0       -3.623262    1.673612   -0.782210
     33          6           0       -4.393631    2.919114   -0.342835
     34          1           0       -4.612256    0.312283    0.564683
     35          1           0       -3.126112    1.005803    1.206188
     36          1           0       -4.080616    1.256649   -1.688623
     37          1           0       -2.594906    1.949737   -1.048394
     38          1           0       -3.935290    3.361402    0.547618
     39          1           0       -5.429442    2.664374   -0.096249
     40          1           0       -4.409418    3.679746   -1.129632
 ---------------------------------------------------------------------

 SCF Done:  E(RHF) =  -470.733190788     A.U. after   11 cycles
 E2 =    -0.1582660030D+01 EUMP2 =    -0.47231585081710D+03

 The electronic state is 1-A.
 Alpha  occ. eigenvalues --  -11.21647 -11.21641 -11.21576 -11.21540 -11.21462
 Alpha  occ. eigenvalues --  -11.21400 -11.21363 -11.21301 -11.21105 -11.21091
 Alpha  occ. eigenvalues --  -11.21052 -11.20937  -1.08480  -1.08384  -1.03578
 Alpha  occ. eigenvalues --   -1.03475  -0.96039  -0.95914  -0.87073  -0.86914
 Alpha  occ. eigenvalues --   -0.79676  -0.79509  -0.78304  -0.78189  -0.65114
 Alpha  occ. eigenvalues --   -0.65013  -0.61014  -0.60850  -0.59394  -0.59293
 Alpha  occ. eigenvalues --   -0.57717  -0.57480  -0.55403  -0.55141  -0.52719
 Alpha  occ. eigenvalues --   -0.52638  -0.52579  -0.52211  -0.50068  -0.49766
 Alpha  occ. eigenvalues --   -0.48083  -0.47729  -0.46715  -0.46511  -0.45901
 Alpha  occ. eigenvalues --   -0.45758  -0.45716  -0.45557  -0.43829  -0.43737
 Alpha virt. eigenvalues --    0.21669   0.23195   0.23557   0.24936   0.26196
 Alpha virt. eigenvalues --    0.26378   0.26971   0.27350   0.28231   0.29104
 Alpha virt. eigenvalues --    0.30745   0.31466   0.31779   0.31884   0.32008

 Mulliken charges:
               1
     1  C   -0.298808
     2  C   -0.299598
     3  C   -0.480331
     4  H    0.149050
     5  H    0.149446
     6  H    0.152088
     7  H    0.152167
     8  H    0.156027
     9  H    0.159641
    10  H    0.161026
    11  C   -0.298219
    12  C   -0.299700
    13  C   -0.475740
    14  H    0.149755
    15  H    0.149953
    16  H    0.151750
    17  H    0.151850
    18  H    0.155325
    19  H    0.155292
    20  H    0.160358
    21  C   -0.298765
    22  C   -0.299050
    23  C   -0.483325
    24  H    0.149408
    25  H    0.150243
    26  H    0.151543
    27  H    0.151076
    28  H    0.163885
    29  H    0.154843
    30  H    0.159209
    31  C   -0.298170
    32  C   -0.299643
    33  C   -0.475669
    34  H    0.149413
    35  H    0.149528
    36  H    0.151797
    37  H    0.151940
    38  H    0.155165
    39  H    0.155133
    40  H    0.160107
 Sum of Mulliken charges =  -0.00000

 Dipole moment (field-independent basis, Debye):
    X=              0.0537    Y=             -0.0116    Z=             -0.0151  Tot=              0.0570
 Quadrupole moment (field-independent basis, Debye-Ang):
   XX=            -84.8534   YY=            -86.2175   ZZ=            -83.6997
   XY=              0.1847   XZ=              0.3257   YZ=             -0.3194

 Normal termination of Gaussian 16 at Thu May  6 00:33:07 2021.
