 Gaussian 16, Revision A.03,
 Gaussian 16:  EM64L-G16RevA.03 25-Dec-2016

 -------------
 #p 6-31g* mp2
 -------------

 ------------------------------------------------------
 Input file generated by CHIRIPA (05-May-2021 14:55:20)
 ------------------------------------------------------
 Symbolic Z-matrix:
 Charge =  0 Multiplicity = 1

                         Standard orientation:
 ---------------------------------------------------------------------
 Center     Atomic      Atomic             Coordinates (Angstroms)
 Number     Number       Type             X           Y           Z
 ---------------------------------------------------------------------
      1          6           0        5.852370    1.624861    0.306203
      2          6           0        5.977150    0.300192    0.737716
      3          6           0        4.925316   -0.604600    0.565832
      4          6           0        3.757681   -0.148774   -0.044202
      5          6           0        3.602945    1.164704   -0.484795
      6          6           0        4.667755    2.052136   -0.302602
      7          1           0        6.674500    2.320983    0.443731
      8          1           0        6.895970   -0.034421    1.210842
      9          1           0        4.995080   -1.635692    0.890483
     10          1           0        2.674715    1.468908   -0.953053
     11          1           0        4.568036    3.080307   -0.638707
     12          7           0        2.637283   -1.097447   -0.231625
     13          8           0        1.618984   -0.671081   -0.771917
     14          8           0        2.798629   -2.249421    0.165314
     15          6           0       -5.644548    0.400409   -0.222144
     16          6           0       -6.847557    0.323139    0.718485
     17          6           0       -8.036685    1.148763    0.226435
     18          1           0       -5.342102    1.450542   -0.334804
     19          1           0       -5.945417    0.052988   -1.220228
     20          1           0       -6.544151    0.669297    1.714846
     21          1           0       -7.147054   -0.726951    0.829070
     22          1           0       -8.367127    0.799973   -0.757310
     23          1           0       -7.760798    2.204155    0.133499
     24          1           0       -8.885561    1.079262    0.913777
     25          6           0       -4.447832   -0.419812    0.256223
     26          6           0       -3.244822   -0.342542   -0.684406
     27          6           0       -2.055694   -1.168165   -0.192356
     28          1           0       -4.146962   -0.072391    1.254307
     29          1           0       -4.750277   -1.469944    0.368883
     30          1           0       -2.945325    0.707548   -0.794991
     31          1           0       -3.548228   -0.688699   -1.680767
     32          1           0       -2.331581   -2.223557   -0.099420
     33          1           0       -1.725252   -0.819376    0.791389
     34          1           0       -1.206818   -1.098664   -0.879698
 ---------------------------------------------------------------------

 SCF Done:  E(RHF) =  -669.535941975     A.U. after   15 cycles
 E2 =    -0.2090673243D+01 EUMP2 =    -0.67162661521845D+03

 The electronic state is 1-A.
 Alpha  occ. eigenvalues --  -20.60903 -20.60891 -15.85939 -11.31274 -11.27838
 Alpha  occ. eigenvalues --  -11.27835 -11.27578 -11.26849 -11.26840 -11.21099
 Alpha  occ. eigenvalues --  -11.20754 -11.20669 -11.20562 -11.20493 -11.19422
 Alpha  occ. eigenvalues --   -1.59961  -1.39517  -1.19443  -1.08844  -1.07669
 Alpha  occ. eigenvalues --   -1.04842  -1.02668  -0.95686  -0.95079  -0.86242
 Alpha  occ. eigenvalues --   -0.86086  -0.82519  -0.78762  -0.77569  -0.77454
 Alpha  occ. eigenvalues --   -0.72165  -0.71277  -0.70552  -0.65099  -0.64845
 Alpha  occ. eigenvalues --   -0.64315  -0.62189  -0.60083  -0.58500  -0.56674
 Alpha  occ. eigenvalues --   -0.55345  -0.54393  -0.53173  -0.52935  -0.51715
 Alpha  occ. eigenvalues --   -0.51512  -0.49066  -0.48909  -0.48878  -0.47048
 Alpha  occ. eigenvalues --   -0.45841  -0.44988  -0.44955  -0.44890  -0.42863
 Alpha  occ. eigenvalues --   -0.37423  -0.36444
 Alpha virt. eigenvalues --    0.04964   0.11211   0.16458   0.21341   0.23556
 Alpha virt. eigenvalues --    0.25231   0.27261   0.27349   0.28160   0.28223
 Alpha virt. eigenvalues --    0.29004   0.30907   0.32212   0.32408   0.32470

 Mulliken charges:
               1
     1  C   -0.170660
     2  C   -0.218596
     3  C   -0.170550
     4  C    0.157721
     5  C   -0.170860
     6  C   -0.218546
     7  H    0.225895
     8  H    0.223744
     9  H    0.275887
    10  H    0.275659
    11  H    0.223723
    12  N    0.491518
    13  O   -0.462592
    14  O   -0.458958
    15  C   -0.297299
    16  C   -0.298977
    17  C   -0.475212
    18  H    0.147545
    19  H    0.148509
    20  H    0.150861
    21  H    0.151599
    22  H    0.154649
    23  H    0.153988
    24  H    0.158691
    25  C   -0.297075
    26  C   -0.299994
    27  C   -0.480516
    28  H    0.147496
    29  H    0.148743
    30  H    0.147515
    31  H    0.148813
    32  H    0.150505
    33  H    0.150474
    34  H    0.186299
 Sum of Mulliken charges =  -0.00000

 Dipole moment (field-independent basis, Debye):
    X=              4.2988    Y=              3.2916    Z=              0.6189  Tot=              5.4496
 Quadrupole moment (field-independent basis, Debye-Ang):
   XX=            -66.1366   YY=            -93.0783   ZZ=            -94.4901
   XY=             10.8768   XZ=              3.8195   YZ=             -1.4680

 Normal termination of Gaussian 16 at Thu May  6 02:55:54 2021.
