 Gaussian 16, Revision A.03,
 Gaussian 16:  EM64L-G16RevA.03 25-Dec-2016

 -------------
 #p 6-31g* mp2
 -------------

 ------------------------------------------------------
 Input file generated by CHIRIPA (05-May-2021 14:57:26)
 ------------------------------------------------------
 Symbolic Z-matrix:
 Charge =  0 Multiplicity = 1

                         Standard orientation:
 ---------------------------------------------------------------------
 Center     Atomic      Atomic             Coordinates (Angstroms)
 Number     Number       Type             X           Y           Z
 ---------------------------------------------------------------------
      1          6           0       -4.175707   -0.442106   -2.113614
      2          6           0       -4.796955    0.377784   -1.165800
      3          6           0       -4.233348    0.550672    0.101877
      4          6           0       -3.042377   -0.114371    0.389272
      5          6           0       -2.399435   -0.937892   -0.533619
      6          6           0       -2.981036   -1.096174   -1.795061
      7          1           0       -4.620520   -0.570736   -3.095954
      8          1           0       -5.724816    0.886980   -1.410419
      9          1           0       -4.693140    1.179541    0.854561
     10          1           0       -1.475170   -1.432445   -0.260545
     11          1           0       -2.496349   -1.733526   -2.529163
     12          7           0       -2.436186    0.060927    1.728004
     13          8           0       -1.386371   -0.535985    1.956525
     14          8           0       -3.022347    0.791917    2.523432
     15          6           0        3.807539   -2.261067    0.208939
     16          6           0        4.791007   -1.281204    0.038123
     17          6           0        4.433973    0.054100   -0.171738
     18          6           0        3.077970    0.375704   -0.205135
     19          6           0        2.074754   -0.577719   -0.038305
     20          6           0        2.454936   -1.906823    0.170248
     21          1           0        4.093883   -3.295954    0.371455
     22          1           0        5.842231   -1.553415    0.067695
     23          1           0        5.174727    0.832832   -0.306939
     24          1           0        1.035001   -0.275823   -0.072803
     25          1           0        1.689001   -2.665686    0.302595
     26          7           0        2.687741    1.786047   -0.426613
     27          8           0        1.486213    2.043596   -0.451796
     28          8           0        3.590798    2.607222   -0.570829
 ---------------------------------------------------------------------

 SCF Done:  E(RHF) =  -868.338113093     A.U. after   16 cycles
 E2 =    -0.2599911998D+01 EUMP2 =    -0.87093802509098D+03

 The electronic state is 1-A.
 Alpha  occ. eigenvalues --  -20.60998 -20.60942 -20.60427 -20.60415 -15.86009
 Alpha  occ. eigenvalues --  -15.85477 -11.31340 -11.30816 -11.28005 -11.27832
 Alpha  occ. eigenvalues --  -11.27591 -11.27421 -11.27364 -11.27176 -11.26940
 Alpha  occ. eigenvalues --  -11.26857 -11.26437 -11.26416  -1.60018  -1.59497
 Alpha  occ. eigenvalues --   -1.39586  -1.39051  -1.19489  -1.19003  -1.08882
 Alpha  occ. eigenvalues --   -1.08409  -1.04905  -1.04407  -0.95738  -0.95243
 Alpha  occ. eigenvalues --   -0.86307  -0.85810  -0.82585  -0.82080  -0.77664
 Alpha  occ. eigenvalues --   -0.77112  -0.72242  -0.71703  -0.71312  -0.70815
 Alpha  occ. eigenvalues --   -0.70626  -0.70118  -0.65157  -0.64926  -0.64663
 Alpha  occ. eigenvalues --   -0.64422  -0.62319  -0.61716  -0.55393  -0.54931
 Alpha  occ. eigenvalues --   -0.53197  -0.53017  -0.52732  -0.52503  -0.49006
 Alpha  occ. eigenvalues --   -0.48970  -0.48458  -0.48450  -0.44991  -0.44461
 Alpha  occ. eigenvalues --   -0.37431  -0.36996  -0.36488  -0.35997
 Alpha virt. eigenvalues --    0.04878   0.05421   0.11086   0.11653   0.16423
 Alpha virt. eigenvalues --    0.16901   0.19704   0.22113   0.25119   0.27583
 Alpha virt. eigenvalues --    0.28336   0.29322   0.31037   0.31399   0.32305

 Mulliken charges:
               1
     1  C   -0.169952
     2  C   -0.217206
     3  C   -0.169047
     4  C    0.163175
     5  C   -0.170398
     6  C   -0.216671
     7  H    0.226632
     8  H    0.225008
     9  H    0.277240
    10  H    0.264436
    11  H    0.222457
    12  N    0.490926
    13  O   -0.468966
    14  O   -0.454719
    15  C   -0.170723
    16  C   -0.219181
    17  C   -0.170527
    18  C    0.158031
    19  C   -0.170045
    20  C   -0.219082
    21  H    0.224306
    22  H    0.222154
    23  H    0.274625
    24  H    0.279998
    25  H    0.221223
    26  N    0.488195
    27  O   -0.459947
    28  O   -0.461942
 Sum of Mulliken charges =  -0.00000

 Dipole moment (field-independent basis, Debye):
    X=             -1.0445    Y=             -5.4402    Z=             -3.8868  Tot=              6.7671
 Quadrupole moment (field-independent basis, Debye-Ang):
   XX=            -75.4588   YY=           -107.5681   ZZ=           -109.7721
   XY=            -14.3678   XZ=             14.6555   YZ=              2.5491

 Normal termination of Gaussian 16 at Thu May  6 19:43:57 2021.
