 Gaussian 16, Revision A.03,
 Gaussian 16:  EM64L-G16RevA.03 25-Dec-2016

 -------------
 #p 6-31g* mp2
 -------------

 ------------------------------------------------------
 Input file generated by CHIRIPA (05-May-2021 14:53:17)
 ------------------------------------------------------
 Symbolic Z-matrix:
 Charge =  0 Multiplicity = 1

                         Standard orientation:
 ---------------------------------------------------------------------
 Center     Atomic      Atomic             Coordinates (Angstroms)
 Number     Number       Type             X           Y           Z
 ---------------------------------------------------------------------
      1          6           0       -3.498768    0.793003   -0.217513
      2          6           0       -2.672282    1.794240    0.590219
      3          6           0       -3.281318    3.196686    0.594029
      4          1           0       -3.595051    1.155297   -1.250188
      5          1           0       -4.516309    0.750754    0.195063
      6          1           0       -1.656208    1.833563    0.177107
      7          1           0       -2.577794    1.429425    1.621043
      8          1           0       -4.287295    3.178645    1.025638
      9          1           0       -3.360473    3.585079   -0.426503
     10          1           0       -2.674450    3.896332    1.177181
     11          6           0       -2.902717   -0.613509   -0.230749
     12          6           0       -3.729202   -1.614746   -1.038482
     13          6           0       -3.120166   -3.017192   -1.042292
     14          1           0       -1.885175   -0.571261   -0.643325
     15          1           0       -2.806434   -0.975803    0.801926
     16          1           0       -3.823691   -1.249932   -2.069306
     17          1           0       -4.745277   -1.654069   -0.625369
     18          1           0       -3.041011   -3.405585   -0.021760
     19          1           0       -2.114189   -2.999152   -1.473900
     20          1           0       -3.727034   -3.716839   -1.625444
     21          6           0        4.148070    0.848450   -1.500588
     22          6           0        2.820681    1.289441   -1.509913
     23          6           0        1.899207    0.787374   -0.586137
     24          6           0        2.341307   -0.158918    0.337102
     25          6           0        3.657077   -0.618090    0.371715
     26          6           0        4.561303   -0.102232   -0.561459
     27          1           0        4.857193    1.243825   -2.221849
     28          1           0        2.496949    2.027672   -2.238101
     29          1           0        0.865641    1.111301   -0.571012
     30          1           0        3.950178   -1.354869    1.109731
     31          1           0        5.591547   -0.446543   -0.551875
     32          7           0        1.374914   -0.697735    1.320037
     33          8           0        1.789404   -1.530681    2.123178
     34          8           0        0.221263   -0.276911    1.268708
 ---------------------------------------------------------------------

 SCF Done:  E(RHF) =  -669.535251657     A.U. after   15 cycles
 E2 =    -0.2092833979D+01 EUMP2 =    -0.67162808563572D+03

 The electronic state is 1-A.
 Alpha  occ. eigenvalues --  -20.60902 -20.60887 -15.85920 -11.31281 -11.27851
 Alpha  occ. eigenvalues --  -11.27840 -11.27583 -11.26860 -11.26849 -11.20801
 Alpha  occ. eigenvalues --  -11.20785 -11.20595 -11.20537 -11.20342 -11.20222
 Alpha  occ. eigenvalues --   -1.59962  -1.39518  -1.19451  -1.08849  -1.07565
 Alpha  occ. eigenvalues --   -1.04852  -1.02778  -0.95691  -0.95229  -0.86259
 Alpha  occ. eigenvalues --   -0.86241  -0.82530  -0.78817  -0.77723  -0.77162
 Alpha  occ. eigenvalues --   -0.72132  -0.71274  -0.70561  -0.65106  -0.64867
 Alpha  occ. eigenvalues --   -0.64218  -0.62202  -0.60198  -0.58597  -0.56822
 Alpha  occ. eigenvalues --   -0.55354  -0.54538  -0.53181  -0.52949  -0.51965
 Alpha  occ. eigenvalues --   -0.51646  -0.49187  -0.48943  -0.48915  -0.47146
 Alpha  occ. eigenvalues --   -0.45865  -0.45148  -0.44780  -0.44529  -0.42988
 Alpha  occ. eigenvalues --   -0.37428  -0.36454
 Alpha virt. eigenvalues --    0.04935   0.11185   0.16420   0.20326   0.23156
 Alpha virt. eigenvalues --    0.24674   0.25509   0.27570   0.27885   0.28599
 Alpha virt. eigenvalues --    0.29401   0.31163   0.31579   0.32377   0.32454

 Mulliken charges:
               1
     1  C   -0.299947
     2  C   -0.297794
     3  C   -0.475946
     4  H    0.141826
     5  H    0.147085
     6  H    0.148678
     7  H    0.163406
     8  H    0.154664
     9  H    0.149552
    10  H    0.157782
    11  C   -0.295029
    12  C   -0.299971
    13  C   -0.473902
    14  H    0.150713
    15  H    0.162400
    16  H    0.145830
    17  H    0.149305
    18  H    0.159203
    19  H    0.152520
    20  H    0.155955
    21  C   -0.170231
    22  C   -0.221006
    23  C   -0.174022
    24  C    0.155643
    25  C   -0.169953
    26  C   -0.218870
    27  H    0.225979
    28  H    0.224227
    29  H    0.283286
    30  H    0.275878
    31  H    0.223797
    32  N    0.491133
    33  O   -0.459749
    34  O   -0.462444
 Sum of Mulliken charges =  -0.00000

 Dipole moment (field-independent basis, Debye):
    X=              3.6110    Y=              1.7924    Z=             -3.2307  Tot=              5.1661
 Quadrupole moment (field-independent basis, Debye-Ang):
   XX=            -76.9787   YY=            -96.0151   ZZ=            -96.3444
   XY=              2.2866   XZ=             -6.6908   YZ=             -0.6703

 Normal termination of Gaussian 16 at Thu May  6 18:58:05 2021.
