 Gaussian 16, Revision A.03,
 Gaussian 16:  EM64L-G16RevA.03 25-Dec-2016

 -------------
 #p 6-31g* mp2
 -------------

 ------------------------------------------------------
 Input file generated by CHIRIPA (05-May-2021 14:53:18)
 ------------------------------------------------------
 Symbolic Z-matrix:
 Charge =  0 Multiplicity = 1

                         Standard orientation:
 ---------------------------------------------------------------------
 Center     Atomic      Atomic             Coordinates (Angstroms)
 Number     Number       Type             X           Y           Z
 ---------------------------------------------------------------------
      1          6           0       -4.511561    0.276373   -0.118566
      2          6           0       -5.590575   -0.090611   -1.137898
      3          6           0       -6.457042    1.104081   -1.537573
      4          1           0       -4.989498    0.699894    0.775387
      5          1           0       -3.875236    1.068139   -0.537602
      6          1           0       -6.223830   -0.882420   -0.717609
      7          1           0       -5.110027   -0.513485   -2.029451
      8          1           0       -5.842679    1.894326   -1.981049
      9          1           0       -6.962810    1.523295   -0.661754
     10          1           0       -7.221746    0.819268   -2.266935
     11          6           0       -3.637197   -0.907516    0.290852
     12          6           0       -2.558184   -0.540532    1.310184
     13          6           0       -1.691717   -1.735224    1.709859
     14          1           0       -4.273523   -1.699282    0.709888
     15          1           0       -3.159261   -1.331037   -0.603101
     16          1           0       -3.038732   -0.117658    2.201737
     17          1           0       -1.924929    0.251277    0.889895
     18          1           0       -1.185948   -2.154438    0.834040
     19          1           0       -2.306080   -2.525469    2.153335
     20          1           0       -0.927013   -1.450410    2.439221
     21          6           0        4.980712   -1.059232   -1.262919
     22          6           0        3.776954   -1.681450   -0.916027
     23          6           0        2.773943   -0.967696   -0.253401
     24          6           0        3.009323    0.372778    0.048289
     25          6           0        4.197981    1.020794   -0.284063
     26          6           0        5.187020    0.287529   -0.946387
     27          1           0        5.754448   -1.621271   -1.777544
     28          1           0        3.613974   -2.727238   -1.160584
     29          1           0        1.832613   -1.424614    0.026854
     30          1           0        4.331376    2.064592   -0.026947
     31          1           0        6.120887    0.773348   -1.214561
     32          7           0        1.954877    1.138724    0.749621
     33          8           0        2.186791    2.318582    1.004157
     34          8           0        0.916451    0.544712    1.031509
 ---------------------------------------------------------------------

 SCF Done:  E(RHF) =  -669.535999612     A.U. after   15 cycles
 E2 =    -0.2091520343D+01 EUMP2 =    -0.67162751995474D+03

 The electronic state is 1-A.
 Alpha  occ. eigenvalues --  -20.60948 -20.60936 -15.85979 -11.31287 -11.27852
 Alpha  occ. eigenvalues --  -11.27841 -11.27589 -11.26857 -11.26846 -11.21040
 Alpha  occ. eigenvalues --  -11.20640 -11.20587 -11.20511 -11.20288 -11.20037
 Alpha  occ. eigenvalues --   -1.60010  -1.39566  -1.19457  -1.08865  -1.07601
 Alpha  occ. eigenvalues --   -1.04850  -1.02670  -0.95715  -0.95163  -0.86252
 Alpha  occ. eigenvalues --   -0.86202  -0.82542  -0.78762  -0.77600  -0.77370
 Alpha  occ. eigenvalues --   -0.72217  -0.71324  -0.70565  -0.65119  -0.64853
 Alpha  occ. eigenvalues --   -0.64229  -0.62197  -0.60058  -0.58534  -0.56729
 Alpha  occ. eigenvalues --   -0.55357  -0.54483  -0.53185  -0.52942  -0.51855
 Alpha  occ. eigenvalues --   -0.51600  -0.49214  -0.48952  -0.48912  -0.47080
 Alpha  occ. eigenvalues --   -0.45804  -0.45067  -0.44943  -0.44681  -0.42933
 Alpha  occ. eigenvalues --   -0.37437  -0.36452
 Alpha virt. eigenvalues --    0.04911   0.11203   0.16395   0.20938   0.23511
 Alpha virt. eigenvalues --    0.24439   0.26730   0.27488   0.27845   0.28380
 Alpha virt. eigenvalues --    0.29257   0.30914   0.31607   0.32604   0.32829

 Mulliken charges:
               1
     1  C   -0.297901
     2  C   -0.298767
     3  C   -0.475253
     4  H    0.149319
     5  H    0.151536
     6  H    0.150237
     7  H    0.149715
     8  H    0.155202
     9  H    0.154979
    10  H    0.157854
    11  C   -0.297600
    12  C   -0.304680
    13  C   -0.471123
    14  H    0.144995
    15  H    0.144702
    16  H    0.148712
    17  H    0.175275
    18  H    0.143209
    19  H    0.146429
    20  H    0.169494
    21  C   -0.170447
    22  C   -0.219048
    23  C   -0.172198
    24  C    0.156932
    25  C   -0.170463
    26  C   -0.218723
    27  H    0.225988
    28  H    0.224088
    29  H    0.278424
    30  H    0.275763
    31  H    0.223761
    32  N    0.494161
    33  O   -0.459033
    34  O   -0.465536
 Sum of Mulliken charges =  -0.00000

 Dipole moment (field-independent basis, Debye):
    X=              3.9988    Y=             -2.5219    Z=             -2.4175  Tot=              5.3099
 Quadrupole moment (field-independent basis, Debye-Ang):
   XX=            -72.1565   YY=            -94.6264   ZZ=            -95.4744
   XY=             -3.9112   XZ=             -8.4484   YZ=             -0.7177

 Normal termination of Gaussian 16 at Thu May  6 20:33:55 2021.
