 Gaussian 16, Revision A.03,
 Gaussian 16:  EM64L-G16RevA.03 25-Dec-2016

 -------------
 #p 6-31g* mp2
 -------------

 ------------------------------------------------------
 Input file generated by CHIRIPA (05-May-2021 14:51:13)
 ------------------------------------------------------
 Symbolic Z-matrix:
 Charge =  0 Multiplicity = 1

                         Standard orientation:
 ---------------------------------------------------------------------
 Center     Atomic      Atomic             Coordinates (Angstroms)
 Number     Number       Type             X           Y           Z
 ---------------------------------------------------------------------
      1          6           0        2.803552   -0.405006    0.413074
      2          6           0        2.830775   -1.913252    0.662951
      3          6           0        1.480047   -2.460280    1.125646
      4          1           0        2.495039    0.107397    1.334599
      5          1           0        2.037478   -0.179179   -0.341598
      6          1           0        3.597523   -2.136316    1.415916
      7          1           0        3.139444   -2.422111   -0.259222
      8          1           0        0.708048   -2.266677    0.373890
      9          1           0        1.168730   -1.979258    2.058545
     10          1           0        1.522131   -3.540211    1.298385
     11          6           0        4.146600    0.156680   -0.050023
     12          6           0        4.119377    1.664926   -0.299900
     13          6           0        5.470105    2.211954   -0.762595
     14          1           0        4.912673   -0.069147    0.704649
     15          1           0        4.455112   -0.355723   -0.971548
     16          1           0        3.810708    2.173785    0.622272
     17          1           0        3.352629    1.887990   -1.052865
     18          1           0        5.781422    1.730932   -1.695495
     19          1           0        6.242104    2.018351   -0.010840
     20          1           0        5.428021    3.291885   -0.935334
     21          6           0       -3.994396    0.608706    0.099468
     22          6           0       -3.519363    2.061949    0.119731
     23          6           0       -4.569281    3.019255    0.684561
     24          1           0       -4.914762    0.538736   -0.496329
     25          1           0       -4.259298    0.302566    1.120987
     26          1           0       -3.254123    2.364823   -0.901313
     27          1           0       -2.599914    2.128435    0.715391
     28          1           0       -4.827651    2.744727    1.712413
     29          1           0       -5.485576    2.982458    0.086523
     30          1           0       -4.208855    4.052661    0.689813
     31          6           0       -2.955756   -0.360379   -0.462519
     32          6           0       -3.430788   -1.813623   -0.482783
     33          6           0       -2.380871   -2.770930   -1.047612
     34          1           0       -2.690854   -0.054240   -1.484038
     35          1           0       -2.035389   -0.290410    0.133278
     36          1           0       -4.350237   -1.880109   -1.078442
     37          1           0       -3.696028   -2.116498    0.538262
     38          1           0       -1.464575   -2.734132   -0.449574
     39          1           0       -2.122501   -2.496400   -2.075464
     40          1           0       -2.741296   -3.804335   -1.052863
 ---------------------------------------------------------------------

 SCF Done:  E(RHF) =  -470.733354350     A.U. after   11 cycles
 E2 =    -0.1582468429D+01 EUMP2 =    -0.47231582277893D+03

 The electronic state is 1-A.
 Alpha  occ. eigenvalues --  -11.21619 -11.21603 -11.21585 -11.21575 -11.21413
 Alpha  occ. eigenvalues --  -11.21387 -11.21353 -11.21327 -11.21101 -11.21072
 Alpha  occ. eigenvalues --  -11.21059 -11.21027  -1.08441  -1.08410  -1.03549
 Alpha  occ. eigenvalues --   -1.03504  -0.96011  -0.95946  -0.87041  -0.86952
 Alpha  occ. eigenvalues --   -0.79642  -0.79539  -0.78263  -0.78212  -0.65091
 Alpha  occ. eigenvalues --   -0.65022  -0.61028  -0.60836  -0.59365  -0.59323
 Alpha  occ. eigenvalues --   -0.57657  -0.57531  -0.55432  -0.55120  -0.52696
 Alpha  occ. eigenvalues --   -0.52650  -0.52515  -0.52299  -0.50103  -0.49744
 Alpha  occ. eigenvalues --   -0.48029  -0.47795  -0.46741  -0.46482  -0.45861
 Alpha  occ. eigenvalues --   -0.45753  -0.45715  -0.45577  -0.43796  -0.43764
 Alpha virt. eigenvalues --    0.21633   0.23071   0.23529   0.24744   0.25854
 Alpha virt. eigenvalues --    0.26817   0.27117   0.27482   0.27951   0.28915
 Alpha virt. eigenvalues --    0.30385   0.31689   0.31765   0.31893   0.32036

 Mulliken charges:
               1
     1  C   -0.298732
     2  C   -0.299161
     3  C   -0.483131
     4  H    0.149348
     5  H    0.150167
     6  H    0.152011
     7  H    0.152345
     8  H    0.161608
     9  H    0.154865
    10  H    0.160831
    11  C   -0.298317
    12  C   -0.299698
    13  C   -0.475720
    14  H    0.149516
    15  H    0.149774
    16  H    0.151869
    17  H    0.152133
    18  H    0.155210
    19  H    0.155159
    20  H    0.160276
    21  C   -0.298260
    22  C   -0.299696
    23  C   -0.475701
    24  H    0.149618
    25  H    0.149610
    26  H    0.151774
    27  H    0.152196
    28  H    0.155171
    29  H    0.155125
    30  H    0.160203
    31  C   -0.299209
    32  C   -0.298987
    33  C   -0.483662
    34  H    0.149051
    35  H    0.150480
    36  H    0.151770
    37  H    0.152120
    38  H    0.163154
    39  H    0.154434
    40  H    0.160458
 Sum of Mulliken charges =  -0.00000

 Dipole moment (field-independent basis, Debye):
    X=              0.0168    Y=             -0.0055    Z=              0.0055  Tot=              0.0185
 Quadrupole moment (field-independent basis, Debye-Ang):
   XX=            -85.8661   YY=            -85.7094   ZZ=            -83.2158
   XY=              0.0128   XZ=              1.1395   YZ=             -0.1094

 Normal termination of Gaussian 16 at Wed May  5 15:19:02 2021.
