 Gaussian 16, Revision A.03,
 Gaussian 16:  EM64L-G16RevA.03 25-Dec-2016

 -------------
 #p 6-31g* mp2
 -------------

 ------------------------------------------------------
 Input file generated by CHIRIPA (05-May-2021 14:55:23)
 ------------------------------------------------------
 Symbolic Z-matrix:
 Charge =  0 Multiplicity = 1

                         Standard orientation:
 ---------------------------------------------------------------------
 Center     Atomic      Atomic             Coordinates (Angstroms)
 Number     Number       Type             X           Y           Z
 ---------------------------------------------------------------------
      1          6           0       -4.684928    2.268540    0.322501
      2          6           0       -3.688248    1.836126    1.203506
      3          6           0       -3.046770    0.610161    1.003347
      4          6           0       -3.428592   -0.161535   -0.093005
      5          6           0       -4.417923    0.241847   -0.988436
      6          6           0       -5.045948    1.471426   -0.768734
      7          1           0       -5.178018    3.222303    0.485580
      8          1           0       -3.405829    2.453095    2.051818
      9          1           0       -2.271922    0.251185    1.669805
     10          1           0       -4.677887   -0.395096   -1.825180
     11          1           0       -5.819641    1.804706   -1.454567
     12          7           0       -2.756610   -1.461322   -0.315248
     13          8           0       -3.111203   -2.122684   -1.288645
     14          8           0       -1.888040   -1.794122    0.488162
     15          6           0        4.198883   -0.651801    0.435582
     16          6           0        2.682701   -0.703214    0.244440
     17          6           0        2.033944   -1.877741    0.977513
     18          1           0        4.638775   -1.594465    0.082277
     19          1           0        4.424063   -0.584749    1.508984
     20          1           0        2.460412   -0.768755   -0.828363
     21          1           0        2.246387    0.239758    0.598065
     22          1           0        2.226501   -1.814107    2.053372
     23          1           0        2.441742   -2.828350    0.618839
     24          1           0        0.949972   -1.895362    0.827328
     25          6           0        4.861836    0.516926   -0.291259
     26          6           0        6.378018    0.568340   -0.100118
     27          6           0        7.026774    1.742866   -0.833190
     28          1           0        4.636656    0.449875   -1.364662
     29          1           0        4.421943    1.459590    0.062046
     30          1           0        6.814331   -0.374633   -0.453742
     31          1           0        6.600307    0.633880    0.972686
     32          1           0        6.618977    2.693475   -0.474515
     33          1           0        6.834217    1.679233   -1.909049
     34          1           0        8.110746    1.760487   -0.683005
 ---------------------------------------------------------------------

 SCF Done:  E(RHF) =  -669.536220118     A.U. after   15 cycles
 E2 =    -0.2090694446D+01 EUMP2 =    -0.67162691456398D+03

 The electronic state is 1-A.
 Alpha  occ. eigenvalues --  -20.60948 -20.60935 -15.85980 -11.31287 -11.27850
 Alpha  occ. eigenvalues --  -11.27846 -11.27588 -11.26856 -11.26846 -11.21287
 Alpha  occ. eigenvalues --  -11.20982 -11.20871 -11.20834 -11.20798 -11.19879
 Alpha  occ. eigenvalues --   -1.60004  -1.39561  -1.19455  -1.08862  -1.07921
 Alpha  occ. eigenvalues --   -1.04850  -1.02944  -0.95708  -0.95367  -0.86382
 Alpha  occ. eigenvalues --   -0.86251  -0.82541  -0.79032  -0.77727  -0.77594
 Alpha  occ. eigenvalues --   -0.72206  -0.71316  -0.70565  -0.65113  -0.64854
 Alpha  occ. eigenvalues --   -0.64564  -0.62198  -0.60357  -0.58754  -0.56958
 Alpha  occ. eigenvalues --   -0.55356  -0.54678  -0.53183  -0.52943  -0.52001
 Alpha  occ. eigenvalues --   -0.51792  -0.49341  -0.48961  -0.48948  -0.47330
 Alpha  occ. eigenvalues --   -0.46099  -0.45265  -0.45196  -0.44966  -0.43154
 Alpha  occ. eigenvalues --   -0.37434  -0.36451
 Alpha virt. eigenvalues --    0.04906   0.11204   0.16380   0.21297   0.23327
 Alpha virt. eigenvalues --    0.24920   0.27096   0.27240   0.27867   0.28076
 Alpha virt. eigenvalues --    0.28841   0.30813   0.31938   0.32103   0.32278

 Mulliken charges:
               1
     1  C   -0.170563
     2  C   -0.218542
     3  C   -0.170578
     4  C    0.157856
     5  C   -0.170674
     6  C   -0.218577
     7  H    0.225986
     8  H    0.223841
     9  H    0.275923
    10  H    0.275834
    11  H    0.223797
    12  N    0.492051
    13  O   -0.458593
    14  O   -0.463842
    15  C   -0.297333
    16  C   -0.298317
    17  C   -0.487737
    18  H    0.149774
    19  H    0.147447
    20  H    0.152195
    21  H    0.145419
    22  H    0.148043
    23  H    0.153401
    24  H    0.187672
    25  C   -0.297497
    26  C   -0.299182
    27  C   -0.475331
    28  H    0.149235
    29  H    0.147060
    30  H    0.152148
    31  H    0.151023
    32  H    0.153822
    33  H    0.154946
    34  H    0.159294
 Sum of Mulliken charges =  -0.00000

 Dipole moment (field-independent basis, Debye):
    X=             -2.6490    Y=              4.5200    Z=              0.7451  Tot=              5.2917
 Quadrupole moment (field-independent basis, Debye-Ang):
   XX=            -78.5603   YY=            -97.0024   ZZ=            -91.5005
   XY=            -15.8307   XZ=              0.2869   YZ=              1.1710

 Normal termination of Gaussian 16 at Thu May  6 09:29:09 2021.
