 Gaussian 16, Revision A.03,
 Gaussian 16:  EM64L-G16RevA.03 25-Dec-2016

 -------------
 #p 6-31g* mp2
 -------------

 ------------------------------------------------------
 Input file generated by CHIRIPA (05-May-2021 14:57:26)
 ------------------------------------------------------
 Symbolic Z-matrix:
 Charge =  0 Multiplicity = 1

                         Standard orientation:
 ---------------------------------------------------------------------
 Center     Atomic      Atomic             Coordinates (Angstroms)
 Number     Number       Type             X           Y           Z
 ---------------------------------------------------------------------
      1          6           0       -1.993537    1.269480    0.332833
      2          6           0       -3.155556    2.045490    0.396416
      3          6           0       -4.409655    1.464620    0.185768
      4          6           0       -4.465194    0.098761   -0.087424
      5          6           0       -3.325549   -0.700990   -0.157399
      6          6           0       -2.082086   -0.098871    0.056615
      7          1           0       -1.023454    1.728967    0.497776
      8          1           0       -3.089810    3.108404    0.610744
      9          1           0       -5.325223    2.041916    0.229146
     10          1           0       -3.422940   -1.758082   -0.373011
     11          1           0       -1.181322   -0.703990    0.006623
     12          7           0       -5.787223   -0.527428   -0.312210
     13          8           0       -5.809261   -1.732839   -0.551239
     14          8           0       -6.776358    0.199033   -0.245110
     15          6           0        6.232734    1.196271   -0.634418
     16          6           0        5.042633    1.816303   -0.239779
     17          6           0        3.936203    1.051550    0.141684
     18          6           0        4.055364   -0.337140    0.116580
     19          6           0        5.227406   -0.984340   -0.271673
     20          6           0        6.321166   -0.199610   -0.649080
     21          1           0        7.087314    1.798109   -0.929172
     22          1           0        4.971083    2.900173   -0.227422
     23          1           0        3.002791    1.505575    0.451555
     24          1           0        5.268468   -2.066804   -0.273762
     25          1           0        7.244150   -0.683859   -0.955105
     26          7           0        2.890744   -1.157325    0.518271
     27          8           0        3.021275   -2.379067    0.487520
     28          8           0        1.869434   -0.562913    0.856262
 ---------------------------------------------------------------------

 SCF Done:  E(RHF) =  -868.339996560     A.U. after   16 cycles
 E2 =    -0.2598439320D+01 EUMP2 =    -0.87093843587962D+03

 The electronic state is 1-A.
 Alpha  occ. eigenvalues --  -20.61890 -20.61830 -20.60117 -20.60105 -15.86889
 Alpha  occ. eigenvalues --  -15.85158 -11.32012 -11.30379 -11.28592 -11.28515
 Alpha  occ. eigenvalues --  -11.28224 -11.27517 -11.27474 -11.26963 -11.26829
 Alpha  occ. eigenvalues --  -11.26575 -11.25981 -11.25668  -1.60916  -1.59192
 Alpha  occ. eigenvalues --   -1.40480  -1.38749  -1.20155  -1.18512  -1.09589
 Alpha  occ. eigenvalues --   -1.07927  -1.05524  -1.03875  -0.96469  -0.94796
 Alpha  occ. eigenvalues --   -0.86932  -0.85268  -0.83315  -0.81624  -0.78395
 Alpha  occ. eigenvalues --   -0.76696  -0.73123  -0.72215  -0.71380  -0.71259
 Alpha  occ. eigenvalues --   -0.70513  -0.69613  -0.65813  -0.65521  -0.64150
 Alpha  occ. eigenvalues --   -0.63826  -0.62881  -0.61204  -0.56020  -0.54369
 Alpha  occ. eigenvalues --   -0.53859  -0.53613  -0.52239  -0.51933  -0.49886
 Alpha  occ. eigenvalues --   -0.49835  -0.48145  -0.48121  -0.45933  -0.44188
 Alpha  occ. eigenvalues --   -0.38109  -0.37114  -0.36489  -0.35482
 Alpha virt. eigenvalues --    0.04114   0.05801   0.10545   0.12173   0.15649
 Alpha virt. eigenvalues --    0.17348   0.20533   0.22316   0.26374   0.27191
 Alpha virt. eigenvalues --    0.28444   0.28958   0.30560   0.31447   0.32917

 Mulliken charges:
               1
     1  C   -0.171963
     2  C   -0.218916
     3  C   -0.173066
     4  C    0.158361
     5  C   -0.173041
     6  C   -0.224144
     7  H    0.225101
     8  H    0.218517
     9  H    0.272258
    10  H    0.275315
    11  H    0.245114
    12  N    0.488079
    13  O   -0.461177
    14  O   -0.463345
    15  C   -0.169750
    16  C   -0.218056
    17  C   -0.170008
    18  C    0.158436
    19  C   -0.170043
    20  C   -0.218269
    21  H    0.228387
    22  H    0.224706
    23  H    0.270014
    24  H    0.277439
    25  H    0.226338
    26  N    0.490486
    27  O   -0.454356
    28  O   -0.472414
 Sum of Mulliken charges =  -0.00000

 Dipole moment (field-independent basis, Debye):
    X=              9.3801    Y=              4.9356    Z=             -0.6572  Tot=             10.6198
 Quadrupole moment (field-independent basis, Debye-Ang):
   XX=           -111.4264   YY=            -99.2150   ZZ=           -106.7994
   XY=             -3.4523   XZ=            -10.4670   YZ=              2.1668

 Normal termination of Gaussian 16 at Fri May  7 05:03:12 2021.
