 Gaussian 16, Revision A.03,
 Gaussian 16:  EM64L-G16RevA.03 25-Dec-2016

 -------------
 #p 6-31g* mp2
 -------------

 ------------------------------------------------------
 Input file generated by CHIRIPA (05-May-2021 14:55:20)
 ------------------------------------------------------
 Symbolic Z-matrix:
 Charge =  0 Multiplicity = 1

                         Standard orientation:
 ---------------------------------------------------------------------
 Center     Atomic      Atomic             Coordinates (Angstroms)
 Number     Number       Type             X           Y           Z
 ---------------------------------------------------------------------
      1          6           0        1.097111    2.441066    0.263252
      2          6           0        2.179668    2.185665    1.111404
      3          6           0        3.023039    1.095434    0.877587
      4          6           0        2.753345    0.277495   -0.218557
      5          6           0        1.682768    0.505765   -1.081719
      6          6           0        0.852547    1.601781   -0.828677
      7          1           0        0.447068    3.290231    0.452353
      8          1           0        2.372007    2.835776    1.960171
      9          1           0        3.868179    0.874598    1.518202
     10          1           0        1.516403   -0.160096   -1.919794
     11          1           0        0.012559    1.797706   -1.489040
     12          7           0        3.639223   -0.879745   -0.476264
     13          8           0        3.380205   -1.585325   -1.448738
     14          8           0        4.575819   -1.059299    0.299098
     15          6           0       -4.063470   -0.415573    0.375340
     16          6           0       -4.756782    0.307934   -0.779580
     17          6           0       -6.208732    0.668944   -0.464450
     18          1           0       -4.625254   -1.327945    0.618079
     19          1           0       -4.098104    0.220356    1.270766
     20          1           0       -4.719633   -0.328590   -1.672928
     21          1           0       -4.193175    1.218590   -1.019725
     22          1           0       -6.261497    1.323932    0.411226
     23          1           0       -6.790946   -0.232040   -0.245689
     24          1           0       -6.685224    1.185352   -1.303580
     25          6           0       -2.611324   -0.783076    0.075434
     26          6           0       -1.918011   -1.506585    1.230353
     27          6           0       -0.466061   -1.867593    0.915224
     28          1           0       -2.576689   -1.419006   -0.819993
     29          1           0       -2.049540    0.129295   -0.167305
     30          1           0       -2.481619   -2.417239    1.470498
     31          1           0       -1.955162   -0.870060    2.123702
     32          1           0        0.116152   -0.966610    0.696463
     33          1           0       -0.413296   -2.522581    0.039548
     34          1           0        0.010430   -2.384001    1.754354
 ---------------------------------------------------------------------

 SCF Done:  E(RHF) =  -669.534606551     A.U. after   15 cycles
 E2 =    -0.2093604931D+01 EUMP2 =    -0.67162821148191D+03

 The electronic state is 1-A.
 Alpha  occ. eigenvalues --  -20.60779 -20.60772 -15.85834 -11.31228 -11.27840
 Alpha  occ. eigenvalues --  -11.27804 -11.27604 -11.26853 -11.26836 -11.22046
 Alpha  occ. eigenvalues --  -11.21774 -11.21737 -11.21689 -11.21448 -11.20914
 Alpha  occ. eigenvalues --   -1.59851  -1.39404  -1.19451  -1.08823  -1.08745
 Alpha  occ. eigenvalues --   -1.04857  -1.03771  -0.96214  -0.95646  -0.87233
 Alpha  occ. eigenvalues --   -0.86235  -0.82475  -0.79857  -0.78581  -0.77509
 Alpha  occ. eigenvalues --   -0.72054  -0.71176  -0.70541  -0.65397  -0.65087
 Alpha  occ. eigenvalues --   -0.64833  -0.62187  -0.61194  -0.59595  -0.57853
 Alpha  occ. eigenvalues --   -0.55579  -0.55345  -0.53385  -0.52938  -0.52878
 Alpha  occ. eigenvalues --   -0.52464  -0.50108  -0.48815  -0.48804  -0.48138
 Alpha  occ. eigenvalues --   -0.46876  -0.46098  -0.46030  -0.44796  -0.44046
 Alpha  occ. eigenvalues --   -0.37417  -0.36372
 Alpha virt. eigenvalues --    0.05015   0.11086   0.16443   0.20859   0.22701
 Alpha virt. eigenvalues --    0.24146   0.25559   0.26660   0.27599   0.28311
 Alpha virt. eigenvalues --    0.28445   0.30867   0.31184   0.31616   0.31862

 Mulliken charges:
               1
     1  C   -0.171918
     2  C   -0.218157
     3  C   -0.170957
     4  C    0.162857
     5  C   -0.176320
     6  C   -0.215996
     7  H    0.226082
     8  H    0.223882
     9  H    0.276170
    10  H    0.276641
    11  H    0.224959
    12  N    0.488593
    13  O   -0.460056
    14  O   -0.460598
    15  C   -0.298080
    16  C   -0.298822
    17  C   -0.475698
    18  H    0.152110
    19  H    0.148563
    20  H    0.153047
    21  H    0.146051
    22  H    0.154813
    23  H    0.157097
    24  H    0.160507
    25  C   -0.299636
    26  C   -0.298214
    27  C   -0.485426
    28  H    0.150036
    29  H    0.142826
    30  H    0.153052
    31  H    0.149882
    32  H    0.163484
    33  H    0.157224
    34  H    0.162001
 Sum of Mulliken charges =  -0.00000

 Dipole moment (field-independent basis, Debye):
    X=             -3.0473    Y=              4.0505    Z=              0.9112  Tot=              5.1500
 Quadrupole moment (field-independent basis, Debye-Ang):
   XX=           -111.9106   YY=            -92.0729   ZZ=            -92.1133
   XY=             11.9389   XZ=              5.9480   YZ=              0.8849

 Normal termination of Gaussian 16 at Thu May  6 06:10:03 2021.
