 Gaussian 16, Revision A.03,
 Gaussian 16:  EM64L-G16RevA.03 25-Dec-2016

 -------------
 #p 6-31g* mp2
 -------------

 ------------------------------------------------------
 Input file generated by CHIRIPA (05-May-2021 14:57:24)
 ------------------------------------------------------
 Symbolic Z-matrix:
 Charge =  0 Multiplicity = 1

                         Standard orientation:
 ---------------------------------------------------------------------
 Center     Atomic      Atomic             Coordinates (Angstroms)
 Number     Number       Type             X           Y           Z
 ---------------------------------------------------------------------
      1          6           0        1.285536    2.074841   -0.757164
      2          6           0        2.621043    2.230612   -1.142751
      3          6           0        3.588414    1.304220   -0.742078
      4          6           0        3.183435    0.229060    0.047424
      5          6           0        1.860715    0.046439    0.447863
      6          6           0        0.910296    0.985173    0.035515
      7          1           0        0.540643    2.799278   -1.072951
      8          1           0        2.915338    3.075891   -1.758331
      9          1           0        4.629271    1.400616   -1.026231
     10          1           0        1.597675   -0.806413    1.061760
     11          1           0       -0.126148    0.861663    0.336471
     12          7           0        4.198575   -0.758202    0.477779
     13          8           0        3.816184   -1.696777    1.173115
     14          8           0        5.357410   -0.574750    0.111606
     15          6           0       -4.217139    1.574980    1.050820
     16          6           0       -4.539630    1.156561   -0.244344
     17          6           0       -3.880664    0.068073   -0.823573
     18          6           0       -2.900018   -0.581911   -0.075813
     19          6           0       -2.556274   -0.188917    1.216736
     20          6           0       -3.228234    0.902092    1.775947
     21          1           0       -4.734086    2.421524    1.493004
     22          1           0       -5.307198    1.677244   -0.809826
     23          1           0       -4.110527   -0.276931   -1.824350
     24          1           0       -1.786617   -0.727872    1.755784
     25          1           0       -2.975709    1.224833    2.781986
     26          7           0       -2.195524   -1.735579   -0.678422
     27          8           0       -1.335379   -2.291405    0.001169
     28          8           0       -2.516825   -2.062153   -1.818928
 ---------------------------------------------------------------------

 SCF Done:  E(RHF) =  -868.337060817     A.U. after   16 cycles
 E2 =    -0.2601915833D+01 EUMP2 =    -0.87093897665015D+03

 The electronic state is 1-A.
 Alpha  occ. eigenvalues --  -20.61599 -20.61584 -20.60325 -20.60305 -15.86641
 Alpha  occ. eigenvalues --  -15.85372 -11.32192 -11.30758 -11.28759 -11.28689
 Alpha  occ. eigenvalues --  -11.28434 -11.27788 -11.27730 -11.27384 -11.27294
 Alpha  occ. eigenvalues --  -11.27162 -11.26415 -11.26311  -1.60656  -1.59392
 Alpha  occ. eigenvalues --   -1.40207  -1.38944  -1.20367  -1.18954  -1.09698
 Alpha  occ. eigenvalues --   -1.08359  -1.05777  -1.04362  -0.96509  -0.95181
 Alpha  occ. eigenvalues --   -0.87153  -0.85771  -0.83324  -0.82020  -0.78373
 Alpha  occ. eigenvalues --   -0.77047  -0.72840  -0.71995  -0.71594  -0.71412
 Alpha  occ. eigenvalues --   -0.70713  -0.70087  -0.65980  -0.65730  -0.64613
 Alpha  occ. eigenvalues --   -0.64421  -0.63097  -0.61710  -0.56202  -0.54941
 Alpha  occ. eigenvalues --   -0.54147  -0.53818  -0.52694  -0.52384  -0.49615
 Alpha  occ. eigenvalues --   -0.49598  -0.48359  -0.48340  -0.45562  -0.44344
 Alpha  occ. eigenvalues --   -0.38319  -0.37377  -0.36964  -0.35953
 Alpha virt. eigenvalues --    0.04112   0.05493   0.10147   0.11683   0.15620
 Alpha virt. eigenvalues --    0.16958   0.20293   0.21894   0.25750   0.26970
 Alpha virt. eigenvalues --    0.28204   0.28669   0.30488   0.31342   0.31678

 Mulliken charges:
               1
     1  C   -0.173465
     2  C   -0.218785
     3  C   -0.170899
     4  C    0.158120
     5  C   -0.169314
     6  C   -0.225975
     7  H    0.222441
     8  H    0.221231
     9  H    0.274616
    10  H    0.281431
    11  H    0.226204
    12  N    0.488181
    13  O   -0.457993
    14  O   -0.462564
    15  C   -0.172072
    16  C   -0.217993
    17  C   -0.171543
    18  C    0.162507
    19  C   -0.190628
    20  C   -0.217405
    21  H    0.229132
    22  H    0.227017
    23  H    0.278875
    24  H    0.276982
    25  H    0.228003
    26  N    0.489292
    27  O   -0.460414
    28  O   -0.454979
 Sum of Mulliken charges =  -0.00000

 Dipole moment (field-independent basis, Debye):
    X=             -6.3778    Y=              7.3869    Z=              0.5784  Tot=              9.7764
 Quadrupole moment (field-independent basis, Debye-Ang):
   XX=           -109.1550   YY=           -107.7559   ZZ=           -101.2464
   XY=              1.1766   XZ=            -10.3081   YZ=             -3.5339

 Normal termination of Gaussian 16 at Thu May  6 16:18:44 2021.
