 Gaussian 16, Revision A.03,
 Gaussian 16:  EM64L-G16RevA.03 25-Dec-2016

 -------------
 #p 6-31g* mp2
 -------------

 ------------------------------------------------------
 Input file generated by CHIRIPA (05-May-2021 14:55:24)
 ------------------------------------------------------
 Symbolic Z-matrix:
 Charge =  0 Multiplicity = 1

                         Standard orientation:
 ---------------------------------------------------------------------
 Center     Atomic      Atomic             Coordinates (Angstroms)
 Number     Number       Type             X           Y           Z
 ---------------------------------------------------------------------
      1          6           0       -0.978265    0.765559    1.421890
      2          6           0       -1.868653    1.623563    0.768009
      3          6           0       -2.988289    1.113301    0.104235
      4          6           0       -3.187812   -0.266328    0.114448
      5          6           0       -2.318894   -1.146982    0.756883
      6          6           0       -1.205827   -0.614542    1.414253
      7          1           0       -0.111056    1.170557    1.935038
      8          1           0       -1.694442    2.695793    0.772291
      9          1           0       -3.693655    1.754771   -0.409957
     10          1           0       -2.519067   -2.211351    0.735246
     11          1           0       -0.516023   -1.283265    1.921229
     12          7           0       -4.369643   -0.818259   -0.584870
     13          8           0       -4.523041   -2.037500   -0.561208
     14          8           0       -5.120187   -0.021172   -1.143415
     15          6           0        3.588987    0.948811   -0.306061
     16          6           0        2.079230    1.080251   -0.509392
     17          6           0        1.610144    2.535338   -0.531212
     18          1           0        3.869902    1.440274    0.635477
     19          1           0        4.108546    1.490531   -1.108554
     20          1           0        1.562679    0.537285    0.292467
     21          1           0        1.801849    0.588252   -1.450462
     22          1           0        2.098956    3.085565   -1.341715
     23          1           0        1.858425    3.034310    0.411116
     24          1           0        0.527829    2.606082   -0.677663
     25          6           0        4.073174   -0.499882   -0.281982
     26          6           0        5.582930   -0.631321   -0.078651
     27          6           0        6.052016   -2.086407   -0.056830
     28          1           0        3.553614   -1.041600    0.520511
     29          1           0        3.792258   -0.991344   -1.223521
     30          1           0        5.860312   -0.139321    0.862419
     31          1           0        6.099483   -0.088355   -0.880510
     32          1           0        5.803735   -2.585379   -0.999160
     33          1           0        5.563205   -2.636636    0.753672
     34          1           0        7.134332   -2.157152    0.089621
 ---------------------------------------------------------------------

 SCF Done:  E(RHF) =  -669.533802389     A.U. after   15 cycles
 E2 =    -0.2093783318D+01 EUMP2 =    -0.67162758570666D+03

 The electronic state is 1-A.
 Alpha  occ. eigenvalues --  -20.60773 -20.60768 -15.85829 -11.31199 -11.27794
 Alpha  occ. eigenvalues --  -11.27790 -11.27518 -11.26791 -11.26769 -11.22304
 Alpha  occ. eigenvalues --  -11.22109 -11.22047 -11.21969 -11.21909 -11.21506
 Alpha  occ. eigenvalues --   -1.59850  -1.39403  -1.19396  -1.09090  -1.08777
 Alpha  occ. eigenvalues --   -1.04801  -1.04173  -0.96642  -0.95611  -0.87656
 Alpha  occ. eigenvalues --   -0.86194  -0.82456  -0.80233  -0.78871  -0.77489
 Alpha  occ. eigenvalues --   -0.72049  -0.71174  -0.70552  -0.65723  -0.65049
 Alpha  occ. eigenvalues --   -0.64816  -0.62158  -0.61593  -0.60011  -0.58248
 Alpha  occ. eigenvalues --   -0.55995  -0.55234  -0.53469  -0.53128  -0.52938
 Alpha  occ. eigenvalues --   -0.52787  -0.50581  -0.48813  -0.48802  -0.48536
 Alpha  occ. eigenvalues --   -0.47276  -0.46411  -0.46341  -0.44808  -0.44422
 Alpha  occ. eigenvalues --   -0.37269  -0.36384
 Alpha virt. eigenvalues --    0.05032   0.11082   0.16454   0.19970   0.22718
 Alpha virt. eigenvalues --    0.24055   0.25577   0.26266   0.27075   0.27746
 Alpha virt. eigenvalues --    0.29242   0.29739   0.31041   0.31455   0.32245

 Mulliken charges:
               1
     1  C   -0.165285
     2  C   -0.221127
     3  C   -0.172087
     4  C    0.158130
     5  C   -0.170330
     6  C   -0.218584
     7  H    0.228050
     8  H    0.224723
     9  H    0.275855
    10  H    0.275833
    11  H    0.223318
    12  N    0.488144
    13  O   -0.460452
    14  O   -0.460447
    15  C   -0.298318
    16  C   -0.300214
    17  C   -0.483348
    18  H    0.147190
    19  H    0.152187
    20  H    0.145721
    21  H    0.157542
    22  H    0.160648
    23  H    0.148759
    24  H    0.162216
    25  C   -0.297563
    26  C   -0.299995
    27  C   -0.475936
    28  H    0.145076
    29  H    0.152347
    30  H    0.151535
    31  H    0.153634
    32  H    0.156631
    33  H    0.154296
    34  H    0.161852
 Sum of Mulliken charges =  -0.00000

 Dipole moment (field-independent basis, Debye):
    X=              4.2160    Y=              1.9120    Z=              2.3860  Tot=              5.2080
 Quadrupole moment (field-independent basis, Debye-Ang):
   XX=           -121.5969   YY=            -92.7071   ZZ=            -93.4576
   XY=             -8.4675   XZ=             -7.4480   YZ=             -1.9266

 Normal termination of Gaussian 16 at Thu May  6 09:28:41 2021.
