 Gaussian 16, Revision A.03,
 Gaussian 16:  EM64L-G16RevA.03 25-Dec-2016

 -------------
 #p 6-31g* mp2
 -------------

 ------------------------------------------------------
 Input file generated by CHIRIPA (05-May-2021 14:51:09)
 ------------------------------------------------------
 Symbolic Z-matrix:
 Charge =  0 Multiplicity = 1

                         Standard orientation:
 ---------------------------------------------------------------------
 Center     Atomic      Atomic             Coordinates (Angstroms)
 Number     Number       Type             X           Y           Z
 ---------------------------------------------------------------------
      1          6           0       -5.377924    0.316251   -0.017520
      2          6           0       -6.157241   -0.894242   -0.532647
      3          6           0       -7.669986   -0.731440   -0.381346
      4          1           0       -5.626436    0.481460    1.039784
      5          1           0       -5.707153    1.213393   -0.559866
      6          1           0       -5.825653   -1.789057    0.009545
      7          1           0       -5.906699   -1.056705   -1.588796
      8          1           0       -8.020646    0.144438   -0.936752
      9          1           0       -7.939140   -0.592076    0.670669
     10          1           0       -8.207567   -1.608167   -0.755800
     11          6           0       -3.864309    0.168493   -0.161972
     12          6           0       -3.084991    1.378986    0.353154
     13          6           0       -1.572246    1.216184    0.201853
     14          1           0       -3.535079   -0.728649    0.380374
     15          1           0       -3.615797    0.003284   -1.219277
     16          1           0       -3.335533    1.541448    1.409303
     17          1           0       -3.416579    2.273801   -0.189037
     18          1           0       -1.303093    1.076820   -0.850161
     19          1           0       -1.221586    0.340306    0.757260
     20          1           0       -1.034665    2.092911    0.576307
     21          6           0        3.872156   -0.248386   -0.060102
     22          6           0        3.014109   -0.611606    1.152255
     23          6           0        1.518070   -0.619428    0.836659
     24          1           0        3.569412    0.739744   -0.432782
     25          1           0        3.671100   -0.963033   -0.870195
     26          1           0        3.217746    0.102689    1.960296
     27          1           0        3.319060   -1.598902    1.522208
     28          1           0        1.294532   -1.345050    0.047922
     29          1           0        1.192642    0.366210    0.488499
     30          1           0        0.923365   -0.881558    1.717270
     31          6           0        5.370076   -0.236358    0.239595
     32          6           0        6.228124    0.126861   -0.972763
     33          6           0        7.724163    0.134685   -0.657167
     34          1           0        5.571132    0.478289    1.049688
     35          1           0        5.672820   -1.224488    0.612274
     36          1           0        5.923172    1.114158   -1.342716
     37          1           0        6.024487   -0.587433   -1.780803
     38          1           0        8.049590   -0.850954   -0.309008
     39          1           0        7.947701    0.860306    0.131569
     40          1           0        8.318867    0.396813   -1.537777
 ---------------------------------------------------------------------

 SCF Done:  E(RHF) =  -470.732247433     A.U. after   11 cycles
 E2 =    -0.1582771470D+01 EUMP2 =    -0.47231501890218D+03

 The electronic state is 1-A.
 Alpha  occ. eigenvalues --  -11.21577 -11.21574 -11.21522 -11.21516 -11.21367
 Alpha  occ. eigenvalues --  -11.21362 -11.21306 -11.21301 -11.21053 -11.21050
 Alpha  occ. eigenvalues --  -11.20936 -11.20926  -1.08394  -1.08374  -1.03523
 Alpha  occ. eigenvalues --   -1.03437  -0.96036  -0.95834  -0.87130  -0.86786
 Alpha  occ. eigenvalues --   -0.79713  -0.79392  -0.78231  -0.78159  -0.65032
 Alpha  occ. eigenvalues --   -0.65001  -0.60946  -0.60823  -0.59327  -0.59286
 Alpha  occ. eigenvalues --   -0.57592  -0.57497  -0.55358  -0.55115  -0.52862
 Alpha  occ. eigenvalues --   -0.52622  -0.52433  -0.52082  -0.49985  -0.49710
 Alpha  occ. eigenvalues --   -0.48006  -0.47696  -0.46648  -0.46490  -0.45815
 Alpha  occ. eigenvalues --   -0.45684  -0.45675  -0.45586  -0.43736  -0.43696
 Alpha virt. eigenvalues --    0.22683   0.22966   0.23769   0.24738   0.26476
 Alpha virt. eigenvalues --    0.26523   0.26860   0.27452   0.27676   0.29151
 Alpha virt. eigenvalues --    0.29666   0.31099   0.31691   0.31740   0.32302

 Mulliken charges:
               1
     1  C   -0.298206
     2  C   -0.299584
     3  C   -0.475670
     4  H    0.149508
     5  H    0.149437
     6  H    0.151859
     7  H    0.151872
     8  H    0.155134
     9  H    0.155121
    10  H    0.160147
    11  C   -0.298219
    12  C   -0.300654
    13  C   -0.479564
    14  H    0.149465
    15  H    0.149503
    16  H    0.151374
    17  H    0.151098
    18  H    0.154562
    19  H    0.164345
    20  H    0.158039
    21  C   -0.298410
    22  C   -0.300294
    23  C   -0.479417
    24  H    0.149667
    25  H    0.149346
    26  H    0.151478
    27  H    0.151141
    28  H    0.154621
    29  H    0.164772
    30  H    0.157854
    31  C   -0.298213
    32  C   -0.299592
    33  C   -0.475673
    34  H    0.149416
    35  H    0.149570
    36  H    0.151880
    37  H    0.151857
    38  H    0.155134
    39  H    0.155136
    40  H    0.160159
 Sum of Mulliken charges =  -0.00000

 Dipole moment (field-independent basis, Debye):
    X=              0.0056    Y=             -0.0020    Z=             -0.0021  Tot=              0.0063
 Quadrupole moment (field-independent basis, Debye-Ang):
   XX=            -87.6079   YY=            -83.7022   ZZ=            -83.8924
   XY=             -0.0675   XZ=             -0.0426   YZ=             -0.1318

 Normal termination of Gaussian 16 at Thu May  6 06:54:24 2021.
