 Gaussian 16, Revision A.03,
 Gaussian 16:  EM64L-G16RevA.03 25-Dec-2016

 -------------
 #p 6-31g* mp2
 -------------

 ------------------------------------------------------
 Input file generated by CHIRIPA (05-May-2021 14:53:15)
 ------------------------------------------------------
 Symbolic Z-matrix:
 Charge =  0 Multiplicity = 1

                         Standard orientation:
 ---------------------------------------------------------------------
 Center     Atomic      Atomic             Coordinates (Angstroms)
 Number     Number       Type             X           Y           Z
 ---------------------------------------------------------------------
      1          6           0       -5.520371   -0.536369    0.042325
      2          6           0       -6.743317    0.376565    0.136873
      3          6           0       -8.061599   -0.384215   -0.008525
      4          1           0       -5.537246   -1.062620   -0.921894
      5          1           0       -5.586920   -1.308662    0.821126
      6          1           0       -6.673789    1.147740   -0.640991
      7          1           0       -6.723427    0.900848    1.100899
      8          1           0       -8.157369   -1.142334    0.775493
      9          1           0       -8.107449   -0.894040   -0.976294
     10          1           0       -8.922726    0.287592    0.062156
     11          6           0       -4.194971    0.209588    0.185825
     12          6           0       -2.972025   -0.703346    0.091278
     13          6           0       -1.653743    0.057434    0.236676
     14          1           0       -4.128422    0.981881   -0.592975
     15          1           0       -4.178096    0.735839    1.150045
     16          1           0       -2.991914   -1.227630   -0.872749
     17          1           0       -3.041553   -1.474521    0.869141
     18          1           0       -1.607892    0.567259    1.204445
     19          1           0       -1.557972    0.815553   -0.547342
     20          1           0       -0.792616   -0.614373    0.165995
     21          6           0        5.697870   -1.476383    0.325973
     22          6           0        4.523522   -1.926783   -0.286047
     23          6           0        3.462795   -1.046886   -0.520968
     24          6           0        3.611098    0.282721   -0.129251
     25          6           0        4.768472    0.761702    0.482592
     26          6           0        5.816388   -0.135941    0.707666
     27          1           0        6.516892   -2.166801    0.504640
     28          1           0        4.428684   -2.967242   -0.583531
     29          1           0        2.542486   -1.368892   -0.992944
     30          1           0        4.833560    1.804641    0.768004
     31          1           0        6.727231    0.216642    1.183160
     32          7           0        2.494936    1.223622   -0.372739
     33          8           0        2.650456    2.390146   -0.018235
     34          8           0        1.485703    0.776761   -0.913479
 ---------------------------------------------------------------------

 SCF Done:  E(RHF) =  -669.535528520     A.U. after   15 cycles
 E2 =    -0.2091106786D+01 EUMP2 =    -0.67162663530594D+03

 The electronic state is 1-A.
 Alpha  occ. eigenvalues --  -20.60863 -20.60837 -15.85878 -11.31245 -11.27815
 Alpha  occ. eigenvalues --  -11.27808 -11.27555 -11.26829 -11.26819 -11.21094
 Alpha  occ. eigenvalues --  -11.20783 -11.20664 -11.20646 -11.20572 -11.19606
 Alpha  occ. eigenvalues --   -1.59913  -1.39469  -1.19417  -1.08813  -1.07712
 Alpha  occ. eigenvalues --   -1.04819  -1.02735  -0.95656  -0.95143  -0.86222
 Alpha  occ. eigenvalues --   -0.86149  -0.82483  -0.78818  -0.77554  -0.77482
 Alpha  occ. eigenvalues --   -0.72106  -0.71227  -0.70526  -0.65073  -0.64823
 Alpha  occ. eigenvalues --   -0.64352  -0.62168  -0.60136  -0.58571  -0.56769
 Alpha  occ. eigenvalues --   -0.55322  -0.54434  -0.53150  -0.52912  -0.51820
 Alpha  occ. eigenvalues --   -0.51574  -0.49140  -0.48863  -0.48809  -0.47107
 Alpha  occ. eigenvalues --   -0.45871  -0.45052  -0.44986  -0.44842  -0.42933
 Alpha  occ. eigenvalues --   -0.37396  -0.36422
 Alpha virt. eigenvalues --    0.04982   0.11227   0.16458   0.21292   0.23527
 Alpha virt. eigenvalues --    0.25010   0.27106   0.27333   0.27862   0.28185
 Alpha virt. eigenvalues --    0.29062   0.30650   0.31823   0.32213   0.32459

 Mulliken charges:
               1
     1  C   -0.297403
     2  C   -0.299172
     3  C   -0.475274
     4  H    0.148221
     5  H    0.147378
     6  H    0.152131
     7  H    0.151419
     8  H    0.154026
     9  H    0.154373
    10  H    0.159009
    11  C   -0.297619
    12  C   -0.301701
    13  C   -0.469541
    14  H    0.150796
    15  H    0.148623
    16  H    0.148317
    17  H    0.145434
    18  H    0.149515
    19  H    0.168450
    20  H    0.159190
    21  C   -0.170739
    22  C   -0.218496
    23  C   -0.171215
    24  C    0.158367
    25  C   -0.170817
    26  C   -0.218531
    27  H    0.225795
    28  H    0.223664
    29  H    0.275576
    30  H    0.275786
    31  H    0.223645
    32  N    0.489587
    33  O   -0.459795
    34  O   -0.459000
 Sum of Mulliken charges =  -0.00000

 Dipole moment (field-independent basis, Debye):
    X=              4.2105    Y=             -3.2067    Z=              0.7912  Tot=              5.3514
 Quadrupole moment (field-independent basis, Debye-Ang):
   XX=            -67.5481   YY=            -94.4066   ZZ=            -93.9422
   XY=             -9.5148   XZ=              4.0155   YZ=              2.2557

 Normal termination of Gaussian 16 at Thu May  6 15:29:39 2021.
