 Gaussian 16, Revision A.03,
 Gaussian 16:  EM64L-G16RevA.03 25-Dec-2016

 -------------
 #p 6-31g* mp2
 -------------

 ------------------------------------------------------
 Input file generated by CHIRIPA (05-May-2021 14:51:10)
 ------------------------------------------------------
 Symbolic Z-matrix:
 Charge =  0 Multiplicity = 1

                         Standard orientation:
 ---------------------------------------------------------------------
 Center     Atomic      Atomic             Coordinates (Angstroms)
 Number     Number       Type             X           Y           Z
 ---------------------------------------------------------------------
      1          6           0       -4.462725   -0.038089    0.328993
      2          6           0       -5.402787    0.675694   -0.643007
      3          6           0       -6.865115    0.619344   -0.200046
      4          1           0       -4.776652   -1.086048    0.429874
      5          1           0       -4.562899    0.415457    1.324812
      6          1           0       -5.299854    0.221844   -1.637010
      7          1           0       -5.086470    1.722026   -0.741733
      8          1           0       -6.988979    1.089978    0.780649
      9          1           0       -7.203576   -0.418727   -0.119715
     10          1           0       -7.519596    1.135659   -0.909223
     11          6           0       -2.997372    0.009606   -0.100187
     12          6           0       -2.057311   -0.704177    0.871813
     13          6           0       -0.594982   -0.647827    0.428851
     14          1           0       -2.897198   -0.443940   -1.096006
     15          1           0       -2.683445    1.057565   -0.201068
     16          1           0       -2.373628   -1.750510    0.970539
     17          1           0       -2.160243   -0.250328    1.865816
     18          1           0       -0.256521    0.390244    0.348521
     19          1           0       -0.471118   -1.118462   -0.551843
     20          1           0        0.059499   -1.164142    1.138029
     21          6           0        3.287265   -0.560449   -0.353371
     22          6           0        3.796253   -1.936963    0.075724
     23          6           0        2.899846   -3.076455   -0.409878
     24          1           0        2.268392   -0.416915    0.031650
     25          1           0        3.214516   -0.529404   -1.449335
     26          1           0        3.869337   -1.964937    1.170479
     27          1           0        4.814105   -2.077159   -0.310203
     28          1           0        2.835566   -3.077049   -1.502795
     29          1           0        1.885430   -2.964190   -0.013701
     30          1           0        3.282240   -4.051434   -0.091992
     31          6           0        4.172833    0.588931    0.124565
     32          6           0        3.663845    1.965447   -0.304529
     33          6           0        4.560251    3.104939    0.181072
     34          1           0        4.245582    0.557888    1.220530
     35          1           0        5.191706    0.445398   -0.260455
     36          1           0        2.645992    2.105642    0.081396
     37          1           0        3.590761    1.993421   -1.399285
     38          1           0        5.574668    2.992673   -0.215105
     39          1           0        4.624531    3.105533    1.273989
     40          1           0        4.177857    4.079917   -0.136814
 ---------------------------------------------------------------------

 SCF Done:  E(RHF) =  -470.732950809     A.U. after   11 cycles
 E2 =    -0.1583224626D+01 EUMP2 =    -0.47231617543454D+03

 The electronic state is 1-A.
 Alpha  occ. eigenvalues --  -11.21658 -11.21623 -11.21552 -11.21503 -11.21442
 Alpha  occ. eigenvalues --  -11.21382 -11.21293 -11.21175 -11.21169 -11.21088
 Alpha  occ. eigenvalues --  -11.21035 -11.20975  -1.08474  -1.08329  -1.03587
 Alpha  occ. eigenvalues --   -1.03448  -0.96044  -0.95894  -0.87074  -0.86910
 Alpha  occ. eigenvalues --   -0.79699  -0.79487  -0.78305  -0.78098  -0.65102
 Alpha  occ. eigenvalues --   -0.64973  -0.60992  -0.60862  -0.59434  -0.59229
 Alpha  occ. eigenvalues --   -0.57656  -0.57500  -0.55374  -0.55138  -0.52795
 Alpha  occ. eigenvalues --   -0.52597  -0.52484  -0.52293  -0.50019  -0.49796
 Alpha  occ. eigenvalues --   -0.47979  -0.47824  -0.46686  -0.46534  -0.45934
 Alpha  occ. eigenvalues --   -0.45746  -0.45646  -0.45511  -0.43753  -0.43686
 Alpha virt. eigenvalues --    0.21411   0.22998   0.23713   0.24535   0.25556
 Alpha virt. eigenvalues --    0.26619   0.27037   0.27496   0.27929   0.29528
 Alpha virt. eigenvalues --    0.29953   0.31183   0.31727   0.31956   0.32213

 Mulliken charges:
               1
     1  C   -0.298374
     2  C   -0.299654
     3  C   -0.475731
     4  H    0.149781
     5  H    0.149549
     6  H    0.152037
     7  H    0.151992
     8  H    0.155196
     9  H    0.155234
    10  H    0.160352
    11  C   -0.298705
    12  C   -0.300631
    13  C   -0.479508
    14  H    0.149862
    15  H    0.149781
    16  H    0.152331
    17  H    0.151975
    18  H    0.155686
    19  H    0.158342
    20  H    0.160671
    21  C   -0.310006
    22  C   -0.298808
    23  C   -0.478975
    24  H    0.166074
    25  H    0.148189
    26  H    0.150790
    27  H    0.151375
    28  H    0.154576
    29  H    0.158633
    30  H    0.159484
    31  C   -0.297427
    32  C   -0.299893
    33  C   -0.475616
    34  H    0.148803
    35  H    0.149113
    36  H    0.151507
    37  H    0.151881
    38  H    0.155209
    39  H    0.155017
    40  H    0.159890
 Sum of Mulliken charges =  -0.00000

 Dipole moment (field-independent basis, Debye):
    X=             -0.0773    Y=              0.0057    Z=             -0.0014  Tot=              0.0775
 Quadrupole moment (field-independent basis, Debye-Ang):
   XX=            -86.2605   YY=            -85.0094   ZZ=            -83.9012
   XY=             -0.3202   XZ=             -0.3337   YZ=              0.2502

 Normal termination of Gaussian 16 at Thu May  6 02:14:07 2021.
