 Gaussian 16, Revision A.03,
 Gaussian 16:  EM64L-G16RevA.03 25-Dec-2016

 -------------
 #p 6-31g* mp2
 -------------

 ------------------------------------------------------
 Input file generated by CHIRIPA (05-May-2021 14:57:25)
 ------------------------------------------------------
 Symbolic Z-matrix:
 Charge =  0 Multiplicity = 1

                         Standard orientation:
 ---------------------------------------------------------------------
 Center     Atomic      Atomic             Coordinates (Angstroms)
 Number     Number       Type             X           Y           Z
 ---------------------------------------------------------------------
      1          6           0       -5.108628    0.545788    0.492913
      2          6           0       -4.797480   -0.815572    0.412860
      3          6           0       -3.524145   -1.230460    0.011572
      4          6           0       -2.581937   -0.252644   -0.303722
      5          6           0       -2.861526    1.111259   -0.233798
      6          6           0       -4.141364    1.503170    0.169898
      7          1           0       -6.100311    0.859158    0.805578
      8          1           0       -5.546682   -1.561303    0.663113
      9          1           0       -3.256427   -2.277720   -0.059081
     10          1           0       -2.093730    1.831298   -0.489630
     11          1           0       -4.380192    2.561118    0.231159
     12          7           0       -1.230472   -0.679705   -0.729822
     13          8           0       -0.418077    0.201460   -1.002220
     14          8           0       -1.009179   -1.887514   -0.783333
     15          6           0        3.156736   -2.308058    0.434242
     16          6           0        2.521267   -1.605715    1.463521
     17          6           0        2.320866   -0.225755    1.363042
     18          6           0        2.770638    0.423014    0.214088
     19          6           0        3.407111   -0.248844   -0.828409
     20          6           0        3.596854   -1.628579   -0.706427
     21          1           0        3.308272   -3.379957    0.520649
     22          1           0        2.178422   -2.130798    2.350533
     23          1           0        1.831852    0.342596    2.144874
     24          1           0        3.737890    0.302080   -1.700467
     25          1           0        4.090676   -2.171446   -1.507351
     26          7           0        2.564125    1.883796    0.096333
     27          8           0        2.969650    2.432148   -0.926162
     28          8           0        2.000645    2.452746    1.028762
 ---------------------------------------------------------------------

 SCF Done:  E(RHF) =  -868.338873689     A.U. after   16 cycles
 E2 =    -0.2600680573D+01 EUMP2 =    -0.87093955426261D+03

 The electronic state is 1-A.
 Alpha  occ. eigenvalues --  -20.60918 -20.60891 -20.59605 -20.59576 -15.85940
 Alpha  occ. eigenvalues --  -15.84637 -11.31173 -11.29748 -11.27777 -11.27661
 Alpha  occ. eigenvalues --  -11.27470 -11.26758 -11.26677 -11.26378 -11.26317
 Alpha  occ. eigenvalues --  -11.26116 -11.25416 -11.25357  -1.59969  -1.58650
 Alpha  occ. eigenvalues --   -1.39529  -1.38224  -1.19341  -1.17915  -1.08766
 Alpha  occ. eigenvalues --   -1.07376  -1.04719  -1.03355  -0.95620  -0.94266
 Alpha  occ. eigenvalues --   -0.86125  -0.84779  -0.82458  -0.81147  -0.77510
 Alpha  occ. eigenvalues --   -0.76203  -0.72210  -0.71300  -0.70903  -0.70449
 Alpha  occ. eigenvalues --   -0.69869  -0.69138  -0.64995  -0.64720  -0.63642
 Alpha  occ. eigenvalues --   -0.63438  -0.62057  -0.60761  -0.55239  -0.53922
 Alpha  occ. eigenvalues --   -0.53071  -0.52805  -0.51656  -0.51517  -0.48923
 Alpha  occ. eigenvalues --   -0.48839  -0.47651  -0.47626  -0.44976  -0.43698
 Alpha  occ. eigenvalues --   -0.37334  -0.36319  -0.35786  -0.34915
 Alpha virt. eigenvalues --    0.04986   0.06406   0.11336   0.12738   0.16506
 Alpha virt. eigenvalues --    0.17934   0.21498   0.22603   0.27428   0.28394
 Alpha virt. eigenvalues --    0.28456   0.29495   0.31048   0.32063   0.32689

 Mulliken charges:
               1
     1  C   -0.170524
     2  C   -0.218996
     3  C   -0.171840
     4  C    0.156430
     5  C   -0.170464
     6  C   -0.219013
     7  H    0.225824
     8  H    0.222501
     9  H    0.273160
    10  H    0.283045
    11  H    0.226099
    12  N    0.489286
    13  O   -0.460456
    14  O   -0.463410
    15  C   -0.165100
    16  C   -0.214984
    17  C   -0.172139
    18  C    0.178628
    19  C   -0.164990
    20  C   -0.215404
    21  H    0.220628
    22  H    0.216498
    23  H    0.267747
    24  H    0.271598
    25  H    0.218644
    26  N    0.490683
    27  O   -0.463775
    28  O   -0.469674
 Sum of Mulliken charges =  -0.00000

 Dipole moment (field-independent basis, Debye):
    X=             -4.2230    Y=             -3.5820    Z=              1.7372  Tot=              5.8037
 Quadrupole moment (field-independent basis, Debye-Ang):
   XX=            -76.5704   YY=           -106.4078   ZZ=           -102.8386
   XY=            -15.8058   XZ=             -4.1058   YZ=             -2.3133

 Normal termination of Gaussian 16 at Thu May  6 03:32:33 2021.
