 Gaussian 16, Revision A.03,
 Gaussian 16:  EM64L-G16RevA.03 25-Dec-2016

 -------------
 #p 6-31g* mp2
 -------------

 ------------------------------------------------------
 Input file generated by CHIRIPA (05-May-2021 14:53:14)
 ------------------------------------------------------
 Symbolic Z-matrix:
 Charge =  0 Multiplicity = 1

                         Standard orientation:
 ---------------------------------------------------------------------
 Center     Atomic      Atomic             Coordinates (Angstroms)
 Number     Number       Type             X           Y           Z
 ---------------------------------------------------------------------
      1          6           0        3.753006    0.548422    0.002055
      2          6           0        3.125495    1.942760   -0.004094
      3          6           0        4.129368    3.041260   -0.355278
      4          1           0        4.584335    0.530581    0.720051
      5          1           0        4.188960    0.345786   -0.986012
      6          1           0        2.689640    2.142156    0.983269
      7          1           0        2.295440    1.957229   -0.722019
      8          1           0        4.556227    2.869770   -1.348748
      9          1           0        4.952666    3.055748    0.366229
     10          1           0        3.659612    4.029788   -0.353887
     11          6           0        2.761942   -0.560398    0.351396
     12          6           0        3.389453   -1.954736    0.357546
     13          6           0        2.385580   -3.053236    0.708729
     14          1           0        2.325988   -0.357762    1.339464
     15          1           0        1.930613   -0.542557   -0.366599
     16          1           0        4.219508   -1.969205    1.075471
     17          1           0        3.825308   -2.154132   -0.629818
     18          1           0        1.562282   -3.067724   -0.012778
     19          1           0        1.958721   -2.881746    1.702200
     20          1           0        2.855336   -4.041764    0.707338
     21          6           0       -3.606325    2.195030    0.526511
     22          6           0       -4.303225    0.995906    0.708042
     23          6           0       -3.724930   -0.223595    0.343436
     24          6           0       -2.442287   -0.207077   -0.202316
     25          6           0       -1.722523    0.970996   -0.395639
     26          6           0       -2.320465    2.178776   -0.023781
     27          1           0       -4.063190    3.137815    0.812563
     28          1           0       -5.301980    1.005504    1.135173
     29          1           0       -4.242011   -1.166604    0.472979
     30          1           0       -0.728383    0.929547   -0.823877
     31          1           0       -1.776892    3.108492   -0.165913
     32          7           0       -1.819672   -1.491905   -0.592147
     33          8           0       -0.688421   -1.450436   -1.070884
     34          8           0       -2.474706   -2.516093   -0.411579
 ---------------------------------------------------------------------

 SCF Done:  E(RHF) =  -669.536545511     A.U. after   15 cycles
 E2 =    -0.2092323588D+01 EUMP2 =    -0.67162886909924D+03

 The electronic state is 1-A.
 Alpha  occ. eigenvalues --  -20.61016 -20.61002 -15.86024 -11.31290 -11.27850
 Alpha  occ. eigenvalues --  -11.27840 -11.27580 -11.26847 -11.26831 -11.21617
 Alpha  occ. eigenvalues --  -11.21104 -11.20993 -11.20699 -11.20559 -11.19752
 Alpha  occ. eigenvalues --   -1.60056  -1.39617  -1.19454  -1.08870  -1.07915
 Alpha  occ. eigenvalues --   -1.04841  -1.02973  -0.95722  -0.95389  -0.86410
 Alpha  occ. eigenvalues --   -0.86245  -0.82563  -0.79134  -0.77762  -0.77493
 Alpha  occ. eigenvalues --   -0.72258  -0.71358  -0.70566  -0.65118  -0.64849
 Alpha  occ. eigenvalues --   -0.64537  -0.62190  -0.60361  -0.58862  -0.56993
 Alpha  occ. eigenvalues --   -0.55354  -0.54655  -0.53176  -0.52935  -0.52135
 Alpha  occ. eigenvalues --   -0.51807  -0.49429  -0.49008  -0.48896  -0.47407
 Alpha  occ. eigenvalues --   -0.46185  -0.45432  -0.45139  -0.44613  -0.43218
 Alpha  occ. eigenvalues --   -0.37431  -0.36438
 Alpha virt. eigenvalues --    0.04875   0.11209   0.16355   0.20314   0.23099
 Alpha virt. eigenvalues --    0.24797   0.25124   0.27339   0.27686   0.28633
 Alpha virt. eigenvalues --    0.29526   0.31258   0.31951   0.32098   0.32495

 Mulliken charges:
               1
     1  C   -0.297324
     2  C   -0.299043
     3  C   -0.474878
     4  H    0.148383
     5  H    0.150044
     6  H    0.149565
     7  H    0.143968
     8  H    0.156528
     9  H    0.156534
    10  H    0.156054
    11  C   -0.308883
    12  C   -0.297640
    13  C   -0.484519
    14  H    0.143653
    15  H    0.169768
    16  H    0.146175
    17  H    0.150731
    18  H    0.181858
    19  H    0.148676
    20  H    0.154781
    21  C   -0.170358
    22  C   -0.218798
    23  C   -0.170466
    24  C    0.157566
    25  C   -0.171366
    26  C   -0.219436
    27  H    0.226020
    28  H    0.223775
    29  H    0.275748
    30  H    0.278671
    31  H    0.224425
    32  N    0.491637
    33  O   -0.463747
    34  O   -0.458103
 Sum of Mulliken charges =  -0.00000

 Dipole moment (field-independent basis, Debye):
    X=             -2.4454    Y=              4.4130    Z=              1.2654  Tot=              5.2015
 Quadrupole moment (field-independent basis, Debye-Ang):
   XX=            -81.6872   YY=            -96.8823   ZZ=            -94.9193
   XY=             -8.9613   XZ=             -4.4339   YZ=             -1.3963

 Normal termination of Gaussian 16 at Thu May  6 08:58:37 2021.
