 Gaussian 16, Revision A.03,
 Gaussian 16:  EM64L-G16RevA.03 25-Dec-2016

 -------------
 #p 6-31g* mp2
 -------------

 ------------------------------------------------------
 Input file generated by CHIRIPA (05-May-2021 14:51:13)
 ------------------------------------------------------
 Symbolic Z-matrix:
 Charge =  0 Multiplicity = 1

                         Standard orientation:
 ---------------------------------------------------------------------
 Center     Atomic      Atomic             Coordinates (Angstroms)
 Number     Number       Type             X           Y           Z
 ---------------------------------------------------------------------
      1          6           0        2.769915    1.155438   -0.214492
      2          6           0        2.211651    2.090253    0.859029
      3          6           0        2.570619    3.555753    0.611552
      4          1           0        3.862290    1.265044   -0.255094
      5          1           0        2.387829    1.466696   -1.196593
      6          1           0        2.593575    1.776479    1.838976
      7          1           0        1.120496    1.978268    0.897212
      8          1           0        2.175748    3.891555   -0.352769
      9          1           0        3.657197    3.688619    0.594345
     10          1           0        2.161569    4.206393    1.390786
     11          6           0        2.419433   -0.313008    0.019082
     12          6           0        2.977697   -1.247822   -1.054439
     13          6           0        2.618730   -2.713322   -0.806961
     14          1           0        2.801519   -0.624266    1.001184
     15          1           0        1.327058   -0.422614    0.059684
     16          1           0        4.068852   -1.135838   -1.092622
     17          1           0        2.595773   -0.934048   -2.034386
     18          1           0        1.532152   -2.846188   -0.789755
     19          1           0        3.013600   -3.049124    0.157360
     20          1           0        3.027779   -3.363962   -1.586196
     21          6           0       -2.388841   -0.911262    0.646266
     22          6           0       -1.541054   -2.075424    0.132487
     23          6           0       -1.137101   -3.047199    1.241663
     24          1           0       -1.828099   -0.371968    1.421943
     25          1           0       -3.290242   -1.309684    1.132200
     26          1           0       -0.642197   -1.674878   -0.353555
     27          1           0       -2.103803   -2.611893   -0.642192
     28          1           0       -2.023690   -3.474324    1.721379
     29          1           0       -0.553779   -2.531986    2.011657
     30          1           0       -0.531672   -3.871635    0.852277
     31          6           0       -2.800507    0.068832   -0.450855
     32          6           0       -3.648295    1.232993    0.062922
     33          6           0       -4.052246    2.204769   -1.046253
     34          1           0       -1.899106    0.467253   -0.936790
     35          1           0       -3.361250   -0.470462   -1.226533
     36          1           0       -3.085545    1.769463    0.837603
     37          1           0       -4.547151    0.832448    0.548964
     38          1           0       -4.635569    1.689555   -1.816247
     39          1           0       -3.165659    2.631894   -1.525969
     40          1           0       -4.657676    3.029204   -0.656867
 ---------------------------------------------------------------------

 SCF Done:  E(RHF) =  -470.732852673     A.U. after   11 cycles
 E2 =    -0.1584153265D+01 EUMP2 =    -0.47231700593746D+03

 The electronic state is 1-A.
 Alpha  occ. eigenvalues --  -11.21661 -11.21640 -11.21623 -11.21620 -11.21452
 Alpha  occ. eigenvalues --  -11.21445 -11.21391 -11.21384 -11.21115 -11.21103
 Alpha  occ. eigenvalues --  -11.21061 -11.21042  -1.08507  -1.08441  -1.03606
 Alpha  occ. eigenvalues --   -1.03521  -0.96036  -0.95979  -0.87053  -0.86994
 Alpha  occ. eigenvalues --   -0.79679  -0.79586  -0.78367  -0.78216  -0.65346
 Alpha  occ. eigenvalues --   -0.64901  -0.61176  -0.60780  -0.59445  -0.59304
 Alpha  occ. eigenvalues --   -0.57732  -0.57512  -0.55343  -0.55240  -0.52721
 Alpha  occ. eigenvalues --   -0.52695  -0.52511  -0.52329  -0.49989  -0.49913
 Alpha  occ. eigenvalues --   -0.48031  -0.47893  -0.46926  -0.46521  -0.46085
 Alpha  occ. eigenvalues --   -0.45798  -0.45776  -0.45271  -0.43822  -0.43811
 Alpha virt. eigenvalues --    0.19771   0.22541   0.23670   0.24955   0.25618
 Alpha virt. eigenvalues --    0.26471   0.26752   0.27612   0.28843   0.30138
 Alpha virt. eigenvalues --    0.30528   0.30898   0.31516   0.31796   0.32035

 Mulliken charges:
               1
     1  C   -0.297737
     2  C   -0.299781
     3  C   -0.475713
     4  H    0.150046
     5  H    0.149326
     6  H    0.152150
     7  H    0.151045
     8  H    0.155222
     9  H    0.155463
    10  H    0.160380
    11  C   -0.305735
    12  C   -0.299286
    13  C   -0.482391
    14  H    0.149773
    15  H    0.155851
    16  H    0.152183
    17  H    0.151584
    18  H    0.162566
    19  H    0.155328
    20  H    0.160123
    21  C   -0.298600
    22  C   -0.308231
    23  C   -0.476996
    24  H    0.150126
    25  H    0.150040
    26  H    0.158095
    27  H    0.152327
    28  H    0.155290
    29  H    0.156250
    30  H    0.161784
    31  C   -0.298512
    32  C   -0.299708
    33  C   -0.475696
    34  H    0.148486
    35  H    0.149977
    36  H    0.151978
    37  H    0.152217
    38  H    0.155268
    39  H    0.155025
    40  H    0.160483
 Sum of Mulliken charges =  -0.00000

 Dipole moment (field-independent basis, Debye):
    X=             -0.0048    Y=             -0.0117    Z=              0.0122  Tot=              0.0176
 Quadrupole moment (field-independent basis, Debye-Ang):
   XX=            -83.4422   YY=            -86.2671   ZZ=            -84.9340
   XY=              0.4909   XZ=              0.3841   YZ=              0.6016

 Normal termination of Gaussian 16 at Wed May  5 23:12:01 2021.
