 Gaussian 16, Revision A.03,
 Gaussian 16:  EM64L-G16RevA.03 25-Dec-2016

 -------------
 #p 6-31g* mp2
 -------------

 ------------------------------------------------------
 Input file generated by CHIRIPA (05-May-2021 14:53:16)
 ------------------------------------------------------
 Symbolic Z-matrix:
 Charge =  0 Multiplicity = 1

                         Standard orientation:
 ---------------------------------------------------------------------
 Center     Atomic      Atomic             Coordinates (Angstroms)
 Number     Number       Type             X           Y           Z
 ---------------------------------------------------------------------
      1          6           0        4.190827   -0.254415   -0.060272
      2          6           0        3.381683   -1.347306    0.638914
      3          6           0        1.880680   -1.234928    0.370299
      4          1           0        3.830152    0.728895    0.271330
      5          1           0        4.006100   -0.306534   -1.142194
      6          1           0        3.568956   -1.294024    1.719056
      7          1           0        3.744454   -2.328130    0.305753
      8          1           0        1.674572   -1.310237   -0.702291
      9          1           0        1.498076   -0.270255    0.719041
     10          1           0        1.321368   -2.025904    0.879599
     11          6           0        5.693113   -0.353399    0.198702
     12          6           0        6.502257    0.739491   -0.500484
     13          6           0        8.003260    0.627114   -0.231869
     14          1           0        5.877840   -0.301280    1.280624
     15          1           0        6.053788   -1.336709   -0.132901
     16          1           0        6.139486    1.720316   -0.167323
     17          1           0        6.314984    0.686209   -1.580626
     18          1           0        8.385864   -0.337559   -0.580612
     19          1           0        8.209368    0.702423    0.840721
     20          1           0        8.562572    1.418090   -0.741169
     21          6           0       -1.614814    1.383771    0.028737
     22          6           0       -2.782152    2.112144    0.280360
     23          6           0       -4.032075    1.487341    0.237197
     24          6           0       -4.078059    0.126603   -0.062080
     25          6           0       -2.932925   -0.626224   -0.317442
     26          6           0       -1.693787    0.019316   -0.268837
     27          1           0       -0.648033    1.877187    0.064381
     28          1           0       -2.723846    3.171917    0.511718
     29          1           0       -4.951596    2.027285    0.427881
     30          1           0       -3.022916   -1.681393   -0.545345
     31          1           0       -0.788873   -0.548858   -0.464683
     32          7           0       -5.395588   -0.545824   -0.110655
     33          8           0       -5.409194   -1.745706   -0.376621
     34          8           0       -6.389712    0.139740    0.118156
 ---------------------------------------------------------------------

 SCF Done:  E(RHF) =  -669.535461046     A.U. after   15 cycles
 E2 =    -0.2091216429D+01 EUMP2 =    -0.67162667747456D+03

 The electronic state is 1-A.
 Alpha  occ. eigenvalues --  -20.60688 -20.60682 -15.85738 -11.31082 -11.27647
 Alpha  occ. eigenvalues --  -11.27618 -11.27374 -11.26672 -11.26557 -11.22537
 Alpha  occ. eigenvalues --  -11.22372 -11.22206 -11.22159 -11.22011 -11.21527
 Alpha  occ. eigenvalues --   -1.59763  -1.39317  -1.19244  -1.09191  -1.08645
 Alpha  occ. eigenvalues --   -1.04643  -1.04321  -0.96811  -0.95486  -0.87855
 Alpha  occ. eigenvalues --   -0.86031  -0.82317  -0.80417  -0.78971  -0.77361
 Alpha  occ. eigenvalues --   -0.71958  -0.71086  -0.70363  -0.65814  -0.64894
 Alpha  occ. eigenvalues --   -0.64650  -0.62002  -0.61717  -0.60176  -0.58382
 Alpha  occ. eigenvalues --   -0.56105  -0.55152  -0.53583  -0.53290  -0.52973
 Alpha  occ. eigenvalues --   -0.52574  -0.50752  -0.48776  -0.48715  -0.48636
 Alpha  occ. eigenvalues --   -0.47416  -0.46519  -0.46415  -0.44728  -0.44556
 Alpha  occ. eigenvalues --   -0.37228  -0.36239
 Alpha virt. eigenvalues --    0.05154   0.11373   0.16647   0.20445   0.22232
 Alpha virt. eigenvalues --    0.23701   0.25394   0.25711   0.26813   0.27507
 Alpha virt. eigenvalues --    0.28979   0.29663   0.30834   0.31505   0.31927

 Mulliken charges:
               1
     1  C   -0.298881
     2  C   -0.299902
     3  C   -0.484486
     4  H    0.147261
     5  H    0.150042
     6  H    0.155756
     7  H    0.156194
     8  H    0.152611
     9  H    0.150865
    10  H    0.165777
    11  C   -0.298954
    12  C   -0.300054
    13  C   -0.476115
    14  H    0.150912
    15  H    0.151546
    16  H    0.151501
    17  H    0.152469
    18  H    0.156268
    19  H    0.155940
    20  H    0.161586
    21  C   -0.175252
    22  C   -0.218342
    23  C   -0.171663
    24  C    0.159035
    25  C   -0.173715
    26  C   -0.226057
    27  H    0.225141
    28  H    0.222778
    29  H    0.275082
    30  H    0.275479
    31  H    0.240648
    32  N    0.488015
    33  O   -0.460656
    34  O   -0.460827
 Sum of Mulliken charges =  -0.00000

 Dipole moment (field-independent basis, Debye):
    X=              4.9291    Y=              2.2991    Z=              0.1983  Tot=              5.4425
 Quadrupole moment (field-independent basis, Debye-Ang):
   XX=           -132.5892   YY=            -90.1258   ZZ=            -94.6965
   XY=            -11.6505   XZ=             -1.6935   YZ=              1.4632

 Normal termination of Gaussian 16 at Wed May  5 17:11:53 2021.
