 Gaussian 16, Revision A.03,
 Gaussian 16:  EM64L-G16RevA.03 25-Dec-2016

 -------------
 #p 6-31g* mp2
 -------------

 ------------------------------------------------------
 Input file generated by CHIRIPA (05-May-2021 14:55:24)
 ------------------------------------------------------
 Symbolic Z-matrix:
 Charge =  0 Multiplicity = 1

                         Standard orientation:
 ---------------------------------------------------------------------
 Center     Atomic      Atomic             Coordinates (Angstroms)
 Number     Number       Type             X           Y           Z
 ---------------------------------------------------------------------
      1          6           0        5.282425    1.471541    0.622206
      2          6           0        4.048196    2.098607    0.422235
      3          6           0        2.946188    1.368322   -0.032527
      4          6           0        3.114720    0.006552   -0.278433
      5          6           0        4.331460   -0.646813   -0.088830
      6          6           0        5.419875    0.103244    0.366486
      7          1           0        6.133212    2.046524    0.975691
      8          1           0        3.938529    3.161106    0.620010
      9          1           0        1.979260    1.828536   -0.195836
     10          1           0        4.409997   -1.707425   -0.294630
     11          1           0        6.377196   -0.386389    0.520894
     12          7           0        1.955268   -0.777035   -0.760163
     13          8           0        2.129735   -1.975523   -0.969505
     14          8           0        0.893978   -0.177884   -0.919279
     15          6           0       -4.727931    0.372124    0.452288
     16          6           0       -5.629063    0.817892   -0.699769
     17          6           0       -6.616890    1.910263   -0.289019
     18          1           0       -5.353445    0.010498    1.279877
     19          1           0       -4.176024    1.241971    0.834597
     20          1           0       -6.178074   -0.052795   -1.080697
     21          1           0       -5.001324    1.178320   -1.524786
     22          1           0       -6.083824    2.795971    0.071484
     23          1           0       -7.267259    1.557860    0.518095
     24          1           0       -7.251141    2.213988   -1.127671
     25          6           0       -3.734947   -0.719507    0.057250
     26          6           0       -2.833817   -1.165275    1.209308
     27          6           0       -1.845988   -2.257646    0.798558
     28          1           0       -4.286855   -1.589354   -0.325058
     29          1           0       -3.109433   -0.357881   -0.770338
     30          1           0       -3.461555   -1.525703    2.034324
     31          1           0       -2.284805   -0.294588    1.590237
     32          1           0       -1.195619   -1.905243   -0.008556
     33          1           0       -2.379055   -3.143354    0.438055
     34          1           0       -1.211737   -2.561371    1.637210
 ---------------------------------------------------------------------

 SCF Done:  E(RHF) =  -669.536637314     A.U. after   15 cycles
 E2 =    -0.2091170736D+01 EUMP2 =    -0.67162780805007D+03

 The electronic state is 1-A.
 Alpha  occ. eigenvalues --  -20.61034 -20.61024 -15.86041 -11.31340 -11.27898
 Alpha  occ. eigenvalues --  -11.27891 -11.27629 -11.26896 -11.26886 -11.20936
 Alpha  occ. eigenvalues --  -11.20582 -11.20558 -11.20408 -11.20275 -11.19405
 Alpha  occ. eigenvalues --   -1.60074  -1.39632  -1.19502  -1.08912  -1.07486
 Alpha  occ. eigenvalues --   -1.04894  -1.02535  -0.95758  -0.94968  -0.86295
 Alpha  occ. eigenvalues --   -0.85982  -0.82593  -0.78642  -0.77650  -0.77262
 Alpha  occ. eigenvalues --   -0.72259  -0.71382  -0.70611  -0.65158  -0.64897
 Alpha  occ. eigenvalues --   -0.64116  -0.62241  -0.59923  -0.58408  -0.56585
 Alpha  occ. eigenvalues --   -0.55403  -0.54243  -0.53225  -0.52985  -0.51682
 Alpha  occ. eigenvalues --   -0.51394  -0.49246  -0.49014  -0.48671  -0.46925
 Alpha  occ. eigenvalues --   -0.45674  -0.45048  -0.44802  -0.44653  -0.42806
 Alpha  occ. eigenvalues --   -0.37478  -0.36493
 Alpha virt. eigenvalues --    0.04859   0.11163   0.16359   0.21298   0.23757
 Alpha virt. eigenvalues --    0.25372   0.27220   0.27561   0.28197   0.28425
 Alpha virt. eigenvalues --    0.29101   0.30867   0.32325   0.32524   0.32605

 Mulliken charges:
               1
     1  C   -0.170465
     2  C   -0.218560
     3  C   -0.170633
     4  C    0.158884
     5  C   -0.170675
     6  C   -0.218602
     7  H    0.226173
     8  H    0.223958
     9  H    0.275616
    10  H    0.276087
    11  H    0.224015
    12  N    0.488932
    13  O   -0.458112
    14  O   -0.460786
    15  C   -0.297248
    16  C   -0.299145
    17  C   -0.475036
    18  H    0.146845
    19  H    0.147029
    20  H    0.151249
    21  H    0.152541
    22  H    0.153415
    23  H    0.153929
    24  H    0.158371
    25  C   -0.299640
    26  C   -0.296465
    27  C   -0.486774
    28  H    0.147030
    29  H    0.158081
    30  H    0.144971
    31  H    0.148557
    32  H    0.185630
    33  H    0.148782
    34  H    0.152046
 Sum of Mulliken charges =  -0.00000

 Dipole moment (field-independent basis, Debye):
    X=              4.4673    Y=              2.7743    Z=              1.5406  Tot=              5.4797
 Quadrupole moment (field-independent basis, Debye-Ang):
   XX=            -69.2225   YY=            -91.8878   ZZ=            -96.8339
   XY=              7.1781   XZ=              4.5637   YZ=             -0.6021

 Normal termination of Gaussian 16 at Thu May  6 16:00:22 2021.
