 Gaussian 16, Revision A.03,
 Gaussian 16:  EM64L-G16RevA.03 25-Dec-2016

 -------------
 #p 6-31g* mp2
 -------------

 ------------------------------------------------------
 Input file generated by CHIRIPA (05-May-2021 14:53:17)
 ------------------------------------------------------
 Symbolic Z-matrix:
 Charge =  0 Multiplicity = 1

                         Standard orientation:
 ---------------------------------------------------------------------
 Center     Atomic      Atomic             Coordinates (Angstroms)
 Number     Number       Type             X           Y           Z
 ---------------------------------------------------------------------
      1          6           0       -3.509609   -0.366770   -0.344718
      2          6           0       -2.354185   -0.956701    0.464578
      3          6           0       -1.018364   -0.888865   -0.276216
      4          1           0       -3.590935   -0.902875   -1.300188
      5          1           0       -3.278880    0.678792   -0.591617
      6          1           0       -2.587643   -2.000425    0.711060
      7          1           0       -2.275722   -0.419255    1.418314
      8          1           0       -0.759063    0.149070   -0.508711
      9          1           0       -1.072756   -1.441084   -1.219984
     10          1           0       -0.206282   -1.315945    0.320429
     11          6           0       -4.851662   -0.427336    0.382574
     12          6           0       -6.007086    0.162594   -0.426723
     13          6           0       -7.342907    0.094759    0.314071
     14          1           0       -5.082391   -1.472898    0.629473
     15          1           0       -4.770336    0.108769    1.338044
     16          1           0       -6.085550   -0.374851   -1.380459
     17          1           0       -5.773628    1.206318   -0.673205
     18          1           0       -7.288515    0.646977    1.257839
     19          1           0       -7.602208   -0.943176    0.546567
     20          1           0       -8.154989    0.521839   -0.282573
     21          6           0        5.087070   -1.428187    0.152803
     22          6           0        4.672966   -0.735826    1.295464
     23          6           0        3.664908    0.229470    1.214388
     24          6           0        3.090079    0.478258   -0.030990
     25          6           0        3.480907   -0.194826   -1.187493
     26          6           0        4.490771   -1.155958   -1.082849
     27          1           0        5.870854   -2.176435    0.224940
     28          1           0        5.134277   -0.945167    2.256409
     29          1           0        3.325127    0.780237    2.083079
     30          1           0        3.002261    0.035725   -2.131507
     31          1           0        4.810358   -1.692107   -1.971924
     32          7           0        2.021937    1.497969   -0.129295
     33          8           0        1.531375    1.698689   -1.238213
     34          8           0        1.695517    2.077190    0.904430
 ---------------------------------------------------------------------

 SCF Done:  E(RHF) =  -669.536284733     A.U. after   15 cycles
 E2 =    -0.2091406417D+01 EUMP2 =    -0.67162769114988D+03

 The electronic state is 1-A.
 Alpha  occ. eigenvalues --  -20.60868 -20.60862 -15.85890 -11.31224 -11.27790
 Alpha  occ. eigenvalues --  -11.27781 -11.27531 -11.26798 -11.26786 -11.21116
 Alpha  occ. eigenvalues --  -11.20931 -11.20841 -11.20701 -11.20667 -11.20271
 Alpha  occ. eigenvalues --   -1.59925  -1.39481  -1.19391  -1.08795  -1.07835
 Alpha  occ. eigenvalues --   -1.04789  -1.02940  -0.95637  -0.95393  -0.86416
 Alpha  occ. eigenvalues --   -0.86189  -0.82472  -0.79019  -0.77642  -0.77522
 Alpha  occ. eigenvalues --   -0.72119  -0.71243  -0.70502  -0.65048  -0.64795
 Alpha  occ. eigenvalues --   -0.64458  -0.62137  -0.60324  -0.58784  -0.57007
 Alpha  occ. eigenvalues --   -0.55298  -0.54660  -0.53123  -0.52883  -0.52116
 Alpha  occ. eigenvalues --   -0.51809  -0.49343  -0.48881  -0.48854  -0.47335
 Alpha  occ. eigenvalues --   -0.46051  -0.45223  -0.45125  -0.44760  -0.43214
 Alpha  occ. eigenvalues --   -0.37365  -0.36389
 Alpha virt. eigenvalues --    0.04977   0.11262   0.16460   0.21391   0.23468
 Alpha virt. eigenvalues --    0.24887   0.27274   0.27306   0.28058   0.28203
 Alpha virt. eigenvalues --    0.28585   0.30944   0.32036   0.32303   0.32339

 Mulliken charges:
               1
     1  C   -0.298986
     2  C   -0.298388
     3  C   -0.486660
     4  H    0.147368
     5  H    0.155803
     6  H    0.146991
     7  H    0.153837
     8  H    0.177443
     9  H    0.150607
    10  H    0.151248
    11  C   -0.298071
    12  C   -0.299504
    13  C   -0.475434
    14  H    0.147063
    15  H    0.150062
    16  H    0.150790
    17  H    0.153563
    18  H    0.155129
    19  H    0.153780
    20  H    0.159192
    21  C   -0.170587
    22  C   -0.218706
    23  C   -0.171294
    24  C    0.159727
    25  C   -0.170130
    26  C   -0.218706
    27  H    0.225724
    28  H    0.223527
    29  H    0.275633
    30  H    0.276128
    31  H    0.223621
    32  N    0.488976
    33  O   -0.459847
    34  O   -0.459899
 Sum of Mulliken charges =  -0.00000

 Dipole moment (field-independent basis, Debye):
    X=              3.9076    Y=             -3.4470    Z=              0.3162  Tot=              5.2202
 Quadrupole moment (field-independent basis, Debye-Ang):
   XX=            -73.6337   YY=            -98.1614   ZZ=            -89.9765
   XY=             -9.6291   XZ=              1.9320   YZ=              1.6617

 Normal termination of Gaussian 16 at Thu May  6 07:32:30 2021.
