 Gaussian 16, Revision A.03,
 Gaussian 16:  EM64L-G16RevA.03 25-Dec-2016

 -------------
 #p 6-31g* mp2
 -------------

 ------------------------------------------------------
 Input file generated by CHIRIPA (05-May-2021 14:53:16)
 ------------------------------------------------------
 Symbolic Z-matrix:
 Charge =  0 Multiplicity = 1

                         Standard orientation:
 ---------------------------------------------------------------------
 Center     Atomic      Atomic             Coordinates (Angstroms)
 Number     Number       Type             X           Y           Z
 ---------------------------------------------------------------------
      1          6           0        3.800405    0.502836    0.163450
      2          6           0        3.794285    1.833260   -0.590155
      3          6           0        4.632499    2.908540    0.101917
      4          1           0        3.423289    0.664265    1.182600
      5          1           0        4.836692    0.152004    0.265539
      6          1           0        2.758204    2.180791   -0.692004
      7          1           0        4.171280    1.668609   -1.607692
      8          1           0        5.675238    2.586772    0.190019
      9          1           0        4.254132    3.101863    1.110910
     10          1           0        4.614162    3.851305   -0.453707
     11          6           0        2.966832   -0.582143   -0.516037
     12          6           0        2.972952   -1.912567    0.237568
     13          6           0        2.134738   -2.987847   -0.454505
     14          1           0        1.930545   -0.231311   -0.618127
     15          1           0        3.343949   -0.743572   -1.535188
     16          1           0        2.595957   -1.747916    1.255104
     17          1           0        4.009034   -2.260098    0.339416
     18          1           0        2.513105   -3.181170   -1.463497
     19          1           0        1.091999   -2.666079   -0.542607
     20          1           0        2.153075   -3.930612    0.101119
     21          6           0       -4.104815    2.039076   -0.307123
     22          6           0       -4.428951    0.799405   -0.868080
     23          6           0       -3.626461   -0.320015   -0.628375
     24          6           0       -2.502173   -0.163156    0.180736
     25          6           0       -2.152852    1.058606    0.753940
     26          6           0       -2.969800    2.164499    0.500673
     27          1           0       -4.733823    2.903413   -0.498599
     28          1           0       -5.309812    0.699049   -1.495820
     29          1           0       -3.854124   -1.291510   -1.050022
     30          1           0       -1.268379    1.127560    1.375527
     31          1           0       -2.715632    3.126009    0.937643
     32          7           0       -1.644959   -1.341075    0.441680
     33          8           0       -0.659853   -1.176638    1.158034
     34          8           0       -1.974414   -2.406462   -0.075087
 ---------------------------------------------------------------------

 SCF Done:  E(RHF) =  -669.536685718     A.U. after   15 cycles
 E2 =    -0.2092180596D+01 EUMP2 =    -0.67162886631355D+03

 The electronic state is 1-A.
 Alpha  occ. eigenvalues --  -20.61129 -20.61121 -15.86122 -11.31393 -11.27946
 Alpha  occ. eigenvalues --  -11.27939 -11.27670 -11.26935 -11.26926 -11.21177
 Alpha  occ. eigenvalues --  -11.20785 -11.20675 -11.20353 -11.20173 -11.19311
 Alpha  occ. eigenvalues --   -1.60165  -1.39721  -1.19551  -1.08966  -1.07553
 Alpha  occ. eigenvalues --   -1.04937  -1.02558  -0.95816  -0.95012  -0.86340
 Alpha  occ. eigenvalues --   -0.86039  -0.82651  -0.78717  -0.77714  -0.77282
 Alpha  occ. eigenvalues --   -0.72334  -0.71480  -0.70658  -0.65208  -0.64940
 Alpha  occ. eigenvalues --   -0.64176  -0.62284  -0.59931  -0.58500  -0.56612
 Alpha  occ. eigenvalues --   -0.55449  -0.54299  -0.53268  -0.53026  -0.51726
 Alpha  occ. eigenvalues --   -0.51454  -0.49315  -0.49101  -0.48725  -0.46989
 Alpha  occ. eigenvalues --   -0.45752  -0.45214  -0.44799  -0.44604  -0.42833
 Alpha  occ. eigenvalues --   -0.37523  -0.36534
 Alpha virt. eigenvalues --    0.04761   0.11117   0.16254   0.21208   0.23580
 Alpha virt. eigenvalues --    0.25379   0.26990   0.27393   0.28188   0.28453
 Alpha virt. eigenvalues --    0.29023   0.30885   0.32301   0.32413   0.32514

 Mulliken charges:
               1
     1  C   -0.297845
     2  C   -0.298117
     3  C   -0.474967
     4  H    0.149304
     5  H    0.147949
     6  H    0.147165
     7  H    0.151206
     8  H    0.155570
     9  H    0.153213
    10  H    0.157206
    11  C   -0.297415
    12  C   -0.296979
    13  C   -0.478835
    14  H    0.149858
    15  H    0.144756
    16  H    0.160759
    17  H    0.143452
    18  H    0.143558
    19  H    0.175020
    20  H    0.157555
    21  C   -0.170290
    22  C   -0.218590
    23  C   -0.170566
    24  C    0.159791
    25  C   -0.170898
    26  C   -0.218517
    27  H    0.226451
    28  H    0.224250
    29  H    0.276213
    30  H    0.275701
    31  H    0.224278
    32  N    0.487565
    33  O   -0.459889
    34  O   -0.457913
 Sum of Mulliken charges =  -0.00000

 Dipole moment (field-independent basis, Debye):
    X=             -3.4157    Y=              4.0922    Z=             -0.8159  Tot=              5.3925
 Quadrupole moment (field-independent basis, Debye-Ang):
   XX=            -78.6960   YY=            -95.9714   ZZ=            -94.0815
   XY=             -8.8593   XZ=              3.5151   YZ=              2.3914

 Normal termination of Gaussian 16 at Wed May  5 20:20:59 2021.
