 Gaussian 16, Revision A.03,
 Gaussian 16:  EM64L-G16RevA.03 25-Dec-2016

 -------------
 #p 6-31g* mp2
 -------------

 ------------------------------------------------------
 Input file generated by CHIRIPA (05-May-2021 14:51:10)
 ------------------------------------------------------
 Symbolic Z-matrix:
 Charge =  0 Multiplicity = 1

                         Standard orientation:
 ---------------------------------------------------------------------
 Center     Atomic      Atomic             Coordinates (Angstroms)
 Number     Number       Type             X           Y           Z
 ---------------------------------------------------------------------
      1          6           0        2.804059   -0.438116    0.071365
      2          6           0        1.818010    0.083477    1.117134
      3          6           0        0.385025   -0.386154    0.864556
      4          1           0        2.479366   -0.109668   -0.925451
      5          1           0        2.773098   -1.536471    0.064032
      6          1           0        1.851831    1.180487    1.123458
      7          1           0        2.145193   -0.246091    2.111595
      8          1           0        0.329777   -1.479472    0.878830
      9          1           0        0.034748   -0.044789   -0.114921
     10          1           0       -0.303148   -0.001745    1.623837
     11          6           0        4.240766    0.022855    0.310335
     12          6           0        5.226815   -0.498739   -0.735434
     13          6           0        6.659799   -0.029108   -0.482857
     14          1           0        4.271727    1.121209    0.317667
     15          1           0        4.565458   -0.305594    1.307151
     16          1           0        4.899631   -0.169171   -1.729895
     17          1           0        5.192994   -1.595749   -0.741759
     18          1           0        7.010076   -0.370473    0.496621
     19          1           0        6.715047    1.064211   -0.497130
     20          1           0        7.347972   -0.413517   -1.242138
     21          6           0       -3.494161   -0.496052   -0.486592
     22          6           0       -4.374300   -1.501786    0.256267
     23          6           0       -4.307141   -2.905038   -0.347195
     24          1           0       -3.800953   -0.458437   -1.540827
     25          1           0       -2.454417   -0.851321   -0.476118
     26          1           0       -5.411854   -1.144036    0.245589
     27          1           0       -4.065504   -1.536870    1.308897
     28          1           0       -3.281211   -3.286417   -0.322251
     29          1           0       -4.635211   -2.891351   -1.391601
     30          1           0       -4.943751   -3.607918    0.199199
     31          6           0       -3.550663    0.911314    0.104893
     32          6           0       -2.670524    1.917048   -0.637967
     33          6           0       -2.737684    3.320300   -0.034505
     34          1           0       -4.590407    1.266582    0.094418
     35          1           0       -3.243871    0.873699    1.159127
     36          1           0       -2.979321    1.952132   -1.690597
     37          1           0       -1.632971    1.559298   -0.627289
     38          1           0       -2.409612    3.306613    1.009901
     39          1           0       -3.763612    3.701679   -0.059448
     40          1           0       -2.101074    4.023180   -0.580898
 ---------------------------------------------------------------------

 SCF Done:  E(RHF) =  -470.732785826     A.U. after   11 cycles
 E2 =    -0.1583505457D+01 EUMP2 =    -0.47231629128307D+03

 The electronic state is 1-A.
 Alpha  occ. eigenvalues --  -11.21683 -11.21633 -11.21523 -11.21504 -11.21459
 Alpha  occ. eigenvalues --  -11.21397 -11.21310 -11.21233 -11.21184 -11.21095
 Alpha  occ. eigenvalues --  -11.21030 -11.21013  -1.08491  -1.08343  -1.03600
 Alpha  occ. eigenvalues --   -1.03457  -0.96058  -0.95905  -0.87078  -0.86926
 Alpha  occ. eigenvalues --   -0.79679  -0.79523  -0.78315  -0.78140  -0.65173
 Alpha  occ. eigenvalues --   -0.64946  -0.61092  -0.60775  -0.59409  -0.59281
 Alpha  occ. eigenvalues --   -0.57667  -0.57517  -0.55350  -0.55204  -0.52750
 Alpha  occ. eigenvalues --   -0.52618  -0.52476  -0.52335  -0.50079  -0.49809
 Alpha  occ. eigenvalues --   -0.48018  -0.47844  -0.46811  -0.46475  -0.45940
 Alpha  occ. eigenvalues --   -0.45769  -0.45688  -0.45341  -0.43838  -0.43704
 Alpha virt. eigenvalues --    0.20968   0.22917   0.23928   0.24774   0.25570
 Alpha virt. eigenvalues --    0.26394   0.26766   0.27703   0.27807   0.29659
 Alpha virt. eigenvalues --    0.30380   0.31206   0.31834   0.32001   0.32393

 Mulliken charges:
               1
     1  C   -0.298645
     2  C   -0.300848
     3  C   -0.480858
     4  H    0.149948
     5  H    0.149672
     6  H    0.152454
     7  H    0.152314
     8  H    0.155301
     9  H    0.159852
    10  H    0.161135
    11  C   -0.298349
    12  C   -0.299709
    13  C   -0.475748
    14  H    0.149696
    15  H    0.149764
    16  H    0.152061
    17  H    0.151996
    18  H    0.155221
    19  H    0.155260
    20  H    0.160387
    21  C   -0.304427
    22  C   -0.299229
    23  C   -0.475652
    24  H    0.148682
    25  H    0.157682
    26  H    0.151465
    27  H    0.151736
    28  H    0.155136
    29  H    0.154943
    30  H    0.159888
    31  C   -0.297498
    32  C   -0.305741
    33  C   -0.475239
    34  H    0.149127
    35  H    0.149383
    36  H    0.151167
    37  H    0.158294
    38  H    0.154767
    39  H    0.155052
    40  H    0.159561
 Sum of Mulliken charges =  -0.00000

 Dipole moment (field-independent basis, Debye):
    X=              0.0653    Y=             -0.0175    Z=              0.0043  Tot=              0.0677
 Quadrupole moment (field-independent basis, Debye-Ang):
   XX=            -85.5083   YY=            -85.3499   ZZ=            -84.1963
   XY=             -0.6269   XZ=              0.4910   YZ=             -0.9777

 Normal termination of Gaussian 16 at Thu May  6 05:24:10 2021.
