 Gaussian 16, Revision A.03,
 Gaussian 16:  EM64L-G16RevA.03 25-Dec-2016

 -------------
 #p 6-31g* mp2
 -------------

 ------------------------------------------------------
 Input file generated by CHIRIPA (05-May-2021 14:51:13)
 ------------------------------------------------------
 Symbolic Z-matrix:
 Charge =  0 Multiplicity = 1

                         Standard orientation:
 ---------------------------------------------------------------------
 Center     Atomic      Atomic             Coordinates (Angstroms)
 Number     Number       Type             X           Y           Z
 ---------------------------------------------------------------------
      1          6           0       -4.059887   -0.252470    0.320978
      2          6           0       -4.880372    0.356996   -0.816274
      3          6           0       -6.344470    0.579211   -0.435704
      4          1           0       -4.511842   -1.208357    0.619242
      5          1           0       -4.115671    0.406868    1.198221
      6          1           0       -4.821926   -0.302608   -1.691558
      7          1           0       -4.426301    1.311451   -1.111994
      8          1           0       -6.421207    1.254981    0.422228
      9          1           0       -6.819079   -0.368249   -0.160628
     10          1           0       -6.912583    1.015580   -1.263164
     11          6           0       -2.594174   -0.480602   -0.044217
     12          6           0       -1.773689   -1.090068    1.093034
     13          6           0       -0.309592   -1.312283    0.712464
     14          1           0       -2.538390   -1.139941   -0.921461
     15          1           0       -2.142219    0.475285   -0.342482
     16          1           0       -2.227760   -2.044523    1.388755
     17          1           0       -1.832135   -0.430464    1.968318
     18          1           0        0.165018   -0.364824    0.437389
     19          1           0       -0.232855   -1.988054   -0.145467
     20          1           0        0.258521   -1.748652    1.539924
     21          6           0        2.822784    0.929956   -0.030094
     22          6           0        3.463353    2.317810    0.008856
     23          6           0        2.441800    3.434504    0.226157
     24          1           0        2.071272    0.902308   -0.830976
     25          1           0        2.283035    0.756344    0.911141
     26          1           0        4.002889    2.488203   -0.931614
     27          1           0        4.213562    2.342097    0.809613
     28          1           0        1.910915    3.292073    1.172980
     29          1           0        1.699044    3.439008   -0.578140
     30          1           0        2.921279    4.418049    0.250672
     31          6           0        3.831277   -0.196883   -0.246666
     32          6           0        3.190709   -1.584738   -0.285617
     33          6           0        4.212261   -2.701432   -0.502917
     34          1           0        4.371025   -0.023271   -1.187902
     35          1           0        4.582788   -0.169237    0.554215
     36          1           0        2.440499   -1.609025   -1.086374
     37          1           0        2.651173   -1.755131    0.654853
     38          1           0        4.955018   -2.705936    0.301379
     39          1           0        4.743147   -2.559000   -1.449740
     40          1           0        3.732783   -3.684977   -0.527433
 ---------------------------------------------------------------------

 SCF Done:  E(RHF) =  -470.731738864     A.U. after   11 cycles
 E2 =    -0.1584149365D+01 EUMP2 =    -0.47231588822918D+03

 The electronic state is 1-A.
 Alpha  occ. eigenvalues --  -11.21597 -11.21580 -11.21504 -11.21441 -11.21368
 Alpha  occ. eigenvalues --  -11.21368 -11.21308 -11.21302 -11.21098 -11.21055
 Alpha  occ. eigenvalues --  -11.20988 -11.20891  -1.08425  -1.08358  -1.03515
 Alpha  occ. eigenvalues --   -1.03448  -0.95966  -0.95916  -0.86997  -0.86932
 Alpha  occ. eigenvalues --   -0.79698  -0.79473  -0.78321  -0.78031  -0.65056
 Alpha  occ. eigenvalues --   -0.64994  -0.60901  -0.60880  -0.59404  -0.59218
 Alpha  occ. eigenvalues --   -0.57657  -0.57473  -0.55268  -0.55184  -0.52789
 Alpha  occ. eigenvalues --   -0.52595  -0.52364  -0.52307  -0.49909  -0.49869
 Alpha  occ. eigenvalues --   -0.47944  -0.47844  -0.46632  -0.46571  -0.45948
 Alpha  occ. eigenvalues --   -0.45710  -0.45624  -0.45305  -0.43762  -0.43638
 Alpha virt. eigenvalues --    0.22083   0.23116   0.24038   0.24312   0.26019
 Alpha virt. eigenvalues --    0.26247   0.26701   0.27731   0.27922   0.29722
 Alpha virt. eigenvalues --    0.29965   0.30536   0.31693   0.32106   0.32178

 Mulliken charges:
               1
     1  C   -0.298132
     2  C   -0.299587
     3  C   -0.475669
     4  H    0.149580
     5  H    0.149464
     6  H    0.151771
     7  H    0.151861
     8  H    0.155175
     9  H    0.155133
    10  H    0.160149
    11  C   -0.298443
    12  C   -0.300950
    13  C   -0.480158
    14  H    0.149087
    15  H    0.149444
    16  H    0.151103
    17  H    0.150964
    18  H    0.164992
    19  H    0.155077
    20  H    0.158040
    21  C   -0.302390
    22  C   -0.298571
    23  C   -0.476003
    24  H    0.150070
    25  H    0.152512
    26  H    0.151908
    27  H    0.151905
    28  H    0.154766
    29  H    0.154759
    30  H    0.160526
    31  C   -0.297792
    32  C   -0.302902
    33  C   -0.475441
    34  H    0.148905
    35  H    0.148972
    36  H    0.153072
    37  H    0.158100
    38  H    0.154444
    39  H    0.154458
    40  H    0.159802
 Sum of Mulliken charges =  -0.00000

 Dipole moment (field-independent basis, Debye):
    X=              0.0248    Y=              0.0089    Z=              0.0003  Tot=              0.0263
 Quadrupole moment (field-independent basis, Debye-Ang):
   XX=            -86.5561   YY=            -84.8856   ZZ=            -83.7134
   XY=              1.0224   XZ=              0.5131   YZ=              0.0800

 Normal termination of Gaussian 16 at Wed May  5 23:13:12 2021.
