 Gaussian 16, Revision A.03,
 Gaussian 16:  EM64L-G16RevA.03 25-Dec-2016

 -------------
 #p 6-31g* mp2
 -------------

 ------------------------------------------------------
 Input file generated by CHIRIPA (05-May-2021 14:55:19)
 ------------------------------------------------------
 Symbolic Z-matrix:
 Charge =  0 Multiplicity = 1

                         Standard orientation:
 ---------------------------------------------------------------------
 Center     Atomic      Atomic             Coordinates (Angstroms)
 Number     Number       Type             X           Y           Z
 ---------------------------------------------------------------------
      1          6           0       -1.001879   -2.315097   -0.178171
      2          6           0       -2.036515   -2.067091   -1.086214
      3          6           0       -2.832224   -0.924391   -0.961183
      4          6           0       -2.564250   -0.047013    0.088431
      5          6           0       -1.540783   -0.266381    1.009127
      6          6           0       -0.757745   -1.415537    0.864762
      7          1           0       -0.388675   -3.205282   -0.282808
      8          1           0       -2.228400   -2.763955   -1.897143
      9          1           0       -3.639704   -0.707927   -1.650049
     10          1           0       -1.373610    0.446684    1.807255
     11          1           0        0.045085   -1.605578    1.571439
     12          7           0       -3.399924    1.166130    0.231029
     13          8           0       -3.143486    1.923570    1.164389
     14          8           0       -4.295540    1.336580   -0.593262
     15          6           0        3.229958    1.021124    0.183339
     16          6           0        2.908529    2.118313   -0.831966
     17          6           0        3.161689    3.523187   -0.284210
     18          1           0        2.625506    1.178259    1.087160
     19          1           0        4.281035    1.112007    0.490539
     20          1           0        1.858747    2.024534   -1.138199
     21          1           0        3.513675    1.958439   -1.733549
     22          1           0        4.211280    3.640924    0.004053
     23          1           0        2.546949    3.707396    0.602786
     24          1           0        2.925401    4.292074   -1.026396
     25          6           0        2.981937   -0.388924   -0.349556
     26          6           0        3.303366   -1.486113    0.665749
     27          6           0        3.050205   -2.890985    0.117993
     28          1           0        1.930859   -0.479806   -0.656756
     29          1           0        3.586388   -0.546058   -1.253377
     30          1           0        2.698219   -1.326238    1.567332
     31          1           0        4.353148   -1.392334    0.971983
     32          1           0        3.664945   -3.075195   -0.769003
     33          1           0        2.000613   -3.008724   -0.170270
     34          1           0        3.286494   -3.659873    0.860179
 ---------------------------------------------------------------------

 SCF Done:  E(RHF) =  -669.535128713     A.U. after   15 cycles
 E2 =    -0.2093195867D+01 EUMP2 =    -0.67162832457934D+03

 The electronic state is 1-A.
 Alpha  occ. eigenvalues --  -20.60826 -20.60821 -15.85880 -11.31270 -11.27839
 Alpha  occ. eigenvalues --  -11.27829 -11.27567 -11.26854 -11.26841 -11.22487
 Alpha  occ. eigenvalues --  -11.22138 -11.21915 -11.21837 -11.21772 -11.21170
 Alpha  occ. eigenvalues --   -1.59901  -1.39453  -1.19445  -1.08986  -1.08820
 Alpha  occ. eigenvalues --   -1.04850  -1.04088  -0.96535  -0.95664  -0.87557
 Alpha  occ. eigenvalues --   -0.86243  -0.82497  -0.80174  -0.78722  -0.77539
 Alpha  occ. eigenvalues --   -0.72097  -0.71224  -0.70576  -0.65730  -0.65092
 Alpha  occ. eigenvalues --   -0.64777  -0.62229  -0.61425  -0.59933  -0.58124
 Alpha  occ. eigenvalues --   -0.55943  -0.55271  -0.53240  -0.53174  -0.52952
 Alpha  occ. eigenvalues --   -0.52920  -0.50485  -0.48858  -0.48851  -0.48467
 Alpha  occ. eigenvalues --   -0.47208  -0.46275  -0.46160  -0.44854  -0.44306
 Alpha  occ. eigenvalues --   -0.37394  -0.36433
 Alpha virt. eigenvalues --    0.04967   0.11094   0.16377   0.19239   0.22871
 Alpha virt. eigenvalues --    0.23971   0.25028   0.25880   0.27145   0.28542
 Alpha virt. eigenvalues --    0.28759   0.29719   0.31025   0.31581   0.32199

 Mulliken charges:
               1
     1  C   -0.174310
     2  C   -0.218627
     3  C   -0.170785
     4  C    0.158625
     5  C   -0.172699
     6  C   -0.220199
     7  H    0.229590
     8  H    0.224185
     9  H    0.275962
    10  H    0.275837
    11  H    0.228840
    12  N    0.488066
    13  O   -0.460278
    14  O   -0.460079
    15  C   -0.297567
    16  C   -0.300560
    17  C   -0.476158
    18  H    0.146917
    19  H    0.150425
    20  H    0.154623
    21  H    0.151973
    22  H    0.154605
    23  H    0.157162
    24  H    0.162746
    25  C   -0.303649
    26  C   -0.300592
    27  C   -0.479806
    28  H    0.154492
    29  H    0.151097
    30  H    0.144505
    31  H    0.157136
    32  H    0.160961
    33  H    0.145521
    34  H    0.162042
 Sum of Mulliken charges =  -0.00000

 Dipole moment (field-independent basis, Debye):
    X=              2.9832    Y=             -4.1946    Z=             -0.5694  Tot=              5.1787
 Quadrupole moment (field-independent basis, Debye-Ang):
   XX=           -107.7382   YY=            -95.6710   ZZ=            -91.8514
   XY=             11.6359   XZ=              3.5471   YZ=              0.7099

 Normal termination of Gaussian 16 at Thu May  6 02:55:40 2021.
