 Gaussian 16, Revision A.03,
 Gaussian 16:  EM64L-G16RevA.03 25-Dec-2016

 -------------
 #p 6-31g* mp2
 -------------

 ------------------------------------------------------
 Input file generated by CHIRIPA (05-May-2021 14:53:14)
 ------------------------------------------------------
 Symbolic Z-matrix:
 Charge =  0 Multiplicity = 1

                         Standard orientation:
 ---------------------------------------------------------------------
 Center     Atomic      Atomic             Coordinates (Angstroms)
 Number     Number       Type             X           Y           Z
 ---------------------------------------------------------------------
      1          6           0        4.057607   -0.700605   -0.348066
      2          6           0        3.037673   -1.660896    0.264766
      3          6           0        3.266692   -3.113220   -0.154875
      4          1           0        4.013438   -0.778712   -1.443006
      5          1           0        5.068758   -1.013429   -0.052924
      6          1           0        2.028665   -1.345542   -0.030309
      7          1           0        3.084142   -1.580354    1.358370
      8          1           0        4.261291   -3.451106    0.153679
      9          1           0        3.199818   -3.214959   -1.242891
     10          1           0        2.526457   -3.782473    0.294582
     11          6           0        3.841764    0.755034    0.062121
     12          6           0        4.861698    1.715325   -0.550711
     13          6           0        4.632679    3.167649   -0.131069
     14          1           0        2.830613    1.067858   -0.233021
     15          1           0        3.885933    0.833141    1.157061
     16          1           0        4.815229    1.634783   -1.644315
     17          1           0        5.870706    1.399971   -0.255635
     18          1           0        4.699553    3.269388    0.956946
     19          1           0        3.638080    3.505535   -0.439624
     20          1           0        5.372914    3.836902   -0.580527
     21          6           0       -0.969952   -1.213671    0.795603
     22          6           0       -1.308117    0.007375    1.388233
     23          6           0       -2.477952    0.676893    1.017044
     24          6           0       -3.290234    0.094017    0.045580
     25          6           0       -2.980529   -1.121201   -0.563207
     26          6           0       -1.805763   -1.773076   -0.176512
     27          1           0       -0.059282   -1.726916    1.089973
     28          1           0       -0.660907    0.444177    2.143461
     29          1           0       -2.763765    1.623370    1.459662
     30          1           0       -3.645637   -1.531748   -1.313206
     31          1           0       -1.545657   -2.721232   -0.638452
     32          7           0       -4.531295    0.793466   -0.355589
     33          8           0       -5.230084    0.258947   -1.213855
     34          8           0       -4.781750    1.862970    0.195837
 ---------------------------------------------------------------------

 SCF Done:  E(RHF) =  -669.535545786     A.U. after   15 cycles
 E2 =    -0.2091395794D+01 EUMP2 =    -0.67162694158026D+03

 The electronic state is 1-A.
 Alpha  occ. eigenvalues --  -20.60754 -20.60749 -15.85808 -11.31174 -11.27740
 Alpha  occ. eigenvalues --  -11.27735 -11.27427 -11.26751 -11.26738 -11.22679
 Alpha  occ. eigenvalues --  -11.22193 -11.22144 -11.22087 -11.22060 -11.21520
 Alpha  occ. eigenvalues --   -1.59830  -1.39383  -1.19343  -1.09212  -1.08733
 Alpha  occ. eigenvalues --   -1.04744  -1.04309  -0.96730  -0.95570  -0.87746
 Alpha  occ. eigenvalues --   -0.86138  -0.82408  -0.80412  -0.79011  -0.77452
 Alpha  occ. eigenvalues --   -0.72025  -0.71153  -0.70453  -0.65832  -0.64990
 Alpha  occ. eigenvalues --   -0.64743  -0.62090  -0.61698  -0.60149  -0.58361
 Alpha  occ. eigenvalues --   -0.56002  -0.55223  -0.53439  -0.53161  -0.53070
 Alpha  occ. eigenvalues --   -0.52831  -0.50659  -0.48800  -0.48780  -0.48678
 Alpha  occ. eigenvalues --   -0.47424  -0.46540  -0.46440  -0.44789  -0.44549
 Alpha  occ. eigenvalues --   -0.37299  -0.36353
 Alpha virt. eigenvalues --    0.05043   0.11296   0.16425   0.20274   0.22419
 Alpha virt. eigenvalues --    0.23687   0.25929   0.26018   0.26604   0.27658
 Alpha virt. eigenvalues --    0.29073   0.30385   0.30698   0.31256   0.32474

 Mulliken charges:
               1
     1  C   -0.297651
     2  C   -0.307725
     3  C   -0.476380
     4  H    0.152636
     5  H    0.152227
     6  H    0.149702
     7  H    0.149782
     8  H    0.160310
     9  H    0.158545
    10  H    0.155198
    11  C   -0.299763
    12  C   -0.300173
    13  C   -0.476355
    14  H    0.150305
    15  H    0.148010
    16  H    0.153780
    17  H    0.152989
    18  H    0.154803
    19  H    0.156270
    20  H    0.162548
    21  C   -0.173585
    22  C   -0.220634
    23  C   -0.170995
    24  C    0.158541
    25  C   -0.170861
    26  C   -0.220727
    27  H    0.233284
    28  H    0.224161
    29  H    0.275529
    30  H    0.275484
    31  H    0.223646
    32  N    0.488047
    33  O   -0.460494
    34  O   -0.460454
 Sum of Mulliken charges =  -0.00000

 Dipole moment (field-independent basis, Debye):
    X=              4.5527    Y=             -2.4237    Z=              1.3559  Tot=              5.3329
 Quadrupole moment (field-independent basis, Debye-Ang):
   XX=           -122.9847   YY=            -93.9102   ZZ=            -92.4056
   XY=              9.4282   XZ=             -3.4263   YZ=              2.4980

 Normal termination of Gaussian 16 at Thu May  6 17:07:53 2021.
