 Gaussian 16, Revision A.03,
 Gaussian 16:  EM64L-G16RevA.03 25-Dec-2016

 -------------
 #p 6-31g* mp2
 -------------

 ------------------------------------------------------
 Input file generated by CHIRIPA (05-May-2021 14:53:15)
 ------------------------------------------------------
 Symbolic Z-matrix:
 Charge =  0 Multiplicity = 1

                         Standard orientation:
 ---------------------------------------------------------------------
 Center     Atomic      Atomic             Coordinates (Angstroms)
 Number     Number       Type             X           Y           Z
 ---------------------------------------------------------------------
      1          6           0        3.923770    0.444790   -0.290277
      2          6           0        4.188463   -1.059756   -0.355580
      3          6           0        5.502698   -1.398765   -1.059607
      4          1           0        3.910964    0.853000   -1.310152
      5          1           0        4.757449    0.934374    0.231913
      6          1           0        3.353868   -1.546525   -0.876273
      7          1           0        4.200450   -1.464465    0.664559
      8          1           0        6.348725   -0.939663   -0.538010
      9          1           0        5.497333   -1.022190   -2.087597
     10          1           0        5.671995   -2.479478   -1.095069
     11          6           0        2.613603    0.799548    0.410677
     12          6           0        2.348909    2.304093    0.475980
     13          6           0        1.034675    2.643103    1.180008
     14          1           0        1.779924    0.309963   -0.111512
     15          1           0        2.626409    0.391337    1.430553
     16          1           0        2.336922    2.708802   -0.544158
     17          1           0        3.183505    2.790863    0.996674
     18          1           0        1.040040    2.266527    2.207998
     19          1           0        0.188647    2.184000    0.658411
     20          1           0        0.865378    3.723816    1.215469
     21          6           0       -0.806978   -1.769425    1.244488
     22          6           0       -0.550533   -1.367579   -0.070533
     23          6           0       -1.511000   -0.656038   -0.795624
     24          6           0       -2.722524   -0.361999   -0.171890
     25          6           0       -3.007773   -0.748530    1.136741
     26          6           0       -2.032619   -1.459164    1.842873
     27          1           0       -0.055159   -2.321814    1.800392
     28          1           0        0.400427   -1.607136   -0.537793
     29          1           0       -1.338717   -0.332733   -1.815041
     30          1           0       -3.965106   -0.495029    1.575683
     31          1           0       -2.234529   -1.769963    2.863990
     32          7           0       -3.747102    0.390797   -0.929477
     33          8           0       -4.806546    0.637437   -0.357301
     34          8           0       -3.471323    0.719946   -2.081103
 ---------------------------------------------------------------------

 SCF Done:  E(RHF) =  -669.534953895     A.U. after   15 cycles
 E2 =    -0.2093076484D+01 EUMP2 =    -0.67162803037978D+03

 The electronic state is 1-A.
 Alpha  occ. eigenvalues --  -20.60787 -20.60781 -15.85841 -11.31228 -11.27795
 Alpha  occ. eigenvalues --  -11.27774 -11.27506 -11.26796 -11.26783 -11.22440
 Alpha  occ. eigenvalues --  -11.22014 -11.21978 -11.21918 -11.21705 -11.21274
 Alpha  occ. eigenvalues --   -1.59862  -1.39415  -1.19394  -1.09036  -1.08774
 Alpha  occ. eigenvalues --   -1.04804  -1.04056  -0.96482  -0.95611  -0.87500
 Alpha  occ. eigenvalues --   -0.86196  -0.82452  -0.80149  -0.78875  -0.77488
 Alpha  occ. eigenvalues --   -0.72058  -0.71186  -0.70482  -0.65732  -0.65041
 Alpha  occ. eigenvalues --   -0.64766  -0.62153  -0.61458  -0.59867  -0.58099
 Alpha  occ. eigenvalues --   -0.55771  -0.55277  -0.53208  -0.53119  -0.52989
 Alpha  occ. eigenvalues --   -0.52803  -0.50428  -0.48822  -0.48813  -0.48446
 Alpha  occ. eigenvalues --   -0.47198  -0.46361  -0.46290  -0.44817  -0.44321
 Alpha  occ. eigenvalues --   -0.37338  -0.36342
 Alpha virt. eigenvalues --    0.05023   0.11188   0.16429   0.19674   0.22803
 Alpha virt. eigenvalues --    0.23588   0.24792   0.26233   0.27383   0.28323
 Alpha virt. eigenvalues --    0.29410   0.30092   0.31237   0.31408   0.31788

 Mulliken charges:
               1
     1  C   -0.298390
     2  C   -0.300419
     3  C   -0.475728
     4  H    0.151651
     5  H    0.152331
     6  H    0.143614
     7  H    0.150691
     8  H    0.157933
     9  H    0.157400
    10  H    0.160819
    11  C   -0.301962
    12  C   -0.299919
    13  C   -0.476817
    14  H    0.147801
    15  H    0.146366
    16  H    0.153755
    17  H    0.152704
    18  H    0.152937
    19  H    0.158578
    20  H    0.162785
    21  C   -0.171402
    22  C   -0.216738
    23  C   -0.174223
    24  C    0.158918
    25  C   -0.170545
    26  C   -0.218254
    27  H    0.226475
    28  H    0.227105
    29  H    0.275667
    30  H    0.275787
    31  H    0.223607
    32  N    0.488111
    33  O   -0.460145
    34  O   -0.460492
 Sum of Mulliken charges =  -0.00000

 Dipole moment (field-independent basis, Debye):
    X=              3.6489    Y=             -2.6036    Z=              2.6941  Tot=              5.2299
 Quadrupole moment (field-independent basis, Debye-Ang):
   XX=           -113.1662   YY=            -93.6389   ZZ=            -92.2249
   XY=              6.5929   XZ=             -9.9957   YZ=             -0.9528

 Normal termination of Gaussian 16 at Thu May  6 20:24:25 2021.
