 Gaussian 16, Revision A.03,
 Gaussian 16:  EM64L-G16RevA.03 25-Dec-2016

 -------------
 #p 6-31g* mp2
 -------------

 ------------------------------------------------------
 Input file generated by CHIRIPA (05-May-2021 14:51:11)
 ------------------------------------------------------
 Symbolic Z-matrix:
 Charge =  0 Multiplicity = 1

                         Standard orientation:
 ---------------------------------------------------------------------
 Center     Atomic      Atomic             Coordinates (Angstroms)
 Number     Number       Type             X           Y           Z
 ---------------------------------------------------------------------
      1          6           0       -2.957096    0.094100    0.028066
      2          6           0       -3.442370   -0.831450   -1.088111
      3          6           0       -4.487786   -0.173356   -1.989118
      4          1           0       -3.817606    0.410809    0.633179
      5          1           0       -2.536248    1.005803   -0.418118
      6          1           0       -3.860918   -1.741740   -0.639999
      7          1           0       -2.580579   -1.146145   -1.690522
      8          1           0       -4.077672    0.724308   -2.463046
      9          1           0       -5.365286    0.125329   -1.406554
     10          1           0       -4.820815   -0.852567   -2.780082
     11          6           0       -1.911703   -0.549582    0.937217
     12          6           0       -1.426428    0.375968    2.053394
     13          6           0       -0.381013   -0.282126    2.954401
     14          1           0       -2.332550   -1.461285    1.383400
     15          1           0       -1.051192   -0.866291    0.332103
     16          1           0       -2.288219    0.690663    2.655804
     17          1           0       -1.007880    1.286259    1.605282
     18          1           0        0.496488   -0.580811    2.371836
     19          1           0       -0.791126   -1.179790    3.428328
     20          1           0       -0.047983    0.397085    3.745365
     21          6           0        2.364279   -0.479608   -0.203048
     22          6           0        3.247466   -1.503889   -0.916359
     23          6           0        3.096073   -2.914295   -0.345719
     24          1           0        2.613032   -0.472410    0.867006
     25          1           0        1.314561   -0.795673   -0.277806
     26          1           0        4.295078   -1.185268   -0.841468
     27          1           0        2.996716   -1.508513   -1.984871
     28          1           0        2.060001   -3.256702   -0.434685
     29          1           0        3.365740   -2.931620    0.715215
     30          1           0        3.736283   -3.630449   -0.870233
     31          6           0        2.504519    0.935090   -0.762234
     32          6           0        1.621331    1.959371   -0.048924
     33          6           0        1.772726    3.369777   -0.619563
     34          1           0        3.554238    1.251154   -0.687476
     35          1           0        2.255767    0.927891   -1.832289
     36          1           0        1.872082    1.963995    1.019589
     37          1           0        0.573721    1.640749   -0.123815
     38          1           0        1.503059    3.387102   -1.680497
     39          1           0        2.808798    3.712183   -0.530597
     40          1           0        1.132515    4.085930   -0.095049
 ---------------------------------------------------------------------

 SCF Done:  E(RHF) =  -470.732184110     A.U. after   11 cycles
 E2 =    -0.1585476946D+01 EUMP2 =    -0.47231766105600D+03

 The electronic state is 1-A.
 Alpha  occ. eigenvalues --  -11.21666 -11.21662 -11.21626 -11.21491 -11.21477
 Alpha  occ. eigenvalues --  -11.21431 -11.21403 -11.21327 -11.21136 -11.21111
 Alpha  occ. eigenvalues --  -11.21090 -11.20917  -1.08549  -1.08387  -1.03610
 Alpha  occ. eigenvalues --   -1.03481  -0.96052  -0.95942  -0.87071  -0.86957
 Alpha  occ. eigenvalues --   -0.79747  -0.79497  -0.78398  -0.78199  -0.65348
 Alpha  occ. eigenvalues --   -0.64878  -0.61053  -0.60858  -0.59437  -0.59290
 Alpha  occ. eigenvalues --   -0.57704  -0.57522  -0.55393  -0.55195  -0.52734
 Alpha  occ. eigenvalues --   -0.52633  -0.52495  -0.52365  -0.50006  -0.49912
 Alpha  occ. eigenvalues --   -0.48088  -0.47921  -0.46816  -0.46478  -0.46273
 Alpha  occ. eigenvalues --   -0.45755  -0.45569  -0.45223  -0.43856  -0.43750
 Alpha virt. eigenvalues --    0.20038   0.23137   0.23781   0.23936   0.25000
 Alpha virt. eigenvalues --    0.26164   0.26581   0.28163   0.28571   0.30174
 Alpha virt. eigenvalues --    0.30921   0.31037   0.31689   0.31757   0.32289

 Mulliken charges:
               1
     1  C   -0.298810
     2  C   -0.299423
     3  C   -0.475690
     4  H    0.150169
     5  H    0.148995
     6  H    0.152221
     7  H    0.150999
     8  H    0.155090
     9  H    0.155378
    10  H    0.160263
    11  C   -0.305641
    12  C   -0.303130
    13  C   -0.481784
    14  H    0.149903
    15  H    0.154637
    16  H    0.151411
    17  H    0.156991
    18  H    0.162702
    19  H    0.154163
    20  H    0.158810
    21  C   -0.309171
    22  C   -0.298735
    23  C   -0.476172
    24  H    0.152302
    25  H    0.156660
    26  H    0.152259
    27  H    0.151933
    28  H    0.155379
    29  H    0.155523
    30  H    0.160630
    31  C   -0.297257
    32  C   -0.306448
    33  C   -0.475754
    34  H    0.149953
    35  H    0.149415
    36  H    0.153726
    37  H    0.157311
    38  H    0.155111
    39  H    0.155627
    40  H    0.160454
 Sum of Mulliken charges =  -0.00000

 Dipole moment (field-independent basis, Debye):
    X=              0.0558    Y=              0.0064    Z=             -0.0217  Tot=              0.0602
 Quadrupole moment (field-independent basis, Debye-Ang):
   XX=            -84.1653   YY=            -85.8540   ZZ=            -84.7507
   XY=              0.6536   XZ=             -0.4544   YZ=              0.5029

 Normal termination of Gaussian 16 at Wed May  5 16:44:01 2021.
