 Gaussian 16, Revision A.03,
 Gaussian 16:  EM64L-G16RevA.03 25-Dec-2016

 -------------
 #p 6-31g* mp2
 -------------

 ------------------------------------------------------
 Input file generated by CHIRIPA (05-May-2021 14:51:12)
 ------------------------------------------------------
 Symbolic Z-matrix:
 Charge =  0 Multiplicity = 1

                         Standard orientation:
 ---------------------------------------------------------------------
 Center     Atomic      Atomic             Coordinates (Angstroms)
 Number     Number       Type             X           Y           Z
 ---------------------------------------------------------------------
      1          6           0        2.970681    1.437692    0.232818
      2          6           0        1.793649    2.118035   -0.466978
      3          6           0        1.514802    3.520665    0.074010
      4          1           0        2.765969    1.382481    1.310774
      5          1           0        3.867711    2.061566    0.116568
      6          1           0        0.899420    1.492389   -0.350625
      7          1           0        2.001102    2.171462   -1.543419
      8          1           0        2.390289    4.164958   -0.056415
      9          1           0        1.282347    3.482027    1.143156
     10          1           0        0.669568    3.988610   -0.440253
     11          6           0        3.261773    0.034750   -0.297037
     12          6           0        4.438805   -0.645592    0.402759
     13          6           0        4.717652   -2.048222   -0.138229
     14          1           0        2.364744   -0.589123   -0.180787
     15          1           0        3.466485    0.089962   -1.374993
     16          1           0        4.231352   -0.699019    1.479200
     17          1           0        5.333034   -0.019946    0.286406
     18          1           0        4.950107   -2.009584   -1.207375
     19          1           0        3.842165   -2.692515   -0.007804
     20          1           0        5.562886   -2.516167    0.376034
     21          6           0       -3.778000   -0.527603   -0.287213
     22          6           0       -4.504006    0.573541    0.486338
     23          6           0       -5.826268    0.980115   -0.164904
     24          1           0       -3.592265   -0.184121   -1.314086
     25          1           0       -4.434548   -1.405253   -0.365129
     26          1           0       -3.845761    1.448356    0.563969
     27          1           0       -4.687865    0.227471    1.511545
     28          1           0       -6.504173    0.122771   -0.228207
     29          1           0       -5.657285    1.350594   -1.181167
     30          1           0       -6.328519    1.768435    0.404445
     31          6           0       -2.454455   -0.944840    0.351432
     32          6           0       -1.728447   -2.045984   -0.422120
     33          6           0       -0.406186   -2.452558    0.229123
     34          1           0       -1.797906   -0.067190    0.429349
     35          1           0       -2.640189   -1.288323    1.378305
     36          1           0       -1.544589   -1.699913   -1.447325
     37          1           0       -2.386693   -2.920799   -0.499749
     38          1           0       -0.575169   -2.823037    1.245386
     39          1           0        0.271719   -1.595214    0.292426
     40          1           0        0.096065   -3.240878   -0.340225
 ---------------------------------------------------------------------

 SCF Done:  E(RHF) =  -470.733375451     A.U. after   11 cycles
 E2 =    -0.1583081550D+01 EUMP2 =    -0.47231645700094D+03

 The electronic state is 1-A.
 Alpha  occ. eigenvalues --  -11.21655 -11.21646 -11.21620 -11.21576 -11.21446
 Alpha  occ. eigenvalues --  -11.21404 -11.21382 -11.21330 -11.21131 -11.21108
 Alpha  occ. eigenvalues --  -11.21084 -11.21032  -1.08470  -1.08433  -1.03567
 Alpha  occ. eigenvalues --   -1.03533  -0.96027  -0.95973  -0.87047  -0.86987
 Alpha  occ. eigenvalues --   -0.79641  -0.79590  -0.78310  -0.78218  -0.65191
 Alpha  occ. eigenvalues --   -0.64990  -0.60974  -0.60924  -0.59390  -0.59342
 Alpha  occ. eigenvalues --   -0.57659  -0.57567  -0.55428  -0.55163  -0.52713
 Alpha  occ. eigenvalues --   -0.52677  -0.52490  -0.52364  -0.50078  -0.49826
 Alpha  occ. eigenvalues --   -0.47971  -0.47910  -0.46753  -0.46627  -0.45949
 Alpha  occ. eigenvalues --   -0.45784  -0.45763  -0.45397  -0.43820  -0.43787
 Alpha virt. eigenvalues --    0.19911   0.23025   0.23997   0.24176   0.25639
 Alpha virt. eigenvalues --    0.26824   0.27182   0.27391   0.27755   0.29422
 Alpha virt. eigenvalues --    0.30607   0.31571   0.31736   0.31881   0.31977

 Mulliken charges:
               1
     1  C   -0.297747
     2  C   -0.301697
     3  C   -0.475688
     4  H    0.149663
     5  H    0.149754
     6  H    0.151889
     7  H    0.152251
     8  H    0.155560
     9  H    0.155430
    10  H    0.160051
    11  C   -0.307772
    12  C   -0.298898
    13  C   -0.476211
    14  H    0.158597
    15  H    0.149532
    16  H    0.151968
    17  H    0.151730
    18  H    0.154907
    19  H    0.156258
    20  H    0.160080
    21  C   -0.298314
    22  C   -0.299765
    23  C   -0.475740
    24  H    0.149924
    25  H    0.149690
    26  H    0.152110
    27  H    0.151927
    28  H    0.155199
    29  H    0.155265
    30  H    0.160353
    31  C   -0.300106
    32  C   -0.299095
    33  C   -0.483568
    34  H    0.150397
    35  H    0.149796
    36  H    0.152570
    37  H    0.152263
    38  H    0.155493
    39  H    0.161250
    40  H    0.160691
 Sum of Mulliken charges =  -0.00000

 Dipole moment (field-independent basis, Debye):
    X=             -0.0137    Y=             -0.0105    Z=             -0.0012  Tot=              0.0173
 Quadrupole moment (field-independent basis, Debye-Ang):
   XX=            -85.1789   YY=            -85.3124   ZZ=            -84.1894
   XY=              1.3526   XZ=             -0.9615   YZ=             -0.8258

 Normal termination of Gaussian 16 at Wed May  5 19:54:15 2021.
