 Gaussian 16, Revision A.03,
 Gaussian 16:  EM64L-G16RevA.03 25-Dec-2016

 -------------
 #p 6-31g* mp2
 -------------

 ------------------------------------------------------
 Input file generated by CHIRIPA (05-May-2021 14:51:14)
 ------------------------------------------------------
 Symbolic Z-matrix:
 Charge =  0 Multiplicity = 1

                         Standard orientation:
 ---------------------------------------------------------------------
 Center     Atomic      Atomic             Coordinates (Angstroms)
 Number     Number       Type             X           Y           Z
 ---------------------------------------------------------------------
      1          6           0       -3.786042   -0.694030   -0.180576
      2          6           0       -4.551248    0.504043    0.382509
      3          6           0       -6.037142    0.478442    0.022983
      4          1           0       -3.900133   -0.713305   -1.273076
      5          1           0       -4.239801   -1.620623    0.197476
      6          1           0       -4.095322    1.428131    0.004609
      7          1           0       -4.435164    0.520578    1.473777
      8          1           0       -6.512536   -0.426977    0.413901
      9          1           0       -6.170763    0.485732   -1.063615
     10          1           0       -6.564979    1.343924    0.435522
     11          6           0       -2.299298   -0.682580    0.170406
     12          6           0       -1.534091   -1.880653   -0.392679
     13          6           0       -0.048198   -1.855052   -0.033153
     14          1           0       -1.845539    0.244013   -0.207646
     15          1           0       -2.185207   -0.663305    1.262906
     16          1           0       -1.650176   -1.897188   -1.483947
     17          1           0       -1.990018   -2.804741   -0.014779
     18          1           0        0.085423   -1.862342    1.053445
     19          1           0        0.427197   -0.949633   -0.424071
     20          1           0        0.479640   -2.720534   -0.445692
     21          6           0        2.679292    1.266586    0.347107
     22          6           0        1.986224    2.212416   -0.634243
     23          6           0        1.263636    3.364195    0.065091
     24          1           0        1.933928    0.863174    1.046133
     25          1           0        3.397335    1.838151    0.951361
     26          1           0        1.270699    1.638984   -1.237413
     27          1           0        2.733294    2.613475   -1.331134
     28          1           0        1.968605    3.961016    0.652817
     29          1           0        0.497700    2.980989    0.747070
     30          1           0        0.775211    4.027998   -0.655095
     31          6           0        3.406048    0.110024   -0.336937
     32          6           0        4.099115   -0.835807    0.644413
     33          6           0        4.821704   -1.987584   -0.054920
     34          1           0        2.688005   -0.461541   -0.941191
     35          1           0        4.151412    0.513436   -1.035962
     36          1           0        3.352046   -1.236865    1.341303
     37          1           0        4.814641   -0.262374    1.247582
     38          1           0        5.587639   -1.604379   -0.736900
     39          1           0        4.116735   -2.584407   -0.642647
     40          1           0        5.310128   -2.651388    0.665265
 ---------------------------------------------------------------------

 SCF Done:  E(RHF) =  -470.732977629     A.U. after   11 cycles
 E2 =    -0.1583817806D+01 EUMP2 =    -0.47231679543556D+03

 The electronic state is 1-A.
 Alpha  occ. eigenvalues --  -11.21679 -11.21633 -11.21613 -11.21514 -11.21468
 Alpha  occ. eigenvalues --  -11.21403 -11.21327 -11.21251 -11.21161 -11.21094
 Alpha  occ. eigenvalues --  -11.21071 -11.21005  -1.08496  -1.08372  -1.03592
 Alpha  occ. eigenvalues --   -1.03486  -0.96064  -0.95917  -0.87071  -0.86947
 Alpha  occ. eigenvalues --   -0.79665  -0.79547  -0.78304  -0.78188  -0.65231
 Alpha  occ. eigenvalues --   -0.64948  -0.60993  -0.60882  -0.59408  -0.59299
 Alpha  occ. eigenvalues --   -0.57658  -0.57546  -0.55503  -0.55075  -0.52738
 Alpha  occ. eigenvalues --   -0.52635  -0.52474  -0.52329  -0.50009  -0.49862
 Alpha  occ. eigenvalues --   -0.47978  -0.47870  -0.46759  -0.46570  -0.45932
 Alpha  occ. eigenvalues --   -0.45814  -0.45638  -0.45465  -0.43840  -0.43732
 Alpha virt. eigenvalues --    0.20058   0.22733   0.23588   0.24708   0.26052
 Alpha virt. eigenvalues --    0.26203   0.27083   0.27610   0.27902   0.29865
 Alpha virt. eigenvalues --    0.30285   0.30980   0.31727   0.32003   0.32478

 Mulliken charges:
               1
     1  C   -0.298284
     2  C   -0.299801
     3  C   -0.475754
     4  H    0.149823
     5  H    0.149744
     6  H    0.152233
     7  H    0.151972
     8  H    0.155210
     9  H    0.155252
    10  H    0.160441
    11  C   -0.299196
    12  C   -0.299844
    13  C   -0.482938
    14  H    0.149791
    15  H    0.149626
    16  H    0.152147
    17  H    0.152311
    18  H    0.155286
    19  H    0.163151
    20  H    0.160296
    21  C   -0.300756
    22  C   -0.301174
    23  C   -0.476054
    24  H    0.151935
    25  H    0.149845
    26  H    0.151067
    27  H    0.152291
    28  H    0.155441
    29  H    0.155840
    30  H    0.159900
    31  C   -0.301458
    32  C   -0.300108
    33  C   -0.475851
    34  H    0.153519
    35  H    0.149091
    36  H    0.153625
    37  H    0.151337
    38  H    0.154795
    39  H    0.155378
    40  H    0.159871
 Sum of Mulliken charges =  -0.00000

 Dipole moment (field-independent basis, Debye):
    X=             -0.0343    Y=             -0.0142    Z=              0.0084  Tot=              0.0381
 Quadrupole moment (field-independent basis, Debye-Ang):
   XX=            -85.6234   YY=            -85.0138   ZZ=            -84.2068
   XY=              1.2286   XZ=             -0.1871   YZ=             -0.7691

 Normal termination of Gaussian 16 at Thu May  6 05:36:30 2021.
