 Gaussian 16, Revision A.03,
 Gaussian 16:  EM64L-G16RevA.03 25-Dec-2016

 -------------
 #p 6-31g* mp2
 -------------

 ------------------------------------------------------
 Input file generated by CHIRIPA (05-May-2021 14:57:26)
 ------------------------------------------------------
 Symbolic Z-matrix:
 Charge =  0 Multiplicity = 1

                         Standard orientation:
 ---------------------------------------------------------------------
 Center     Atomic      Atomic             Coordinates (Angstroms)
 Number     Number       Type             X           Y           Z
 ---------------------------------------------------------------------
      1          6           0        3.140465    2.663469   -0.308828
      2          6           0        1.971768    1.996138    0.072404
      3          6           0        1.967512    0.607404    0.233495
      4          6           0        3.155034   -0.085742    0.004087
      5          6           0        4.335512    0.550509   -0.376633
      6          6           0        4.316533    1.939801   -0.531736
      7          1           0        3.134746    3.742487   -0.431641
      8          1           0        1.056959    2.555571    0.246195
      9          1           0        1.076931    0.065519    0.527848
     10          1           0        5.232064   -0.034315   -0.542744
     11          1           0        5.225645    2.455411   -0.827888
     12          7           0        3.162827   -1.556227    0.171457
     13          8           0        4.222017   -2.143966   -0.036673
     14          8           0        2.109598   -2.093211    0.507603
     15          6           0       -4.173344    2.146724    0.168404
     16          6           0       -4.814477    1.142216   -0.564013
     17          6           0       -4.258691   -0.137649   -0.651162
     18          6           0       -3.055180   -0.379290    0.009488
     19          6           0       -2.392363    0.600540    0.746983
     20          6           0       -2.966461    1.873162    0.820415
     21          1           0       -4.612204    3.138141    0.230775
     22          1           0       -5.751856    1.351808   -1.071393
     23          1           0       -4.733823   -0.933824   -1.211317
     24          1           0       -1.458974    0.361477    1.242011
     25          1           0       -2.466325    2.651335    1.389938
     26          7           0       -2.457101   -1.730392   -0.075511
     27          8           0       -1.395930   -1.917839    0.515604
     28          8           0       -3.060823   -2.576355   -0.731638
 ---------------------------------------------------------------------

 SCF Done:  E(RHF) =  -868.335193983     A.U. after   16 cycles
 E2 =    -0.2601725737D+01 EUMP2 =    -0.87093691972031D+03

 The electronic state is 1-A.
 Alpha  occ. eigenvalues --  -20.60772 -20.60719 -20.60145 -20.60050 -15.85785
 Alpha  occ. eigenvalues --  -15.85157 -11.31494 -11.30894 -11.28190 -11.28035
 Alpha  occ. eigenvalues --  -11.27858 -11.27516 -11.27512 -11.27367 -11.27238
 Alpha  occ. eigenvalues --  -11.27114 -11.26686 -11.26600  -1.59806  -1.59183
 Alpha  occ. eigenvalues --   -1.39353  -1.38715  -1.19687  -1.19117  -1.09009
 Alpha  occ. eigenvalues --   -1.08449  -1.05151  -1.04587  -0.95792  -0.95213
 Alpha  occ. eigenvalues --   -0.86528  -0.85961  -0.82625  -0.82042  -0.77657
 Alpha  occ. eigenvalues --   -0.76996  -0.71993  -0.71342  -0.71132  -0.70798
 Alpha  occ. eigenvalues --   -0.70526  -0.70217  -0.65332  -0.65168  -0.64761
 Alpha  occ. eigenvalues --   -0.64601  -0.62560  -0.61871  -0.55612  -0.55081
 Alpha  occ. eigenvalues --   -0.53440  -0.53263  -0.52885  -0.52675  -0.48773
 Alpha  occ. eigenvalues --   -0.48745  -0.48175  -0.48086  -0.44673  -0.44035
 Alpha  occ. eigenvalues --   -0.37657  -0.37122  -0.36768  -0.36202
 Alpha virt. eigenvalues --    0.04871   0.05529   0.10840   0.11452   0.16312
 Alpha virt. eigenvalues --    0.16936   0.19305   0.22147   0.25052   0.26726
 Alpha virt. eigenvalues --    0.28030   0.29149   0.30387   0.31590   0.31754

 Mulliken charges:
               1
     1  C   -0.171089
     2  C   -0.219426
     3  C   -0.180684
     4  C    0.158495
     5  C   -0.170053
     6  C   -0.218953
     7  H    0.222860
     8  H    0.213694
     9  H    0.288224
    10  H    0.276021
    11  H    0.222497
    12  N    0.485488
    13  O   -0.464709
    14  O   -0.445704
    15  C   -0.171099
    16  C   -0.217764
    17  C   -0.169978
    18  C    0.160104
    19  C   -0.176116
    20  C   -0.220480
    21  H    0.225822
    22  H    0.224978
    23  H    0.277987
    24  H    0.273471
    25  H    0.219833
    26  N    0.487898
    27  O   -0.453140
    28  O   -0.458174
 Sum of Mulliken charges =  -0.00000

 Dipole moment (field-independent basis, Debye):
    X=             -2.3167    Y=              9.5577    Z=             -0.3313  Tot=              9.8401
 Quadrupole moment (field-independent basis, Debye-Ang):
   XX=            -84.5996   YY=           -110.1400   ZZ=           -104.3417
   XY=              3.7030   XZ=             -1.4801   YZ=              0.8689

 Normal termination of Gaussian 16 at Wed May  5 19:36:34 2021.
