 Gaussian 16, Revision A.03,
 Gaussian 16:  EM64L-G16RevA.03 25-Dec-2016

 -------------
 #p 6-31g* mp2
 -------------

 ------------------------------------------------------
 Input file generated by CHIRIPA (05-May-2021 14:55:22)
 ------------------------------------------------------
 Symbolic Z-matrix:
 Charge =  0 Multiplicity = 1

                         Standard orientation:
 ---------------------------------------------------------------------
 Center     Atomic      Atomic             Coordinates (Angstroms)
 Number     Number       Type             X           Y           Z
 ---------------------------------------------------------------------
      1          6           0       -3.288777    0.124412   -1.844325
      2          6           0       -3.061416   -1.117291   -1.241829
      3          6           0       -2.349871   -1.204425   -0.041554
      4          6           0       -1.877907   -0.024433    0.531298
      5          6           0       -2.088178    1.227534   -0.044598
      6          6           0       -2.802290    1.290805   -1.244843
      7          1           0       -3.842519    0.182830   -2.776716
      8          1           0       -3.438050   -2.024782   -1.705135
      9          1           0       -2.159513   -2.152627    0.446396
     10          1           0       -1.700320    2.114735    0.441054
     11          1           0       -2.977358    2.256499   -1.710494
     12          7           0       -1.123268   -0.104046    1.801959
     13          8           0       -0.717946    0.950245    2.286544
     14          8           0       -0.951394   -1.219230    2.289259
     15          6           0        2.188007    0.676062   -0.483976
     16          6           0        3.055848    1.899991   -0.189297
     17          6           0        2.291709    3.216016   -0.337498
     18          1           0        1.786743    0.755907   -1.503563
     19          1           0        1.322814    0.677049    0.193398
     20          1           0        3.919877    1.895953   -0.866094
     21          1           0        3.455248    1.817129    0.829639
     22          1           0        1.439303    3.245943    0.348877
     23          1           0        1.906572    3.325214   -1.356490
     24          1           0        2.931012    4.077891   -0.122266
     25          6           0        2.937832   -0.647105   -0.340029
     26          6           0        2.069992   -1.871034   -0.634708
     27          6           0        2.834131   -3.187059   -0.486508
     28          1           0        3.803025   -0.648092   -1.017404
     29          1           0        3.339097   -0.726949    0.679558
     30          1           0        1.670591   -1.788172   -1.653644
     31          1           0        1.205963   -1.866995    0.042088
     32          1           0        3.219268   -3.296256    0.532485
     33          1           0        3.686537   -3.216985   -1.172883
     34          1           0        2.194827   -4.048933   -0.701739
 ---------------------------------------------------------------------

 SCF Done:  E(RHF) =  -669.536666080     A.U. after   15 cycles
 E2 =    -0.2093585028D+01 EUMP2 =    -0.67163025110821D+03

 The electronic state is 1-A.
 Alpha  occ. eigenvalues --  -20.61052 -20.61042 -15.86025 -11.31260 -11.27823
 Alpha  occ. eigenvalues --  -11.27818 -11.27552 -11.26817 -11.26807 -11.21181
 Alpha  occ. eigenvalues --  -11.21175 -11.20947 -11.20883 -11.20772 -11.20693
 Alpha  occ. eigenvalues --   -1.60083  -1.39644  -1.19428  -1.08855  -1.07993
 Alpha  occ. eigenvalues --   -1.04813  -1.03126  -0.95710  -0.95591  -0.86613
 Alpha  occ. eigenvalues --   -0.86222  -0.82548  -0.79203  -0.77862  -0.77591
 Alpha  occ. eigenvalues --   -0.72265  -0.71399  -0.70546  -0.65091  -0.64825
 Alpha  occ. eigenvalues --   -0.64579  -0.62168  -0.60506  -0.58965  -0.57216
 Alpha  occ. eigenvalues --   -0.55331  -0.54866  -0.53149  -0.52910  -0.52300
 Alpha  occ. eigenvalues --   -0.52037  -0.49534  -0.49044  -0.49015  -0.47553
 Alpha  occ. eigenvalues --   -0.46294  -0.45391  -0.45299  -0.44841  -0.43379
 Alpha  occ. eigenvalues --   -0.37387  -0.36395
 Alpha virt. eigenvalues --    0.04892   0.11159   0.16373   0.21080   0.23205
 Alpha virt. eigenvalues --    0.24357   0.26131   0.27083   0.27546   0.27934
 Alpha virt. eigenvalues --    0.29004   0.30486   0.31231   0.32065   0.32286

 Mulliken charges:
               1
     1  C   -0.170364
     2  C   -0.218629
     3  C   -0.170212
     4  C    0.157700
     5  C   -0.170756
     6  C   -0.218633
     7  H    0.225882
     8  H    0.223746
     9  H    0.275727
    10  H    0.276233
    11  H    0.223984
    12  N    0.489080
    13  O   -0.458214
    14  O   -0.457732
    15  C   -0.303369
    16  C   -0.297776
    17  C   -0.478445
    18  H    0.144108
    19  H    0.154617
    20  H    0.149283
    21  H    0.157453
    22  H    0.159881
    23  H    0.149004
    24  H    0.159781
    25  C   -0.298031
    26  C   -0.303712
    27  C   -0.474810
    28  H    0.146698
    29  H    0.155469
    30  H    0.146467
    31  H    0.156549
    32  H    0.159389
    33  H    0.152892
    34  H    0.156743
 Sum of Mulliken charges =  -0.00000

 Dipole moment (field-independent basis, Debye):
    X=             -2.7630    Y=              0.2741    Z=             -4.3013  Tot=              5.1197
 Quadrupole moment (field-independent basis, Debye-Ang):
   XX=            -85.4623   YY=            -91.1540   ZZ=            -99.3075
   XY=              0.5829   XZ=              7.3874   YZ=              0.2691

 Normal termination of Gaussian 16 at Thu May  6 06:16:08 2021.
