 Gaussian 16, Revision A.03,
 Gaussian 16:  EM64L-G16RevA.03 25-Dec-2016

 -------------
 #p 6-31g* mp2
 -------------

 ------------------------------------------------------
 Input file generated by CHIRIPA (05-May-2021 14:55:19)
 ------------------------------------------------------
 Symbolic Z-matrix:
 Charge =  0 Multiplicity = 1

                         Standard orientation:
 ---------------------------------------------------------------------
 Center     Atomic      Atomic             Coordinates (Angstroms)
 Number     Number       Type             X           Y           Z
 ---------------------------------------------------------------------
      1          6           0       -5.880401    1.511819    0.089597
      2          6           0       -5.986723    0.133459   -0.123339
      3          6           0       -4.840942   -0.664473   -0.194327
      4          6           0       -3.599204   -0.048200   -0.047410
      5          6           0       -3.460553    1.322430    0.165757
      6          6           0       -4.619878    2.100866    0.233212
      7          1           0       -6.775732    2.124099    0.143369
      8          1           0       -6.964353   -0.326721   -0.235227
      9          1           0       -4.894381   -1.733903   -0.358280
     10          1           0       -2.472211    1.752518    0.273560
     11          1           0       -4.534281    3.171072    0.398674
     12          7           0       -2.379048   -0.882615   -0.120692
     13          8           0       -1.296720   -0.315496    0.011892
     14          8           0       -2.528122   -2.087950   -0.309327
     15          6           0        5.509125    0.168286    0.341653
     16          6           0        6.319704    1.000585   -0.652443
     17          6           0        7.606719    1.559131   -0.044650
     18          1           0        5.264911    0.787802    1.215440
     19          1           0        6.131357   -0.659363    0.709373
     20          1           0        5.695670    1.825612   -1.019225
     21          1           0        6.561852    0.379072   -1.524051
     22          1           0        8.251869    0.746647    0.304995
     23          1           0        7.380766    2.201406    0.812689
     24          1           0        8.170618    2.150811   -0.772518
     25          6           0        4.219645   -0.396951   -0.251201
     26          6           0        3.409066   -1.229249    0.742894
     27          6           0        2.122051   -1.787795    0.135101
     28          1           0        3.597412    0.430700   -0.618922
     29          1           0        4.463859   -1.016466   -1.124988
     30          1           0        3.166917   -0.607736    1.614503
     31          1           0        4.033100   -2.054276    1.109676
     32          1           0        2.348005   -2.430070   -0.722237
     33          1           0        1.476901   -0.975310   -0.214543
     34          1           0        1.558151   -2.379474    0.862970
 ---------------------------------------------------------------------

 SCF Done:  E(RHF) =  -669.535842865     A.U. after   15 cycles
 E2 =    -0.2090781130D+01 EUMP2 =    -0.67162662399450D+03

 The electronic state is 1-A.
 Alpha  occ. eigenvalues --  -20.60908 -20.60902 -15.85948 -11.31284 -11.27851
 Alpha  occ. eigenvalues --  -11.27845 -11.27588 -11.26860 -11.26850 -11.21015
 Alpha  occ. eigenvalues --  -11.20640 -11.20602 -11.20408 -11.20316 -11.19185
 Alpha  occ. eigenvalues --   -1.59969  -1.39526  -1.19453  -1.08854  -1.07538
 Alpha  occ. eigenvalues --   -1.04852  -1.02526  -0.95696  -0.94937  -0.86253
 Alpha  occ. eigenvalues --   -0.85944  -0.82528  -0.78630  -0.77579  -0.77302
 Alpha  occ. eigenvalues --   -0.72170  -0.71287  -0.70562  -0.65110  -0.64856
 Alpha  occ. eigenvalues --   -0.64180  -0.62200  -0.59925  -0.58402  -0.56547
 Alpha  occ. eigenvalues --   -0.55357  -0.54225  -0.53183  -0.52945  -0.51606
 Alpha  occ. eigenvalues --   -0.51370  -0.49173  -0.48916  -0.48617  -0.46907
 Alpha  occ. eigenvalues --   -0.45671  -0.44940  -0.44835  -0.44723  -0.42778
 Alpha  occ. eigenvalues --   -0.37433  -0.36455
 Alpha virt. eigenvalues --    0.04955   0.11200   0.16452   0.21333   0.23682
 Alpha virt. eigenvalues --    0.25378   0.27249   0.27496   0.28187   0.28337
 Alpha virt. eigenvalues --    0.29165   0.30901   0.32338   0.32486   0.32618

 Mulliken charges:
               1
     1  C   -0.170654
     2  C   -0.218576
     3  C   -0.170560
     4  C    0.157720
     5  C   -0.170853
     6  C   -0.218515
     7  H    0.225934
     8  H    0.223788
     9  H    0.275914
    10  H    0.275410
    11  H    0.223722
    12  N    0.490865
    13  O   -0.461847
    14  O   -0.458753
    15  C   -0.297285
    16  C   -0.298854
    17  C   -0.475134
    18  H    0.147830
    19  H    0.148062
    20  H    0.150694
    21  H    0.151258
    22  H    0.154533
    23  H    0.154010
    24  H    0.158239
    25  C   -0.297300
    26  C   -0.300234
    27  C   -0.477560
    28  H    0.149128
    29  H    0.147940
    30  H    0.148628
    31  H    0.146215
    32  H    0.147706
    33  H    0.177045
    34  H    0.161486
 Sum of Mulliken charges =  -0.00000

 Dipole moment (field-independent basis, Debye):
    X=             -4.6820    Y=              2.9401    Z=              0.2310  Tot=              5.5334
 Quadrupole moment (field-independent basis, Debye-Ang):
   XX=            -64.7398   YY=            -91.6107   ZZ=            -95.7224
   XY=             -8.7498   XZ=             -0.7780   YZ=              0.7206

 Normal termination of Gaussian 16 at Wed May  5 15:51:34 2021.
