 Gaussian 16, Revision A.03,
 Gaussian 16:  EM64L-G16RevA.03 25-Dec-2016

 -------------
 #p 6-31g* mp2
 -------------

 ------------------------------------------------------
 Input file generated by CHIRIPA (05-May-2021 14:57:24)
 ------------------------------------------------------
 Symbolic Z-matrix:
 Charge =  0 Multiplicity = 1

                         Standard orientation:
 ---------------------------------------------------------------------
 Center     Atomic      Atomic             Coordinates (Angstroms)
 Number     Number       Type             X           Y           Z
 ---------------------------------------------------------------------
      1          6           0        0.768340   -0.603087    2.248246
      2          6           0        1.322702    0.676850    2.143529
      3          6           0        2.204144    0.985899    1.103291
      4          6           0        2.510712   -0.013577    0.181145
      5          6           0        1.974745   -1.298115    0.258559
      6          6           0        1.095554   -1.584753    1.307086
      7          1           0        0.084488   -0.834459    3.059548
      8          1           0        1.070382    1.441206    2.873008
      9          1           0        2.647746    1.968573    0.998471
     10          1           0        2.245219   -2.039190   -0.483782
     11          1           0        0.666541   -2.579630    1.385920
     12          7           0        3.442664    0.301736   -0.924496
     13          8           0        3.696753   -0.596426   -1.724109
     14          8           0        3.901392    1.441071   -0.970550
     15          6           0       -2.552347    2.568290   -0.110244
     16          6           0       -2.298705    2.009517   -1.367208
     17          6           0       -2.188554    0.624126   -1.519220
     18          6           0       -2.338241   -0.176411   -0.387839
     19          6           0       -2.591459    0.350269    0.877775
     20          6           0       -2.697658    1.738347    1.006268
     21          1           0       -2.636379    3.645539   -0.001292
     22          1           0       -2.185401    2.651625   -2.236061
     23          1           0       -1.992644    0.165036   -2.480611
     24          1           0       -2.699623   -0.315503    1.725399
     25          1           0       -2.894686    2.169519    1.983670
     26          7           0       -2.223721   -1.644485   -0.536318
     27          8           0       -2.359634   -2.328073    0.476042
     28          8           0       -2.000215   -2.083773   -1.662244
 ---------------------------------------------------------------------

 SCF Done:  E(RHF) =  -868.338969601     A.U. after   16 cycles
 E2 =    -0.2602251859D+01 EUMP2 =    -0.87094122145996D+03

 The electronic state is 1-A.
 Alpha  occ. eigenvalues --  -20.61437 -20.61378 -20.60666 -20.60642 -15.86433
 Alpha  occ. eigenvalues --  -15.85704 -11.31621 -11.31014 -11.28268 -11.28132
 Alpha  occ. eigenvalues --  -11.27901 -11.27623 -11.27466 -11.27303 -11.27223
 Alpha  occ. eigenvalues --  -11.27106 -11.26670 -11.26384  -1.60469  -1.59734
 Alpha  occ. eigenvalues --   -1.40033  -1.39288  -1.19789  -1.19174  -1.09214
 Alpha  occ. eigenvalues --   -1.08586  -1.05182  -1.04547  -0.96084  -0.95430
 Alpha  occ. eigenvalues --   -0.86590  -0.85944  -0.82932  -0.82248  -0.78003
 Alpha  occ. eigenvalues --   -0.77297  -0.72672  -0.71925  -0.71780  -0.71059
 Alpha  occ. eigenvalues --   -0.70928  -0.70286  -0.65458  -0.65196  -0.64815
 Alpha  occ. eigenvalues --   -0.64509  -0.62548  -0.61867  -0.55694  -0.55076
 Alpha  occ. eigenvalues --   -0.53678  -0.53283  -0.52734  -0.52603  -0.49442
 Alpha  occ. eigenvalues --   -0.49405  -0.48684  -0.48673  -0.45482  -0.44706
 Alpha  occ. eigenvalues --   -0.37842  -0.37420  -0.36440  -0.36097
 Alpha virt. eigenvalues --    0.04434   0.05254   0.10807   0.11538   0.16056
 Alpha virt. eigenvalues --    0.16715   0.20479   0.21945   0.26351   0.27238
 Alpha virt. eigenvalues --    0.27914   0.29054   0.30406   0.31260   0.32825

 Mulliken charges:
               1
     1  C   -0.173480
     2  C   -0.216430
     3  C   -0.172269
     4  C    0.158077
     5  C   -0.172970
     6  C   -0.223745
     7  H    0.223640
     8  H    0.217713
     9  H    0.272549
    10  H    0.279942
    11  H    0.240320
    12  N    0.487719
    13  O   -0.458374
    14  O   -0.463545
    15  C   -0.170140
    16  C   -0.217910
    17  C   -0.169628
    18  C    0.161420
    19  C   -0.168253
    20  C   -0.219845
    21  H    0.226881
    22  H    0.227159
    23  H    0.278517
    24  H    0.268313
    25  H    0.220464
    26  N    0.489114
    27  O   -0.469208
    28  O   -0.456029
 Sum of Mulliken charges =  -0.00000

 Dipole moment (field-independent basis, Debye):
    X=             -3.7459    Y=              3.9527    Z=              4.2015  Tot=              6.8781
 Quadrupole moment (field-independent basis, Debye-Ang):
   XX=           -121.2573   YY=           -102.5593   ZZ=            -99.0576
   XY=            -14.8310   XZ=              7.6887   YZ=             -1.3718

 Normal termination of Gaussian 16 at Fri May  7 01:53:01 2021.
