 Gaussian 16, Revision A.03,
 Gaussian 16:  EM64L-G16RevA.03 25-Dec-2016

 -------------
 #p 6-31g* mp2
 -------------

 ------------------------------------------------------
 Input file generated by CHIRIPA (05-May-2021 14:53:17)
 ------------------------------------------------------
 Symbolic Z-matrix:
 Charge =  0 Multiplicity = 1

                         Standard orientation:
 ---------------------------------------------------------------------
 Center     Atomic      Atomic             Coordinates (Angstroms)
 Number     Number       Type             X           Y           Z
 ---------------------------------------------------------------------
      1          6           0       -3.750658   -0.529110    0.458817
      2          6           0       -2.491942    0.187080    0.949419
      3          6           0       -1.458971   -0.772042    1.541743
      4          1           0       -4.199308   -1.082693    1.295001
      5          1           0       -3.468311   -1.276745   -0.295316
      6          1           0       -2.776735    0.934100    1.701397
      7          1           0       -2.046343    0.739178    0.112015
      8          1           0       -1.146302   -1.510013    0.795929
      9          1           0       -1.880843   -1.313984    2.394341
     10          1           0       -0.567279   -0.238999    1.886142
     11          6           0       -4.792721    0.416409   -0.136016
     12          6           0       -6.051437   -0.299781   -0.626618
     13          6           0       -7.084409    0.659341   -1.218942
     14          1           0       -5.075069    1.164044    0.618117
     15          1           0       -4.344072    0.969993   -0.972200
     16          1           0       -6.497037   -0.851879    0.210785
     17          1           0       -5.766645   -1.046801   -1.378596
     18          1           0       -6.662537    1.201283   -2.071540
     19          1           0       -7.397078    1.397312   -0.473128
     20          1           0       -7.976101    0.126298   -1.563341
     21          6           0        3.198510   -2.464344   -0.360110
     22          6           0        2.324305   -1.792163    0.500389
     23          6           0        2.392139   -0.402549    0.637937
     24          6           0        3.350671    0.286523   -0.103470
     25          6           0        4.235626   -0.354603   -0.968977
     26          6           0        4.149704   -1.744688   -1.090759
     27          1           0        3.138790   -3.544012   -0.460837
     28          1           0        1.584594   -2.348473    1.069063
     29          1           0        1.727678    0.143053    1.296897
     30          1           0        4.962447    0.227183   -1.522758
     31          1           0        4.829914   -2.264069   -1.759789
     32          7           0        3.432058    1.757895    0.033800
     33          8           0        4.285442    2.341980   -0.630442
     34          8           0        2.640925    2.299209    0.803035
 ---------------------------------------------------------------------

 SCF Done:  E(RHF) =  -669.535356880     A.U. after   15 cycles
 E2 =    -0.2091373131D+01 EUMP2 =    -0.67162673001063D+03

 The electronic state is 1-A.
 Alpha  occ. eigenvalues --  -20.60738 -20.60733 -15.85789 -11.31132 -11.27709
 Alpha  occ. eigenvalues --  -11.27676 -11.27446 -11.26725 -11.26680 -11.21940
 Alpha  occ. eigenvalues --  -11.21797 -11.21740 -11.21663 -11.21525 -11.21154
 Alpha  occ. eigenvalues --   -1.59813  -1.39367  -1.19307  -1.08708  -1.08675
 Alpha  occ. eigenvalues --   -1.04708  -1.03824  -0.96314  -0.95544  -0.87342
 Alpha  occ. eigenvalues --   -0.86106  -0.82375  -0.79889  -0.78460  -0.77422
 Alpha  occ. eigenvalues --   -0.72009  -0.71135  -0.70431  -0.65301  -0.64959
 Alpha  occ. eigenvalues --   -0.64717  -0.62129  -0.61200  -0.59662  -0.57898
 Alpha  occ. eigenvalues --   -0.55602  -0.55212  -0.53121  -0.53005  -0.52885
 Alpha  occ. eigenvalues --   -0.52567  -0.50233  -0.48765  -0.48763  -0.48198
 Alpha  occ. eigenvalues --   -0.46889  -0.46013  -0.45916  -0.44776  -0.44078
 Alpha  occ. eigenvalues --   -0.37294  -0.36295
 Alpha virt. eigenvalues --    0.05096   0.11318   0.16550   0.20381   0.22737
 Alpha virt. eigenvalues --    0.23870   0.25918   0.26284   0.26736   0.27830
 Alpha virt. eigenvalues --    0.28872   0.29603   0.31339   0.31536   0.32135

 Mulliken charges:
               1
     1  C   -0.299178
     2  C   -0.299120
     3  C   -0.482445
     4  H    0.149372
     5  H    0.148397
     6  H    0.156401
     7  H    0.157267
     8  H    0.151883
     9  H    0.157359
    10  H    0.157131
    11  C   -0.298877
    12  C   -0.299799
    13  C   -0.475920
    14  H    0.151146
    15  H    0.151573
    16  H    0.151687
    17  H    0.151361
    18  H    0.156035
    19  H    0.155983
    20  H    0.160353
    21  C   -0.171208
    22  C   -0.221713
    23  C   -0.176099
    24  C    0.159590
    25  C   -0.170760
    26  C   -0.218752
    27  H    0.225366
    28  H    0.226904
    29  H    0.280992
    30  H    0.275352
    31  H    0.223157
    32  N    0.487765
    33  O   -0.460581
    34  O   -0.460622
 Sum of Mulliken charges =  -0.00000

 Dipole moment (field-independent basis, Debye):
    X=             -0.4351    Y=             -5.1340    Z=             -0.4992  Tot=              5.1766
 Quadrupole moment (field-independent basis, Debye-Ang):
   XX=            -94.4026   YY=            -98.7260   ZZ=            -92.3806
   XY=            -17.3320   XZ=             -5.3250   YZ=              0.7462

 Normal termination of Gaussian 16 at Thu May  6 20:29:33 2021.
