 Gaussian 16, Revision A.03,
 Gaussian 16:  EM64L-G16RevA.03 25-Dec-2016

 -------------
 #p 6-31g* mp2
 -------------

 ------------------------------------------------------
 Input file generated by CHIRIPA (05-May-2021 14:51:14)
 ------------------------------------------------------
 Symbolic Z-matrix:
 Charge =  0 Multiplicity = 1

                         Standard orientation:
 ---------------------------------------------------------------------
 Center     Atomic      Atomic             Coordinates (Angstroms)
 Number     Number       Type             X           Y           Z
 ---------------------------------------------------------------------
      1          6           0       -2.961966   -0.709284    0.345192
      2          6           0       -1.846011   -0.667146    1.389630
      3          6           0       -1.074818   -1.984003    1.484199
      4          1           0       -3.655367   -1.525058    0.591467
      5          1           0       -2.528511   -0.952616   -0.634758
      6          1           0       -2.281257   -0.422604    2.367064
      7          1           0       -1.155291    0.148745    1.140947
      8          1           0       -0.613972   -2.230496    0.522189
      9          1           0       -1.746336   -2.805091    1.755272
     10          1           0       -0.281859   -1.931713    2.236755
     11          6           0       -3.742007    0.599904    0.238923
     12          6           0       -4.857963    0.557766   -0.805516
     13          6           0       -5.629155    1.874624   -0.900084
     14          1           0       -4.175463    0.843237    1.218872
     15          1           0       -3.048606    1.415678   -0.007352
     16          1           0       -5.548683   -0.258125   -0.556833
     17          1           0       -4.422716    0.313224   -1.782949
     18          1           0       -4.957637    2.695711   -1.171157
     19          1           0       -6.090001    2.121116    0.061926
     20          1           0       -6.422115    1.822333   -1.652641
     21          6           0        3.252322    0.780989   -0.077608
     22          6           0        4.562739    1.554978    0.069810
     23          6           0        4.346905    3.006435    0.499326
     24          1           0        2.613269    1.290879   -0.811480
     25          1           0        2.710958    0.804840    0.878296
     26          1           0        5.102117    1.528499   -0.885693
     27          1           0        5.198823    1.043079    0.803276
     28          1           0        3.830426    3.050079    1.463662
     29          1           0        3.733169    3.538258   -0.234902
     30          1           0        5.296663    3.541186    0.598637
     31          6           0        3.451652   -0.671609   -0.506507
     32          6           0        2.141235   -1.445598   -0.653925
     33          6           0        2.357068   -2.897054   -1.083441
     34          1           0        3.993015   -0.695461   -1.462410
     35          1           0        4.090704   -1.181500    0.227365
     36          1           0        1.505151   -0.933699   -1.387390
     37          1           0        1.601857   -1.419120    0.301578
     38          1           0        2.970805   -3.428878   -0.349213
     39          1           0        2.873548   -2.940699   -2.047777
     40          1           0        1.407310   -3.431806   -1.182751
 ---------------------------------------------------------------------

 SCF Done:  E(RHF) =  -470.732736922     A.U. after   11 cycles
 E2 =    -0.1583184103D+01 EUMP2 =    -0.47231592102465D+03

 The electronic state is 1-A.
 Alpha  occ. eigenvalues --  -11.21607 -11.21599 -11.21591 -11.21528 -11.21402
 Alpha  occ. eigenvalues --  -11.21398 -11.21339 -11.21338 -11.21078 -11.21069
 Alpha  occ. eigenvalues --  -11.21068 -11.21034  -1.08443  -1.08404  -1.03576
 Alpha  occ. eigenvalues --   -1.03476  -0.96023  -0.95935  -0.87013  -0.86977
 Alpha  occ. eigenvalues --   -0.79673  -0.79513  -0.78263  -0.78214  -0.65127
 Alpha  occ. eigenvalues --   -0.64995  -0.61105  -0.60790  -0.59369  -0.59321
 Alpha  occ. eigenvalues --   -0.57674  -0.57529  -0.55351  -0.55154  -0.52699
 Alpha  occ. eigenvalues --   -0.52654  -0.52451  -0.52340  -0.50027  -0.49829
 Alpha  occ. eigenvalues --   -0.47932  -0.47861  -0.46753  -0.46464  -0.45834
 Alpha  occ. eigenvalues --   -0.45738  -0.45716  -0.45593  -0.43787  -0.43766
 Alpha virt. eigenvalues --    0.21405   0.23148   0.23492   0.24679   0.26101
 Alpha virt. eigenvalues --    0.26446   0.26680   0.27506   0.28121   0.29126
 Alpha virt. eigenvalues --    0.30279   0.31431   0.31615   0.31928   0.32251

 Mulliken charges:
               1
     1  C   -0.298470
     2  C   -0.300477
     3  C   -0.481193
     4  H    0.149605
     5  H    0.149703
     6  H    0.151835
     7  H    0.152952
     8  H    0.162488
     9  H    0.155249
    10  H    0.158670
    11  C   -0.298351
    12  C   -0.299652
    13  C   -0.475700
    14  H    0.149507
    15  H    0.149781
    16  H    0.151925
    17  H    0.151859
    18  H    0.155175
    19  H    0.155192
    20  H    0.160224
    21  C   -0.298342
    22  C   -0.299601
    23  C   -0.475719
    24  H    0.149193
    25  H    0.149301
    26  H    0.151998
    27  H    0.152007
    28  H    0.155196
    29  H    0.155053
    30  H    0.160304
    31  C   -0.297757
    32  C   -0.306925
    33  C   -0.476976
    34  H    0.149171
    35  H    0.149540
    36  H    0.150109
    37  H    0.161813
    38  H    0.155547
    39  H    0.155249
    40  H    0.160518
 Sum of Mulliken charges =  -0.00000

 Dipole moment (field-independent basis, Debye):
    X=             -0.0031    Y=             -0.0101    Z=              0.0105  Tot=              0.0149
 Quadrupole moment (field-independent basis, Debye-Ang):
   XX=            -84.8575   YY=            -86.5413   ZZ=            -83.4882
   XY=              0.7473   XZ=             -0.4763   YZ=             -0.6966

 Normal termination of Gaussian 16 at Wed May  5 21:37:49 2021.
