 Gaussian 16, Revision A.03,
 Gaussian 16:  EM64L-G16RevA.03 25-Dec-2016

 -------------
 #p 6-31g* mp2
 -------------

 ------------------------------------------------------
 Input file generated by CHIRIPA (05-May-2021 14:57:23)
 ------------------------------------------------------
 Symbolic Z-matrix:
 Charge =  0 Multiplicity = 1

                         Standard orientation:
 ---------------------------------------------------------------------
 Center     Atomic      Atomic             Coordinates (Angstroms)
 Number     Number       Type             X           Y           Z
 ---------------------------------------------------------------------
      1          6           0        2.153935    2.370420    0.379389
      2          6           0        2.780397    1.903232   -0.780698
      3          6           0        3.129927    0.555317   -0.905202
      4          6           0        2.836845   -0.301544    0.154601
      5          6           0        2.213538    0.133640    1.323102
      6          6           0        1.873000    1.485693    1.425741
      7          1           0        1.885904    3.419120    0.467614
      8          1           0        2.999794    2.588046   -1.594909
      9          1           0        3.615666    0.166911   -1.792116
     10          1           0        2.007676   -0.573006    2.117891
     11          1           0        1.386560    1.845716    2.327852
     12          7           0        3.202117   -1.730712    0.034368
     13          8           0        2.933068   -2.465354    0.982287
     14          8           0        3.750550   -2.089190   -1.005512
     15          6           0       -1.225703    2.034574   -0.466341
     16          6           0       -0.794108    0.747415   -0.803192
     17          6           0       -1.644921   -0.350685   -0.645582
     18          6           0       -2.926583   -0.124314   -0.146195
     19          6           0       -3.385775    1.146000    0.198383
     20          6           0       -2.517880    2.229415    0.032492
     21          1           0       -0.558136    2.881901   -0.591992
     22          1           0        0.208881    0.593117   -1.190814
     23          1           0       -1.336544   -1.357849   -0.898451
     24          1           0       -4.391223    1.268387    0.582458
     25          1           0       -2.855761    3.227919    0.294925
     26          7           0       -3.836343   -1.279051    0.025043
     27          8           0       -4.960744   -1.053086    0.466968
     28          8           0       -3.407783   -2.388232   -0.285908
 ---------------------------------------------------------------------

 SCF Done:  E(RHF) =  -868.334594486     A.U. after   16 cycles
 E2 =    -0.2605775128D+01 EUMP2 =    -0.87094036961321D+03

 The electronic state is 1-A.
 Alpha  occ. eigenvalues --  -20.61589 -20.61571 -20.60793 -20.60771 -15.86644
 Alpha  occ. eigenvalues --  -15.85837 -11.32308 -11.31286 -11.28897 -11.28773
 Alpha  occ. eigenvalues --  -11.28642 -11.27998 -11.27869 -11.27848 -11.27752
 Alpha  occ. eigenvalues --  -11.27627 -11.26971 -11.26727  -1.60658  -1.59860
 Alpha  occ. eigenvalues --   -1.40199  -1.39410  -1.20531  -1.19455  -1.09873
 Alpha  occ. eigenvalues --   -1.08849  -1.05906  -1.04859  -0.96645  -0.95674
 Alpha  occ. eigenvalues --   -0.87280  -0.86268  -0.83430  -0.82500  -0.78419
 Alpha  occ. eigenvalues --   -0.77527  -0.72843  -0.72056  -0.72002  -0.71659
 Alpha  occ. eigenvalues --   -0.71187  -0.70580  -0.66116  -0.65854  -0.65110
 Alpha  occ. eigenvalues --   -0.64944  -0.63197  -0.62258  -0.56475  -0.55389
 Alpha  occ. eigenvalues --   -0.54568  -0.53944  -0.53163  -0.52547  -0.49630
 Alpha  occ. eigenvalues --   -0.49587  -0.48814  -0.48804  -0.45533  -0.44796
 Alpha  occ. eigenvalues --   -0.38759  -0.37925  -0.37079  -0.36201
 Alpha virt. eigenvalues --    0.03971   0.05008   0.10015   0.11262   0.15359
 Alpha virt. eigenvalues --    0.16512   0.19711   0.21814   0.25947   0.26384
 Alpha virt. eigenvalues --    0.27397   0.29127   0.30163   0.31496   0.32027

 Mulliken charges:
               1
     1  C   -0.181041
     2  C   -0.224364
     3  C   -0.180765
     4  C    0.157504
     5  C   -0.169011
     6  C   -0.208715
     7  H    0.224962
     8  H    0.227086
     9  H    0.279886
    10  H    0.281627
    11  H    0.228869
    12  N    0.487317
    13  O   -0.454410
    14  O   -0.457800
    15  C   -0.173508
    16  C   -0.217318
    17  C   -0.176451
    18  C    0.158958
    19  C   -0.172480
    20  C   -0.220105
    21  H    0.214119
    22  H    0.231655
    23  H    0.279168
    24  H    0.275233
    25  H    0.220439
    26  N    0.487723
    27  O   -0.461261
    28  O   -0.457315
 Sum of Mulliken charges =  -0.00000

 Dipole moment (field-independent basis, Debye):
    X=              2.2127    Y=              8.8387    Z=             -0.0085  Tot=              9.1115
 Quadrupole moment (field-independent basis, Debye-Ang):
   XX=           -128.3849   YY=           -108.1161   ZZ=           -100.3670
   XY=              0.3231   XZ=             -0.8128   YZ=              0.5741

 Normal termination of Gaussian 16 at Wed May  5 21:02:27 2021.
