 Gaussian 16, Revision A.03,
 Gaussian 16:  EM64L-G16RevA.03 25-Dec-2016

 -------------
 #p 6-31g* mp2
 -------------

 ------------------------------------------------------
 Input file generated by CHIRIPA (05-May-2021 14:51:11)
 ------------------------------------------------------
 Symbolic Z-matrix:
 Charge =  0 Multiplicity = 1

                         Standard orientation:
 ---------------------------------------------------------------------
 Center     Atomic      Atomic             Coordinates (Angstroms)
 Number     Number       Type             X           Y           Z
 ---------------------------------------------------------------------
      1          6           0       -3.369094   -0.592589   -0.379613
      2          6           0       -4.348594    0.289286    0.395540
      3          6           0       -5.557917    0.706943   -0.441655
      4          1           0       -3.028895   -0.053180   -1.274179
      5          1           0       -3.896253   -1.488281   -0.736313
      6          1           0       -3.819408    1.182381    0.751853
      7          1           0       -4.686354   -0.252210    1.288466
      8          1           0       -6.110975   -0.173155   -0.785391
      9          1           0       -5.239104    1.269587   -1.325052
     10          1           0       -6.245075    1.336757    0.131938
     11          6           0       -2.154907   -1.018284    0.443953
     12          6           0       -1.175407   -1.900158   -0.331200
     13          6           0        0.033915   -2.317816    0.505995
     14          1           0       -1.627748   -0.122592    0.800653
     15          1           0       -2.495106   -1.557692    1.338519
     16          1           0       -0.837647   -1.358662   -1.224126
     17          1           0       -1.704593   -2.793254   -0.687513
     18          1           0       -0.284898   -2.880460    1.389392
     19          1           0        0.586974   -1.437717    0.849731
     20          1           0        0.721074   -2.947630   -0.067598
     21          6           0        3.434486    0.474077   -0.178447
     22          6           0        3.418744   -1.042245    0.017779
     23          6           0        4.771269   -1.690764   -0.278687
     24          1           0        3.732884    0.700686   -1.211188
     25          1           0        4.203213    0.913077    0.472500
     26          1           0        2.649329   -1.478112   -0.632327
     27          1           0        3.120162   -1.265276    1.050117
     28          1           0        5.546182   -1.283420    0.378719
     29          1           0        5.072673   -1.497465   -1.313284
     30          1           0        4.737446   -2.774842   -0.132081
     31          6           0        2.089516    1.136796    0.114108
     32          6           0        2.105257    2.653117   -0.082119
     33          6           0        0.752732    3.301637    0.214347
     34          1           0        1.320789    0.697795   -0.536840
     35          1           0        1.791117    0.910186    1.146847
     36          1           0        2.403839    2.876148   -1.114457
     37          1           0        2.874673    3.088984    0.567986
     38          1           0        0.451329    3.108337    1.248944
     39          1           0       -0.022180    2.894292   -0.443058
     40          1           0        0.786555    4.385714    0.067741
 ---------------------------------------------------------------------

 SCF Done:  E(RHF) =  -470.731415120     A.U. after   11 cycles
 E2 =    -0.1584860014D+01 EUMP2 =    -0.47231627513424D+03

 The electronic state is 1-A.
 Alpha  occ. eigenvalues --  -11.21673 -11.21566 -11.21538 -11.21496 -11.21470
 Alpha  occ. eigenvalues --  -11.21377 -11.21360 -11.21296 -11.21157 -11.21045
 Alpha  occ. eigenvalues --  -11.21027 -11.20840  -1.08496  -1.08361  -1.03571
 Alpha  occ. eigenvalues --   -1.03450  -0.96015  -0.95916  -0.87062  -0.86912
 Alpha  occ. eigenvalues --   -0.79736  -0.79468  -0.78356  -0.78115  -0.65158
 Alpha  occ. eigenvalues --   -0.64964  -0.60966  -0.60881  -0.59482  -0.59206
 Alpha  occ. eigenvalues --   -0.57702  -0.57451  -0.55306  -0.55223  -0.52761
 Alpha  occ. eigenvalues --   -0.52631  -0.52391  -0.52326  -0.49978  -0.49890
 Alpha  occ. eigenvalues --   -0.47926  -0.47865  -0.46731  -0.46616  -0.45924
 Alpha  occ. eigenvalues --   -0.45757  -0.45686  -0.45250  -0.43821  -0.43671
 Alpha virt. eigenvalues --    0.20566   0.23099   0.23800   0.24183   0.25179
 Alpha virt. eigenvalues --    0.26403   0.26974   0.27897   0.28030   0.29934
 Alpha virt. eigenvalues --    0.30922   0.31074   0.31671   0.31766   0.32295

 Mulliken charges:
               1
     1  C   -0.297979
     2  C   -0.299789
     3  C   -0.475638
     4  H    0.148922
     5  H    0.149404
     6  H    0.152364
     7  H    0.151826
     8  H    0.155058
     9  H    0.155050
    10  H    0.160204
    11  C   -0.299871
    12  C   -0.300664
    13  C   -0.482162
    14  H    0.151191
    15  H    0.149549
    16  H    0.150308
    17  H    0.151533
    18  H    0.153352
    19  H    0.166407
    20  H    0.159618
    21  C   -0.297323
    22  C   -0.303595
    23  C   -0.475546
    24  H    0.149357
    25  H    0.149331
    26  H    0.158201
    27  H    0.152802
    28  H    0.154689
    29  H    0.154579
    30  H    0.160066
    31  C   -0.303689
    32  C   -0.299175
    33  C   -0.476211
    34  H    0.152507
    35  H    0.149798
    36  H    0.152270
    37  H    0.152429
    38  H    0.155255
    39  H    0.154714
    40  H    0.160861
 Sum of Mulliken charges =  -0.00000

 Dipole moment (field-independent basis, Debye):
    X=              0.0450    Y=              0.0250    Z=              0.0153  Tot=              0.0537
 Quadrupole moment (field-independent basis, Debye-Ang):
   XX=            -86.3192   YY=            -84.6623   ZZ=            -83.9917
   XY=              1.3420   XZ=             -0.1723   YZ=             -0.0689

 Normal termination of Gaussian 16 at Wed May  5 16:46:32 2021.
