 Gaussian 16, Revision A.03,
 Gaussian 16:  EM64L-G16RevA.03 25-Dec-2016

 -------------
 #p 6-31g* mp2
 -------------

 ------------------------------------------------------
 Input file generated by CHIRIPA (05-May-2021 14:53:14)
 ------------------------------------------------------
 Symbolic Z-matrix:
 Charge =  0 Multiplicity = 1

                         Standard orientation:
 ---------------------------------------------------------------------
 Center     Atomic      Atomic             Coordinates (Angstroms)
 Number     Number       Type             X           Y           Z
 ---------------------------------------------------------------------
      1          6           0       -3.865893    0.350215    0.193901
      2          6           0       -2.523896   -0.005269   -0.446927
      3          6           0       -1.383382    0.893086    0.032635
      4          1           0       -4.104962    1.399110   -0.028834
      5          1           0       -3.773818    0.275796    1.286320
      6          1           0       -2.618861    0.068456   -1.537872
      7          1           0       -2.288086   -1.053495   -0.222800
      8          1           0       -1.259840    0.812793    1.117481
      9          1           0       -1.592494    1.941119   -0.205063
     10          1           0       -0.433344    0.621496   -0.438031
     11          6           0       -5.015886   -0.539087   -0.275552
     12          6           0       -6.357883   -0.183603    0.365276
     13          6           0       -7.498397   -1.081958   -0.114285
     14          1           0       -5.107961   -0.464668   -1.367971
     15          1           0       -4.776817   -1.587981   -0.052816
     16          1           0       -6.593693    0.864623    0.141150
     17          1           0       -6.262919   -0.257328    1.456222
     18          1           0       -7.289285   -2.129991    0.123412
     19          1           0       -7.621939   -1.001665   -1.199131
     20          1           0       -8.448435   -0.810368    0.356381
     21          6           0        4.982025   -1.944926   -0.021539
     22          6           0        4.440999   -1.507532    1.191927
     23          6           0        3.601698   -0.390214    1.233411
     24          6           0        3.323215    0.268939    0.037060
     25          6           0        3.846859   -0.142436   -1.187626
     26          6           0        4.683755   -1.262187   -1.205355
     27          1           0        5.633080   -2.813831   -0.044538
     28          1           0        4.670911   -2.035808    2.112856
     29          1           0        3.169271   -0.030059    2.158999
     30          1           0        3.599456    0.404717   -2.089198
     31          1           0        5.102499   -1.599615   -2.149199
     32          7           0        2.435957    1.453081    0.068404
     33          8           0        2.205992    2.016453   -0.999475
     34          8           0        1.987291    1.795417    1.160256
 ---------------------------------------------------------------------

 SCF Done:  E(RHF) =  -669.535649341     A.U. after   15 cycles
 E2 =    -0.2091339527D+01 EUMP2 =    -0.67162698886792D+03

 The electronic state is 1-A.
 Alpha  occ. eigenvalues --  -20.60831 -20.60816 -15.85847 -11.31229 -11.27799
 Alpha  occ. eigenvalues --  -11.27795 -11.27544 -11.26815 -11.26805 -11.21203
 Alpha  occ. eigenvalues --  -11.20905 -11.20809 -11.20757 -11.20724 -11.19876
 Alpha  occ. eigenvalues --   -1.59885  -1.39438  -1.19402  -1.08797  -1.07849
 Alpha  occ. eigenvalues --   -1.04805  -1.02884  -0.95632  -0.95303  -0.86310
 Alpha  occ. eigenvalues --   -0.86203  -0.82463  -0.78959  -0.77649  -0.77510
 Alpha  occ. eigenvalues --   -0.72074  -0.71221  -0.70510  -0.65056  -0.64808
 Alpha  occ. eigenvalues --   -0.64487  -0.62152  -0.60283  -0.58716  -0.56924
 Alpha  occ. eigenvalues --   -0.55308  -0.54589  -0.53140  -0.52897  -0.51977
 Alpha  occ. eigenvalues --   -0.51723  -0.49243  -0.48834  -0.48825  -0.47269
 Alpha  occ. eigenvalues --   -0.46019  -0.45194  -0.45129  -0.44781  -0.43133
 Alpha  occ. eigenvalues --   -0.37384  -0.36408
 Alpha virt. eigenvalues --    0.05001   0.11246   0.16477   0.21378   0.23406
 Alpha virt. eigenvalues --    0.24939   0.27205   0.27292   0.28038   0.28170
 Alpha virt. eigenvalues --    0.28707   0.30870   0.32054   0.32336   0.32340

 Mulliken charges:
               1
     1  C   -0.297761
     2  C   -0.301430
     3  C   -0.469052
     4  H    0.150567
     5  H    0.148595
     6  H    0.149841
     7  H    0.146033
     8  H    0.156533
     9  H    0.161215
    10  H    0.157066
    11  C   -0.297489
    12  C   -0.299233
    13  C   -0.475334
    14  H    0.148664
    15  H    0.147502
    16  H    0.152213
    17  H    0.151331
    18  H    0.154001
    19  H    0.154677
    20  H    0.159224
    21  C   -0.170699
    22  C   -0.218606
    23  C   -0.170675
    24  C    0.157662
    25  C   -0.171156
    26  C   -0.218553
    27  H    0.225753
    28  H    0.223575
    29  H    0.275757
    30  H    0.275773
    31  H    0.223615
    32  N    0.487387
    33  O   -0.459433
    34  O   -0.457563
 Sum of Mulliken charges =  -0.00000

 Dipole moment (field-independent basis, Debye):
    X=              3.3145    Y=             -4.0569    Z=             -0.0754  Tot=              5.2393
 Quadrupole moment (field-independent basis, Debye-Ang):
   XX=            -76.2127   YY=            -97.4700   ZZ=            -89.3525
   XY=            -14.2266   XZ=             -0.9477   YZ=             -1.4273

 Normal termination of Gaussian 16 at Thu May  6 07:25:31 2021.
