 Gaussian 16, Revision A.03,
 Gaussian 16:  EM64L-G16RevA.03 25-Dec-2016

 -------------
 #p 6-31g* mp2
 -------------

 ------------------------------------------------------
 Input file generated by CHIRIPA (05-May-2021 14:53:16)
 ------------------------------------------------------
 Symbolic Z-matrix:
 Charge =  0 Multiplicity = 1

                         Standard orientation:
 ---------------------------------------------------------------------
 Center     Atomic      Atomic             Coordinates (Angstroms)
 Number     Number       Type             X           Y           Z
 ---------------------------------------------------------------------
      1          6           0        3.212266   -0.304203   -0.492595
      2          6           0        3.427149   -1.678159    0.143057
      3          6           0        3.615939   -2.786105   -0.893576
      4          1           0        2.334109   -0.345357   -1.151452
      5          1           0        4.072653   -0.065625   -1.133071
      6          1           0        2.567251   -1.913471    0.783230
      7          1           0        4.304782   -1.633677    0.800626
      8          1           0        4.485218   -2.578098   -1.525785
      9          1           0        2.737815   -2.859481   -1.543280
     10          1           0        3.767958   -3.759760   -0.417397
     11          6           0        3.021991    0.813774    0.530954
     12          6           0        2.807108    2.187730   -0.104699
     13          6           0        2.618318    3.295676    0.931934
     14          1           0        2.161604    0.575196    1.171430
     15          1           0        3.900147    0.854929    1.189811
     16          1           0        1.929474    2.143249   -0.762268
     17          1           0        3.667005    2.423042   -0.744872
     18          1           0        3.496442    3.369052    1.581638
     19          1           0        1.749039    3.087669    1.564143
     20          1           0        2.466298    4.269331    0.455755
     21          6           0       -1.827089   -2.561632    0.628653
     22          6           0       -3.167703   -2.162755    0.615513
     23          6           0       -3.516292   -0.856227    0.260521
     24          6           0       -2.494052    0.029354   -0.077208
     25          6           0       -1.149298   -0.337952   -0.073614
     26          6           0       -0.823934   -1.649565    0.284654
     27          1           0       -1.565318   -3.578550    0.905692
     28          1           0       -3.948873   -2.868939    0.882203
     29          1           0       -4.546150   -0.520866    0.241967
     30          1           0       -0.392782    0.388552   -0.344343
     31          1           0        0.218043   -1.956554    0.293981
     32          7           0       -2.850794    1.415209   -0.454756
     33          8           0       -1.931463    2.176373   -0.748179
     34          8           0       -4.042984    1.714036   -0.450106
 ---------------------------------------------------------------------

 SCF Done:  E(RHF) =  -669.535485066     A.U. after   15 cycles
 E2 =    -0.2092745624D+01 EUMP2 =    -0.67162823068956D+03

 The electronic state is 1-A.
 Alpha  occ. eigenvalues --  -20.60788 -20.60783 -15.85839 -11.31195 -11.27766
 Alpha  occ. eigenvalues --  -11.27758 -11.27498 -11.26779 -11.26741 -11.22519
 Alpha  occ. eigenvalues --  -11.22124 -11.21889 -11.21888 -11.21750 -11.20989
 Alpha  occ. eigenvalues --   -1.59862  -1.39416  -1.19367  -1.09041  -1.08761
 Alpha  occ. eigenvalues --   -1.04769  -1.04019  -0.96452  -0.95599  -0.87468
 Alpha  occ. eigenvalues --   -0.86168  -0.82434  -0.80126  -0.78778  -0.77489
 Alpha  occ. eigenvalues --   -0.72058  -0.71184  -0.70483  -0.65799  -0.65010
 Alpha  occ. eigenvalues --   -0.64781  -0.62082  -0.61390  -0.59856  -0.58036
 Alpha  occ. eigenvalues --   -0.55752  -0.55264  -0.53136  -0.53096  -0.52906
 Alpha  occ. eigenvalues --   -0.52803  -0.50402  -0.48819  -0.48815  -0.48393
 Alpha  occ. eigenvalues --   -0.47199  -0.46300  -0.46233  -0.44823  -0.44285
 Alpha  occ. eigenvalues --   -0.37346  -0.36367
 Alpha virt. eigenvalues --    0.05034   0.11261   0.16488   0.17807   0.22315
 Alpha virt. eigenvalues --    0.23374   0.25346   0.26246   0.27367   0.28388
 Alpha virt. eigenvalues --    0.29450   0.31006   0.31193   0.31550   0.32599

 Mulliken charges:
               1
     1  C   -0.301666
     2  C   -0.304006
     3  C   -0.477465
     4  H    0.145148
     5  H    0.155655
     6  H    0.142776
     7  H    0.158406
     8  H    0.160641
     9  H    0.153466
    10  H    0.161098
    11  C   -0.301403
    12  C   -0.304349
    13  C   -0.475113
    14  H    0.145465
    15  H    0.152906
    16  H    0.158642
    17  H    0.153244
    18  H    0.153046
    19  H    0.158274
    20  H    0.165750
    21  C   -0.172302
    22  C   -0.218642
    23  C   -0.170432
    24  C    0.158722
    25  C   -0.179113
    26  C   -0.228399
    27  H    0.226298
    28  H    0.223502
    29  H    0.275607
    30  H    0.281724
    31  H    0.236064
    32  N    0.487926
    33  O   -0.461262
    34  O   -0.460208
 Sum of Mulliken charges =  -0.00000

 Dipole moment (field-independent basis, Debye):
    X=              1.4053    Y=             -4.7575    Z=              1.2995  Tot=              5.1281
 Quadrupole moment (field-independent basis, Debye-Ang):
   XX=            -94.5117   YY=            -95.7625   ZZ=            -96.1356
   XY=             13.9850   XZ=             -4.2962   YZ=             -0.3257

 Normal termination of Gaussian 16 at Thu May  6 17:16:26 2021.
