 Gaussian 16, Revision A.03,
 Gaussian 16:  EM64L-G16RevA.03 25-Dec-2016

 -------------
 #p 6-31g* mp2
 -------------

 ------------------------------------------------------
 Input file generated by CHIRIPA (05-May-2021 14:53:13)
 ------------------------------------------------------
 Symbolic Z-matrix:
 Charge =  0 Multiplicity = 1

                         Standard orientation:
 ---------------------------------------------------------------------
 Center     Atomic      Atomic             Coordinates (Angstroms)
 Number     Number       Type             X           Y           Z
 ---------------------------------------------------------------------
      1          6           0       -4.377871   -0.973718    0.182404
      2          6           0       -2.905091   -0.741013   -0.156349
      3          6           0       -2.023049   -1.942419    0.184852
      4          1           0       -4.469251   -1.205375    1.252418
      5          1           0       -4.736397   -1.859030   -0.360806
      6          1           0       -2.549826    0.144409    0.386266
      7          1           0       -2.817228   -0.509694   -1.225642
      8          1           0       -2.349956   -2.829500   -0.367253
      9          1           0       -2.081034   -2.171681    1.253813
     10          1           0       -0.974288   -1.754449   -0.065406
     11          6           0       -5.272331    0.218419   -0.152975
     12          6           0       -6.745111   -0.014286    0.185778
     13          6           0       -7.627153    1.187120   -0.155423
     14          1           0       -4.913804    1.103731    0.390235
     15          1           0       -5.180951    0.450076   -1.222989
     16          1           0       -6.832974   -0.245605    1.255071
     17          1           0       -7.100376   -0.899708   -0.356837
     18          1           0       -7.569167    1.416382   -1.224384
     19          1           0       -7.300246    2.074202    0.396682
     20          1           0       -8.675913    0.999150    0.094835
     21          6           0        1.784397    1.851890    0.021185
     22          6           0        1.589688    0.471597   -0.094571
     23          6           0        2.682277   -0.400429   -0.113736
     24          6           0        3.961533    0.144528   -0.014655
     25          6           0        4.188021    1.515090    0.101757
     26          6           0        3.080658    2.368321    0.118807
     27          1           0        0.929909    2.522000    0.035251
     28          1           0        0.584127    0.067716   -0.170555
     29          1           0        2.560212   -1.473116   -0.202396
     30          1           0        5.202343    1.888048    0.175729
     31          1           0        3.234876    3.439844    0.208805
     32          7           0        5.126030   -0.768698   -0.033825
     33          8           0        6.242983   -0.263558    0.054961
     34          8           0        4.899757   -1.972332   -0.137273
 ---------------------------------------------------------------------

 SCF Done:  E(RHF) =  -669.535466039     A.U. after   15 cycles
 E2 =    -0.2090893255D+01 EUMP2 =    -0.67162635929379D+03

 The electronic state is 1-A.
 Alpha  occ. eigenvalues --  -20.60726 -20.60721 -15.85779 -11.31142 -11.27712
 Alpha  occ. eigenvalues --  -11.27703 -11.27450 -11.26729 -11.26692 -11.22577
 Alpha  occ. eigenvalues --  -11.22124 -11.22106 -11.22095 -11.21995 -11.21514
 Alpha  occ. eigenvalues --   -1.59802  -1.39355  -1.19313  -1.09143  -1.08709
 Alpha  occ. eigenvalues --   -1.04719  -1.04261  -0.96702  -0.95544  -0.87717
 Alpha  occ. eigenvalues --   -0.86114  -0.82379  -0.80334  -0.78929  -0.77429
 Alpha  occ. eigenvalues --   -0.71998  -0.71125  -0.70423  -0.65765  -0.64966
 Alpha  occ. eigenvalues --   -0.64754  -0.62127  -0.61638  -0.60082  -0.58312
 Alpha  occ. eigenvalues --   -0.55957  -0.55218  -0.53474  -0.53185  -0.53046
 Alpha  occ. eigenvalues --   -0.52669  -0.50618  -0.48759  -0.48753  -0.48645
 Alpha  occ. eigenvalues --   -0.47357  -0.46474  -0.46376  -0.44761  -0.44511
 Alpha  occ. eigenvalues --   -0.37295  -0.36319
 Alpha virt. eigenvalues --    0.05109   0.11331   0.16601   0.19311   0.22452
 Alpha virt. eigenvalues --    0.23660   0.25740   0.25922   0.26692   0.27979
 Alpha virt. eigenvalues --    0.28696   0.30421   0.30786   0.31188   0.32304

 Mulliken charges:
               1
     1  C   -0.298727
     2  C   -0.302104
     3  C   -0.478329
     4  H    0.151872
     5  H    0.152567
     6  H    0.146799
     7  H    0.153091
     8  H    0.161966
     9  H    0.160431
    10  H    0.150780
    11  C   -0.298739
    12  C   -0.300258
    13  C   -0.476057
    14  H    0.148473
    15  H    0.150205
    16  H    0.152967
    17  H    0.153345
    18  H    0.155633
    19  H    0.155026
    20  H    0.162034
    21  C   -0.172102
    22  C   -0.226337
    23  C   -0.173008
    24  C    0.158661
    25  C   -0.171241
    26  C   -0.218439
    27  H    0.225986
    28  H    0.234610
    29  H    0.275243
    30  H    0.275447
    31  H    0.223160
    32  N    0.488102
    33  O   -0.460684
    34  O   -0.460372
 Sum of Mulliken charges =  -0.00000

 Dipole moment (field-independent basis, Debye):
    X=             -4.3486    Y=              3.1623    Z=              0.0797  Tot=              5.3775
 Quadrupole moment (field-independent basis, Debye-Ang):
   XX=           -125.4268   YY=            -91.2551   ZZ=            -94.7594
   XY=             15.9383   XZ=              0.6291   YZ=              0.8567

 Normal termination of Gaussian 16 at Thu May  6 17:02:38 2021.
