 Gaussian 16, Revision A.03,
 Gaussian 16:  EM64L-G16RevA.03 25-Dec-2016

 -------------
 #p 6-31g* mp2
 -------------

 ------------------------------------------------------
 Input file generated by CHIRIPA (05-May-2021 14:51:09)
 ------------------------------------------------------
 Symbolic Z-matrix:
 Charge =  0 Multiplicity = 1

                         Standard orientation:
 ---------------------------------------------------------------------
 Center     Atomic      Atomic             Coordinates (Angstroms)
 Number     Number       Type             X           Y           Z
 ---------------------------------------------------------------------
      1          6           0        2.689292    0.928617    0.081494
      2          6           0        2.943476    2.431952   -0.034093
      3          6           0        1.673873    3.262490    0.155927
      4          1           0        1.939897    0.631449   -0.664859
      5          1           0        2.252495    0.712313    1.066287
      6          1           0        3.380945    2.645179   -1.017846
      7          1           0        3.692495    2.725542    0.712494
      8          1           0        1.237647    3.078984    1.143163
      9          1           0        0.924327    2.998163   -0.597010
     10          1           0        1.878485    4.334167    0.069314
     11          6           0        3.949003    0.085024   -0.106139
     12          6           0        3.694819   -1.418311    0.009448
     13          6           0        4.964422   -2.248848   -0.180572
     14          1           0        4.385800    0.301328   -1.090931
     15          1           0        4.698398    0.382193    0.640214
     16          1           0        2.945800   -1.711901   -0.737139
     17          1           0        3.257350   -1.631538    0.993202
     18          1           0        5.713968   -1.984522    0.572365
     19          1           0        5.400649   -2.065342   -1.167807
     20          1           0        4.759810   -3.320526   -0.093959
     21          6           0       -3.883841   -0.131575   -0.339451
     22          6           0       -5.223740   -0.229175    0.390706
     23          6           0       -6.343559    0.526576   -0.325282
     24          1           0       -3.606194    0.926305   -0.443117
     25          1           0       -4.000012   -0.525560   -1.358606
     26          1           0       -5.104733    0.163601    1.408637
     27          1           0       -5.498136   -1.286954    0.492816
     28          1           0       -6.491216    0.130423   -1.335164
     29          1           0       -6.095577    1.589220   -0.414140
     30          1           0       -7.292426    0.443556    0.213810
     31          6           0       -2.754454   -0.882066    0.364096
     32          6           0       -1.414556   -0.784467   -0.366063
     33          6           0       -0.294736   -1.540217    0.349927
     34          1           0       -2.638283   -0.488081    1.383250
     35          1           0       -3.032102   -1.939946    0.467762
     36          1           0       -1.140159    0.273313   -0.468171
     37          1           0       -1.533562   -1.177241   -1.383992
     38          1           0       -0.542718   -2.602860    0.438785
     39          1           0       -0.147080   -1.144064    1.359808
     40          1           0        0.654130   -1.457198   -0.189165
 ---------------------------------------------------------------------

 SCF Done:  E(RHF) =  -470.732241522     A.U. after   11 cycles
 E2 =    -0.1584044021D+01 EUMP2 =    -0.47231628554333D+03

 The electronic state is 1-A.
 Alpha  occ. eigenvalues --  -11.21608 -11.21599 -11.21571 -11.21528 -11.21402
 Alpha  occ. eigenvalues --  -11.21358 -11.21336 -11.21297 -11.21105 -11.21067
 Alpha  occ. eigenvalues --  -11.21047 -11.20870  -1.08458  -1.08365  -1.03544
 Alpha  occ. eigenvalues --   -1.03466  -0.96007  -0.95899  -0.87009  -0.86936
 Alpha  occ. eigenvalues --   -0.79659  -0.79507  -0.78260  -0.78190  -0.65088
 Alpha  occ. eigenvalues --   -0.65007  -0.60952  -0.60858  -0.59463  -0.59212
 Alpha  occ. eigenvalues --   -0.57664  -0.57480  -0.55278  -0.55199  -0.52856
 Alpha  occ. eigenvalues --   -0.52498  -0.52416  -0.52327  -0.49935  -0.49856
 Alpha  occ. eigenvalues --   -0.48006  -0.47801  -0.46657  -0.46570  -0.45776
 Alpha  occ. eigenvalues --   -0.45754  -0.45689  -0.45588  -0.43815  -0.43585
 Alpha virt. eigenvalues --    0.21318   0.23144   0.23718   0.24103   0.25511
 Alpha virt. eigenvalues --    0.26357   0.26700   0.27453   0.28378   0.29610
 Alpha virt. eigenvalues --    0.30221   0.31421   0.31513   0.31852   0.32301

 Mulliken charges:
               1
     1  C   -0.301614
     2  C   -0.299490
     3  C   -0.476224
     4  H    0.152593
     5  H    0.151448
     6  H    0.151827
     7  H    0.151904
     8  H    0.154898
     9  H    0.155290
    10  H    0.160461
    11  C   -0.298227
    12  C   -0.303171
    13  C   -0.475072
    14  H    0.149172
    15  H    0.149611
    16  H    0.153174
    17  H    0.154342
    18  H    0.155145
    19  H    0.154964
    20  H    0.160495
    21  C   -0.298224
    22  C   -0.299574
    23  C   -0.475679
    24  H    0.149665
    25  H    0.149250
    26  H    0.151883
    27  H    0.151838
    28  H    0.155075
    29  H    0.155191
    30  H    0.160138
    31  C   -0.298254
    32  C   -0.301436
    33  C   -0.481572
    34  H    0.149393
    35  H    0.149524
    36  H    0.152728
    37  H    0.150815
    38  H    0.153280
    39  H    0.153826
    40  H    0.170607
 Sum of Mulliken charges =  -0.00000

 Dipole moment (field-independent basis, Debye):
    X=              0.0572    Y=              0.0018    Z=              0.0065  Tot=              0.0576
 Quadrupole moment (field-independent basis, Debye-Ang):
   XX=            -86.2995   YY=            -84.9128   ZZ=            -83.6537
   XY=              1.1997   XZ=              0.0693   YZ=              0.6294

 Normal termination of Gaussian 16 at Thu May  6 00:35:02 2021.
