 Gaussian 16, Revision A.03,
 Gaussian 16:  EM64L-G16RevA.03 25-Dec-2016

 -------------
 #p 6-31g* mp2
 -------------

 ------------------------------------------------------
 Input file generated by CHIRIPA (05-May-2021 14:53:12)
 ------------------------------------------------------
 Symbolic Z-matrix:
 Charge =  0 Multiplicity = 1

                         Standard orientation:
 ---------------------------------------------------------------------
 Center     Atomic      Atomic             Coordinates (Angstroms)
 Number     Number       Type             X           Y           Z
 ---------------------------------------------------------------------
      1          6           0        4.269110   -0.318983    0.332943
      2          6           0        3.326654    0.776992    0.831542
      3          6           0        1.962195    0.234473    1.257826
      4          1           0        3.799898   -0.840570   -0.512475
      5          1           0        4.402608   -1.067110    1.126592
      6          1           0        3.196068    1.523547    0.037678
      7          1           0        3.798246    1.296157    1.675749
      8          1           0        2.073233   -0.494995    2.066620
      9          1           0        1.467634   -0.266313    0.419242
     10          1           0        1.304360    1.034819    1.610756
     11          6           0        5.637154    0.207762   -0.096849
     12          6           0        6.579610   -0.888213   -0.595448
     13          6           0        7.944069   -0.345694   -1.021732
     14          1           0        5.503656    0.955889   -0.890498
     15          1           0        6.106366    0.729349    0.748569
     16          1           0        6.108018   -1.407378   -1.439655
     17          1           0        6.710197   -1.634768    0.198416
     18          1           0        8.438631    0.155092   -0.183148
     19          1           0        7.833031    0.383774   -1.830526
     20          1           0        8.601904   -1.146040   -1.374662
     21          6           0       -1.610896    1.130267    0.195602
     22          6           0       -2.669710    1.853685   -0.363057
     23          6           0       -3.925526    1.261650   -0.527282
     24          6           0       -4.088001   -0.061624   -0.120051
     25          6           0       -3.052657   -0.808552    0.439817
     26          6           0       -1.805405   -0.196204    0.594553
     27          1           0       -0.638675    1.598063    0.319489
     28          1           0       -2.521548    2.883995   -0.673789
     29          1           0       -4.762500    1.798605   -0.956900
     30          1           0       -3.230875   -1.833981    0.740071
     31          1           0       -0.984928   -0.760441    1.028716
     32          7           0       -5.412943   -0.699137   -0.288885
     33          8           0       -5.530315   -1.866324    0.077907
     34          8           0       -6.308974   -0.019562   -0.784811
 ---------------------------------------------------------------------

 SCF Done:  E(RHF) =  -669.535084300     A.U. after   15 cycles
 E2 =    -0.2091617923D+01 EUMP2 =    -0.67162670222320D+03

 The electronic state is 1-A.
 Alpha  occ. eigenvalues --  -20.60687 -20.60682 -15.85739 -11.31080 -11.27650
 Alpha  occ. eigenvalues --  -11.27635 -11.27317 -11.26651 -11.26591 -11.22705
 Alpha  occ. eigenvalues --  -11.22551 -11.22227 -11.22141 -11.22033 -11.21516
 Alpha  occ. eigenvalues --   -1.59763  -1.39317  -1.19244  -1.09244  -1.08639
 Alpha  occ. eigenvalues --   -1.04648  -1.04396  -0.96889  -0.95477  -0.87925
 Alpha  occ. eigenvalues --   -0.86031  -0.82316  -0.80489  -0.78992  -0.77368
 Alpha  occ. eigenvalues --   -0.71957  -0.71086  -0.70372  -0.65872  -0.64893
 Alpha  occ. eigenvalues --   -0.64661  -0.62037  -0.61746  -0.60311  -0.58465
 Alpha  occ. eigenvalues --   -0.56169  -0.55158  -0.53569  -0.53306  -0.52967
 Alpha  occ. eigenvalues --   -0.52683  -0.50795  -0.48811  -0.48714  -0.48679
 Alpha  occ. eigenvalues --   -0.47478  -0.46548  -0.46432  -0.44728  -0.44627
 Alpha  occ. eigenvalues --   -0.37214  -0.36252
 Alpha virt. eigenvalues --    0.05154   0.11344   0.16643   0.20325   0.22300
 Alpha virt. eigenvalues --    0.23699   0.25634   0.25924   0.26464   0.27522
 Alpha virt. eigenvalues --    0.29291   0.29679   0.30589   0.31453   0.32054

 Mulliken charges:
               1
     1  C   -0.299611
     2  C   -0.300182
     3  C   -0.486970
     4  H    0.151015
     5  H    0.151452
     6  H    0.152273
     7  H    0.156177
     8  H    0.161299
     9  H    0.154618
    10  H    0.156617
    11  C   -0.299012
    12  C   -0.300315
    13  C   -0.476147
    14  H    0.150228
    15  H    0.150905
    16  H    0.152858
    17  H    0.152880
    18  H    0.155829
    19  H    0.155718
    20  H    0.162036
    21  C   -0.174970
    22  C   -0.219107
    23  C   -0.171145
    24  C    0.158389
    25  C   -0.171422
    26  C   -0.224262
    27  H    0.230916
    28  H    0.222913
    29  H    0.275055
    30  H    0.275247
    31  H    0.230185
    32  N    0.488042
    33  O   -0.460730
    34  O   -0.460780
 Sum of Mulliken charges =  -0.00000

 Dipole moment (field-independent basis, Debye):
    X=              4.9908    Y=              2.2160    Z=              0.6094  Tot=              5.4946
 Quadrupole moment (field-independent basis, Debye-Ang):
   XX=           -132.9352   YY=            -91.7117   ZZ=            -94.0281
   XY=            -11.6039   XZ=             -1.4666   YZ=             -2.3433

 Normal termination of Gaussian 16 at Thu May  6 07:15:21 2021.
