 Gaussian 16, Revision A.03,
 Gaussian 16:  EM64L-G16RevA.03 25-Dec-2016

 -------------
 #p 6-31g* mp2
 -------------

 ------------------------------------------------------
 Input file generated by CHIRIPA (05-May-2021 14:53:16)
 ------------------------------------------------------
 Symbolic Z-matrix:
 Charge =  0 Multiplicity = 1

                         Standard orientation:
 ---------------------------------------------------------------------
 Center     Atomic      Atomic             Coordinates (Angstroms)
 Number     Number       Type             X           Y           Z
 ---------------------------------------------------------------------
      1          6           0       -3.529576   -0.243222   -0.657239
      2          6           0       -4.188827   -1.404875    0.087030
      3          6           0       -4.475158   -2.601796   -0.820267
      4          1           0       -4.180257    0.069854   -1.485215
      5          1           0       -2.592072   -0.592775   -1.111433
      6          1           0       -5.124117   -1.052882    0.540846
      7          1           0       -3.536590   -1.715096    0.913447
      8          1           0       -3.548036   -2.980283   -1.262752
      9          1           0       -5.144582   -2.314306   -1.637471
     10          1           0       -4.946409   -3.420682   -0.267811
     11          6           0       -3.237096    0.960762    0.236409
     12          6           0       -2.577845    2.122415   -0.507860
     13          6           0       -2.291514    3.319337    0.399437
     14          1           0       -4.174601    1.310316    0.690602
     15          1           0       -2.586416    0.647687    1.064384
     16          1           0       -3.230082    2.432636   -1.334278
     17          1           0       -1.642555    1.770422   -0.961676
     18          1           0       -1.622090    3.031847    1.216640
     19          1           0       -3.218637    3.697823    0.841922
     20          1           0       -1.820263    4.138223   -0.153020
     21          6           0        0.401209   -0.871141    1.159452
     22          6           0        0.691534    0.456095    0.826768
     23          6           0        1.930518    0.795005    0.274857
     24          6           0        2.859982   -0.223168    0.068188
     25          6           0        2.600491   -1.554671    0.389206
     26          6           0        1.354933   -1.870526    0.939996
     27          1           0       -0.563817   -1.125459    1.587754
     28          1           0       -0.047221    1.234308    0.996093
     29          1           0        2.181543    1.814436    0.008091
     30          1           0        3.357145   -2.308544    0.208739
     31          1           0        1.132216   -2.902121    1.197395
     32          7           0        4.175119    0.123417   -0.515503
     33          8           0        4.976901   -0.792074   -0.687721
     34          8           0        4.379239    1.303998   -0.789729
 ---------------------------------------------------------------------

 SCF Done:  E(RHF) =  -669.534885244     A.U. after   15 cycles
 E2 =    -0.2093473890D+01 EUMP2 =    -0.67162835913382D+03

 The electronic state is 1-A.
 Alpha  occ. eigenvalues --  -20.60766 -20.60761 -15.85819 -11.31194 -11.27764
 Alpha  occ. eigenvalues --  -11.27752 -11.27501 -11.26782 -11.26724 -11.22601
 Alpha  occ. eigenvalues --  -11.22541 -11.22513 -11.22277 -11.22169 -11.21822
 Alpha  occ. eigenvalues --   -1.59841  -1.39394  -1.19367  -1.09455  -1.08754
 Alpha  occ. eigenvalues --   -1.04785  -1.04496  -0.96951  -0.95593  -0.87957
 Alpha  occ. eigenvalues --   -0.86172  -0.82426  -0.80556  -0.79244  -0.77479
 Alpha  occ. eigenvalues --   -0.72038  -0.71164  -0.70493  -0.66310  -0.65014
 Alpha  occ. eigenvalues --   -0.64669  -0.62391  -0.61572  -0.60303  -0.58544
 Alpha  occ. eigenvalues --   -0.56315  -0.55226  -0.53609  -0.53364  -0.53095
 Alpha  occ. eigenvalues --   -0.52810  -0.50908  -0.48882  -0.48792  -0.48764
 Alpha  occ. eigenvalues --   -0.47623  -0.46793  -0.46688  -0.44798  -0.44752
 Alpha  occ. eigenvalues --   -0.37341  -0.36359
 Alpha virt. eigenvalues --    0.05043   0.11187   0.16442   0.18302   0.21996
 Alpha virt. eigenvalues --    0.23505   0.24915   0.26037   0.26451   0.28357
 Alpha virt. eigenvalues --    0.29482   0.30776   0.30950   0.31096   0.31951

 Mulliken charges:
               1
     1  C   -0.301169
     2  C   -0.299550
     3  C   -0.476390
     4  H    0.154360
     5  H    0.153028
     6  H    0.155058
     7  H    0.143756
     8  H    0.155846
     9  H    0.158489
    10  H    0.161935
    11  C   -0.298576
    12  C   -0.308258
    13  C   -0.480184
    14  H    0.154523
    15  H    0.137449
    16  H    0.159381
    17  H    0.154732
    18  H    0.147139
    19  H    0.161386
    20  H    0.166370
    21  C   -0.176826
    22  C   -0.225546
    23  C   -0.174611
    24  C    0.158912
    25  C   -0.170886
    26  C   -0.218952
    27  H    0.228743
    28  H    0.237099
    29  H    0.276222
    30  H    0.275637
    31  H    0.223567
    32  N    0.488047
    33  O   -0.460472
    34  O   -0.460259
 Sum of Mulliken charges =  -0.00000

 Dipole moment (field-independent basis, Debye):
    X=             -4.8423    Y=             -1.1653    Z=              1.9062  Tot=              5.3329
 Quadrupole moment (field-independent basis, Debye-Ang):
   XX=           -119.8263   YY=            -89.9055   ZZ=            -95.5443
   XY=             -4.8276   XZ=              6.1558   YZ=             -1.4768

 Normal termination of Gaussian 16 at Thu May  6 13:52:36 2021.
