 Gaussian 16, Revision A.03,
 Gaussian 16:  EM64L-G16RevA.03 25-Dec-2016

 -------------
 #p 6-31g* mp2
 -------------

 ------------------------------------------------------
 Input file generated by CHIRIPA (05-May-2021 14:57:24)
 ------------------------------------------------------
 Symbolic Z-matrix:
 Charge =  0 Multiplicity = 1

                         Standard orientation:
 ---------------------------------------------------------------------
 Center     Atomic      Atomic             Coordinates (Angstroms)
 Number     Number       Type             X           Y           Z
 ---------------------------------------------------------------------
      1          6           0        1.334070    1.815786    0.956330
      2          6           0        1.999818    1.976764   -0.263255
      3          6           0        2.954517    1.044125   -0.679526
      4          6           0        3.219964   -0.042524    0.152354
      5          6           0        2.573476   -0.230574    1.373001
      6          6           0        1.622515    0.714572    1.769132
      7          1           0        0.593889    2.545141    1.271876
      8          1           0        1.777836    2.831008   -0.896529
      9          1           0        3.484752    1.144338   -1.618795
     10          1           0        2.816138   -1.092379    1.982777
     11          1           0        1.107042    0.586996    2.716791
     12          7           0        4.228683   -1.036487   -0.277673
     13          8           0        4.444492   -1.985171    0.473369
     14          8           0        4.784407   -0.848052   -1.357626
     15          6           0       -2.251866    2.251151   -0.530578
     16          6           0       -3.461304    2.000525    0.125901
     17          6           0       -3.915377    0.690027    0.301860
     18          6           0       -3.131235   -0.350653   -0.193514
     19          6           0       -1.921869   -0.133214   -0.851878
     20          6           0       -1.487356    1.185361   -1.016516
     21          1           0       -1.906729    3.272315   -0.662871
     22          1           0       -4.057109    2.826272    0.504325
     23          1           0       -4.847826    0.467530    0.806294
     24          1           0       -1.349813   -0.977014   -1.218173
     25          1           0       -0.547686    1.377016   -1.526744
     26          7           0       -3.601588   -1.742294   -0.013227
     27          8           0       -2.892293   -2.641697   -0.458886
     28          8           0       -4.670639   -1.907309    0.570327
 ---------------------------------------------------------------------

 SCF Done:  E(RHF) =  -868.335684976     A.U. after   16 cycles
 E2 =    -0.2602657015D+01 EUMP2 =    -0.87093834199123D+03

 The electronic state is 1-A.
 Alpha  occ. eigenvalues --  -20.61179 -20.61170 -20.61165 -20.61159 -15.86240
 Alpha  occ. eigenvalues --  -15.86221 -11.31765 -11.31730 -11.28457 -11.28347
 Alpha  occ. eigenvalues --  -11.28272 -11.28218 -11.28183 -11.28116 -11.27502
 Alpha  occ. eigenvalues --  -11.27398 -11.27327 -11.27289  -1.60249  -1.60240
 Alpha  occ. eigenvalues --   -1.39798  -1.39788  -1.20009  -1.19897  -1.09405
 Alpha  occ. eigenvalues --   -1.09263  -1.05439  -1.05295  -0.96174  -0.96088
 Alpha  occ. eigenvalues --   -0.86883  -0.86656  -0.82985  -0.82913  -0.78012
 Alpha  occ. eigenvalues --   -0.77912  -0.72455  -0.72432  -0.71580  -0.71568
 Alpha  occ. eigenvalues --   -0.71167  -0.70985  -0.65687  -0.65562  -0.65514
 Alpha  occ. eigenvalues --   -0.65207  -0.62794  -0.62604  -0.55993  -0.55839
 Alpha  occ. eigenvalues --   -0.54110  -0.53562  -0.53481  -0.53138  -0.49228
 Alpha  occ. eigenvalues --   -0.49205  -0.49194  -0.49182  -0.45168  -0.45161
 Alpha  occ. eigenvalues --   -0.38487  -0.37709  -0.37043  -0.36569
 Alpha virt. eigenvalues --    0.04516   0.04554   0.10238   0.11002   0.15860
 Alpha virt. eigenvalues --    0.16006   0.19614   0.21782   0.25799   0.26725
 Alpha virt. eigenvalues --    0.27579   0.28961   0.29848   0.30980   0.31825

 Mulliken charges:
               1
     1  C   -0.162956
     2  C   -0.231189
     3  C   -0.172300
     4  C    0.157726
     5  C   -0.168517
     6  C   -0.219080
     7  H    0.224908
     8  H    0.218397
     9  H    0.276944
    10  H    0.279901
    11  H    0.227536
    12  N    0.488179
    13  O   -0.456914
    14  O   -0.459983
    15  C   -0.181239
    16  C   -0.218276
    17  C   -0.172473
    18  C    0.158875
    19  C   -0.172726
    20  C   -0.214210
    21  H    0.219933
    22  H    0.223891
    23  H    0.276813
    24  H    0.279292
    25  H    0.226778
    26  N    0.487559
    27  O   -0.457309
    28  O   -0.459560
 Sum of Mulliken charges =  -0.00000

 Dipole moment (field-independent basis, Debye):
    X=             -1.8160    Y=              8.1276    Z=              1.0115  Tot=              8.3892
 Quadrupole moment (field-independent basis, Debye-Ang):
   XX=           -135.2623   YY=           -108.1134   ZZ=           -100.1391
   XY=             -5.6881   XZ=              3.3065   YZ=             -1.7398

 Normal termination of Gaussian 16 at Wed May  5 16:25:08 2021.
