 Gaussian 16, Revision A.03,
 Gaussian 16:  EM64L-G16RevA.03 25-Dec-2016

 -------------
 #p 6-31g* mp2
 -------------

 ------------------------------------------------------
 Input file generated by CHIRIPA (05-May-2021 14:51:12)
 ------------------------------------------------------
 Symbolic Z-matrix:
 Charge =  0 Multiplicity = 1

                         Standard orientation:
 ---------------------------------------------------------------------
 Center     Atomic      Atomic             Coordinates (Angstroms)
 Number     Number       Type             X           Y           Z
 ---------------------------------------------------------------------
      1          6           0        4.393641   -0.469044   -0.280221
      2          6           0        5.525176   -1.158293    0.483028
      3          6           0        6.065434   -2.389322   -0.245314
      4          1           0        3.578713   -1.187644   -0.442861
      5          1           0        4.756537   -0.177453   -1.275549
      6          1           0        5.160660   -1.447261    1.477132
      7          1           0        6.337425   -0.437915    0.644038
      8          1           0        6.455213   -2.113799   -1.230586
      9          1           0        5.271762   -3.128880   -0.392758
     10          1           0        6.873477   -2.866547    0.317876
     11          6           0        3.843094    0.763337    0.435225
     12          6           0        2.711560    1.452586   -0.328025
     13          6           0        2.171302    2.683615    0.400317
     14          1           0        3.480199    0.471746    1.430552
     15          1           0        4.658022    1.481937    0.597865
     16          1           0        1.899311    0.732208   -0.489034
     17          1           0        3.076076    1.741554   -1.322128
     18          1           0        2.964973    3.423173    0.547762
     19          1           0        1.781523    2.408092    1.385589
     20          1           0        1.363259    3.160840   -0.162873
     21          6           0       -4.864908   -0.005660   -0.155544
     22          6           0       -5.754190   -1.123906    0.389149
     23          6           0       -7.244995   -0.826232    0.225803
     24          1           0       -5.111258    0.933412    0.358654
     25          1           0       -5.094202    0.150680   -1.218737
     26          1           0       -5.522313   -1.279031    1.450650
     27          1           0       -5.505562   -2.060465   -0.126271
     28          1           0       -7.497551   -0.692259   -0.831016
     29          1           0       -7.514397    0.093615    0.754864
     30          1           0       -7.862338   -1.638592    0.621805
     31          6           0       -3.371828   -0.288633    0.000541
     32          6           0       -2.482546    0.829612   -0.544153
     33          6           0       -0.991741    0.531939   -0.380806
     34          1           0       -3.142533   -0.444973    1.063733
     35          1           0       -3.125478   -1.227705   -0.513657
     36          1           0       -2.731173    1.766172   -0.028733
     37          1           0       -2.714423    0.984738   -1.605654
     38          1           0       -0.722339   -0.387908   -0.909867
     39          1           0       -0.739184    0.397966    0.676014
     40          1           0       -0.374397    1.344300   -0.776808
 ---------------------------------------------------------------------

 SCF Done:  E(RHF) =  -470.732386283     A.U. after   11 cycles
 E2 =    -0.1583207153D+01 EUMP2 =    -0.47231559343530D+03

 The electronic state is 1-A.
 Alpha  occ. eigenvalues --  -11.21609 -11.21602 -11.21561 -11.21439 -11.21413
 Alpha  occ. eigenvalues --  -11.21353 -11.21339 -11.21275 -11.21077 -11.21060
 Alpha  occ. eigenvalues --  -11.21041 -11.21013  -1.08443  -1.08358  -1.03576
 Alpha  occ. eigenvalues --   -1.03436  -0.96052  -0.95874  -0.87029  -0.86935
 Alpha  occ. eigenvalues --   -0.79680  -0.79474  -0.78266  -0.78157  -0.65072
 Alpha  occ. eigenvalues --   -0.64999  -0.60988  -0.60882  -0.59616  -0.59082
 Alpha  occ. eigenvalues --   -0.57737  -0.57377  -0.55337  -0.55168  -0.52788
 Alpha  occ. eigenvalues --   -0.52527  -0.52468  -0.52241  -0.49977  -0.49819
 Alpha  occ. eigenvalues --   -0.47960  -0.47810  -0.46651  -0.46546  -0.45832
 Alpha  occ. eigenvalues --   -0.45719  -0.45698  -0.45622  -0.43728  -0.43706
 Alpha virt. eigenvalues --    0.21947   0.23000   0.23501   0.25051   0.26245
 Alpha virt. eigenvalues --    0.26569   0.26917   0.27403   0.27763   0.29076
 Alpha virt. eigenvalues --    0.29718   0.31035   0.31486   0.31870   0.32268

 Mulliken charges:
               1
     1  C   -0.298269
     2  C   -0.299577
     3  C   -0.475665
     4  H    0.149677
     5  H    0.149314
     6  H    0.151813
     7  H    0.151843
     8  H    0.155087
     9  H    0.155086
    10  H    0.160096
    11  C   -0.297451
    12  C   -0.308488
    13  C   -0.475923
    14  H    0.149035
    15  H    0.149012
    16  H    0.163910
    17  H    0.150688
    18  H    0.155026
    19  H    0.155355
    20  H    0.159159
    21  C   -0.298285
    22  C   -0.299598
    23  C   -0.475703
    24  H    0.149696
    25  H    0.149539
    26  H    0.151887
    27  H    0.151904
    28  H    0.155198
    29  H    0.155204
    30  H    0.160260
    31  C   -0.298617
    32  C   -0.300475
    33  C   -0.479950
    34  H    0.149356
    35  H    0.149516
    36  H    0.152108
    37  H    0.151886
    38  H    0.154122
    39  H    0.155037
    40  H    0.167188
 Sum of Mulliken charges =  -0.00000

 Dipole moment (field-independent basis, Debye):
    X=             -0.0297    Y=             -0.0032    Z=             -0.0068  Tot=              0.0306
 Quadrupole moment (field-independent basis, Debye-Ang):
   XX=            -86.0628   YY=            -85.1532   ZZ=            -83.8775
   XY=              0.8744   XZ=             -0.2034   YZ=             -0.2301

 Normal termination of Gaussian 16 at Wed May  5 15:18:33 2021.
