 Gaussian 16, Revision A.03,
 Gaussian 16:  EM64L-G16RevA.03 25-Dec-2016

 -------------
 #p 6-31g* mp2
 -------------

 ------------------------------------------------------
 Input file generated by CHIRIPA (05-May-2021 14:57:24)
 ------------------------------------------------------
 Symbolic Z-matrix:
 Charge =  0 Multiplicity = 1

                         Standard orientation:
 ---------------------------------------------------------------------
 Center     Atomic      Atomic             Coordinates (Angstroms)
 Number     Number       Type             X           Y           Z
 ---------------------------------------------------------------------
      1          6           0       -3.044395   -2.377348   -0.169019
      2          6           0       -2.325952   -1.775680    0.869420
      3          6           0       -2.300494   -0.384156    1.001934
      4          6           0       -3.007918    0.378709    0.074099
      5          6           0       -3.732981   -0.191134   -0.971298
      6          6           0       -3.744382   -1.584552   -1.084450
      7          1           0       -3.058712   -3.459053   -0.264439
      8          1           0       -1.781407   -2.388877    1.581814
      9          1           0       -1.752470    0.107765    1.796353
     10          1           0       -4.266056    0.446461   -1.666079
     11          1           0       -4.303191   -2.049076   -1.891912
     12          7           0       -2.988407    1.852857    0.204136
     13          8           0       -3.619884    2.502713   -0.626262
     14          8           0       -2.342008    2.330524    1.133996
     15          6           0        4.113371    2.121510   -0.288801
     16          6           0        4.886721    0.956824   -0.332997
     17          6           0        4.286681   -0.299228   -0.203246
     18          6           0        2.904574   -0.353976   -0.029838
     19          6           0        2.106987    0.788313    0.018346
     20          6           0        2.728414    2.033693   -0.113579
     21          1           0        4.587803    3.093097   -0.390440
     22          1           0        5.962504    1.021995   -0.468969
     23          1           0        4.861490   -1.216877   -0.233799
     24          1           0        1.036776    0.691433    0.155030
     25          1           0        2.125315    2.936529   -0.078873
     26          7           0        2.258018   -1.678052    0.108675
     27          8           0        1.038535   -1.699342    0.260484
     28          8           0        2.982972   -2.669503    0.062809
 ---------------------------------------------------------------------

 SCF Done:  E(RHF) =  -868.340289356     A.U. after   16 cycles
 E2 =    -0.2599680135D+01 EUMP2 =    -0.87093996949175D+03

 The electronic state is 1-A.
 Alpha  occ. eigenvalues --  -20.61144 -20.61105 -20.60657 -20.60621 -15.86158
 Alpha  occ. eigenvalues --  -15.85672 -11.31240 -11.30654 -11.27793 -11.27726
 Alpha  occ. eigenvalues --  -11.27448 -11.27150 -11.27083 -11.26754 -11.26713
 Alpha  occ. eigenvalues --  -11.26643 -11.26128 -11.25923  -1.60202  -1.59725
 Alpha  occ. eigenvalues --   -1.39765  -1.39289  -1.19381  -1.18743  -1.08832
 Alpha  occ. eigenvalues --   -1.08206  -1.04728  -1.04064  -0.95716  -0.95117
 Alpha  occ. eigenvalues --   -0.86145  -0.85491  -0.82560  -0.81950  -0.77640
 Alpha  occ. eigenvalues --   -0.77054  -0.72407  -0.71898  -0.71509  -0.71049
 Alpha  occ. eigenvalues --   -0.70485  -0.69843  -0.65033  -0.64718  -0.64384
 Alpha  occ. eigenvalues --   -0.64047  -0.62074  -0.61426  -0.55247  -0.54571
 Alpha  occ. eigenvalues --   -0.53089  -0.52812  -0.52404  -0.52147  -0.49159
 Alpha  occ. eigenvalues --   -0.49125  -0.48676  -0.48612  -0.45234  -0.44780
 Alpha  occ. eigenvalues --   -0.37353  -0.36681  -0.36322  -0.35586
 Alpha virt. eigenvalues --    0.04856   0.05411   0.11328   0.11937   0.16418
 Alpha virt. eigenvalues --    0.17054   0.21357   0.22230   0.26836   0.27856
 Alpha virt. eigenvalues --    0.28514   0.29183   0.30980   0.31637   0.32132

 Mulliken charges:
               1
     1  C   -0.171025
     2  C   -0.199049
     3  C   -0.173299
     4  C    0.154847
     5  C   -0.173834
     6  C   -0.218089
     7  H    0.226974
     8  H    0.232513
     9  H    0.270702
    10  H    0.271872
    11  H    0.221194
    12  N    0.487551
    13  O   -0.461328
    14  O   -0.468091
    15  C   -0.170321
    16  C   -0.218791
    17  C   -0.171260
    18  C    0.156942
    19  C   -0.172211
    20  C   -0.219738
    21  H    0.227203
    22  H    0.223376
    23  H    0.274335
    24  H    0.276604
    25  H    0.232284
    26  N    0.492292
    27  O   -0.471268
    28  O   -0.460383
 Sum of Mulliken charges =  -0.00000

 Dipole moment (field-independent basis, Debye):
    X=              2.3702    Y=             -0.7042    Z=             -0.9072  Tot=              2.6338
 Quadrupole moment (field-independent basis, Debye-Ang):
   XX=            -86.5665   YY=           -111.6549   ZZ=           -102.7988
   XY=             27.1654   XZ=              1.9446   YZ=             -0.9223

 Normal termination of Gaussian 16 at Thu May  6 18:02:07 2021.
