 Gaussian 16, Revision A.03,
 Gaussian 16:  EM64L-G16RevA.03 25-Dec-2016

 -------------
 #p 6-31g* mp2
 -------------

 ------------------------------------------------------
 Input file generated by CHIRIPA (05-May-2021 14:55:23)
 ------------------------------------------------------
 Symbolic Z-matrix:
 Charge =  0 Multiplicity = 1

                         Standard orientation:
 ---------------------------------------------------------------------
 Center     Atomic      Atomic             Coordinates (Angstroms)
 Number     Number       Type             X           Y           Z
 ---------------------------------------------------------------------
      1          6           0       -5.098129    1.522138    0.059839
      2          6           0       -3.879554    1.926922    0.614587
      3          6           0       -2.771035    1.075342    0.591197
      4          6           0       -2.917166   -0.179739    0.002379
      5          6           0       -4.117914   -0.611867   -0.558654
      6          6           0       -5.213217    0.256268   -0.523982
      7          1           0       -5.954120    2.190096    0.082391
      8          1           0       -3.787265    2.909446    1.068651
      9          1           0       -1.815877    1.363272    1.013320
     10          1           0       -4.179248   -1.597277   -1.004326
     11          1           0       -6.158344   -0.060759   -0.955576
     12          7           0       -1.750622   -1.090031   -0.028355
     13          8           0       -1.905253   -2.190710   -0.552982
     14          8           0       -0.703744   -0.685603    0.472765
     15          6           0        4.067793   -0.700241   -0.184715
     16          6           0        3.117907   -1.622099    0.580713
     17          6           0        3.305493   -3.095894    0.219419
     18          1           0        3.911759   -0.837518   -1.263490
     19          1           0        5.104474   -1.000282    0.021836
     20          1           0        2.083360   -1.319536    0.373871
     21          1           0        3.276087   -1.482472    1.657792
     22          1           0        4.327133   -3.420171    0.442351
     23          1           0        3.127629   -3.256310   -0.848866
     24          1           0        2.616523   -3.737041    0.778087
     25          6           0        3.892338    0.776303    0.165658
     26          6           0        4.842224    1.698161   -0.599771
     27          6           0        4.654638    3.171956   -0.238476
     28          1           0        2.855658    1.076344   -0.040894
     29          1           0        4.048372    0.913580    1.244431
     30          1           0        4.684044    1.558533   -1.676850
     31          1           0        5.876771    1.395597   -0.392928
     32          1           0        4.832502    3.332372    0.829808
     33          1           0        3.632999    3.496233   -0.461409
     34          1           0        5.343608    3.813103   -0.797146
 ---------------------------------------------------------------------

 SCF Done:  E(RHF) =  -669.536346883     A.U. after   15 cycles
 E2 =    -0.2091000261D+01 EUMP2 =    -0.67162734714439D+03

 The electronic state is 1-A.
 Alpha  occ. eigenvalues --  -20.61022 -20.61009 -15.86045 -11.31339 -11.27897
 Alpha  occ. eigenvalues --  -11.27894 -11.27630 -11.26898 -11.26889 -11.20932
 Alpha  occ. eigenvalues --  -11.20596 -11.20463 -11.20239 -11.19943 -11.19679
 Alpha  occ. eigenvalues --   -1.60075  -1.39631  -1.19504  -1.08913  -1.07394
 Alpha  occ. eigenvalues --   -1.04895  -1.02472  -0.95759  -0.94979  -0.86297
 Alpha  occ. eigenvalues --   -0.86006  -0.82594  -0.78579  -0.77651  -0.77123
 Alpha  occ. eigenvalues --   -0.72264  -0.71386  -0.70612  -0.65160  -0.64898
 Alpha  occ. eigenvalues --   -0.64026  -0.62242  -0.59864  -0.58387  -0.56549
 Alpha  occ. eigenvalues --   -0.55400  -0.54286  -0.53229  -0.52986  -0.51688
 Alpha  occ. eigenvalues --   -0.51400  -0.49115  -0.49017  -0.48900  -0.46874
 Alpha  occ. eigenvalues --   -0.45600  -0.45066  -0.44704  -0.44454  -0.42734
 Alpha  occ. eigenvalues --   -0.37482  -0.36495
 Alpha virt. eigenvalues --    0.04876   0.11160   0.16378   0.21290   0.23818
 Alpha virt. eigenvalues --    0.25376   0.27216   0.27593   0.28107   0.28658
 Alpha virt. eigenvalues --    0.28984   0.30886   0.32322   0.32431   0.32736

 Mulliken charges:
               1
     1  C   -0.170497
     2  C   -0.218557
     3  C   -0.170928
     4  C    0.157421
     5  C   -0.170419
     6  C   -0.218619
     7  H    0.226178
     8  H    0.224078
     9  H    0.275981
    10  H    0.275966
    11  H    0.223968
    12  N    0.491327
    13  O   -0.458527
    14  O   -0.462482
    15  C   -0.297137
    16  C   -0.312680
    17  C   -0.473654
    18  H    0.147640
    19  H    0.144180
    20  H    0.184193
    21  H    0.145170
    22  H    0.147145
    23  H    0.153962
    24  H    0.162446
    25  C   -0.297930
    26  C   -0.298764
    27  C   -0.474727
    28  H    0.152700
    29  H    0.147003
    30  H    0.150839
    31  H    0.150389
    32  H    0.153775
    33  H    0.152793
    34  H    0.157765
 Sum of Mulliken charges =  -0.00000

 Dipole moment (field-independent basis, Debye):
    X=             -4.5214    Y=              3.1685    Z=              0.1036  Tot=              5.5221
 Quadrupole moment (field-independent basis, Debye-Ang):
   XX=            -70.6125   YY=            -95.5440   ZZ=            -93.9472
   XY=             -6.6526   XZ=              1.7053   YZ=              1.7691

 Normal termination of Gaussian 16 at Wed May  5 16:01:11 2021.
