 Gaussian 16, Revision A.03,
 Gaussian 16:  EM64L-G16RevA.03 25-Dec-2016

 -------------
 #p 6-31g* mp2
 -------------

 ------------------------------------------------------
 Input file generated by CHIRIPA (05-May-2021 14:51:14)
 ------------------------------------------------------
 Symbolic Z-matrix:
 Charge =  0 Multiplicity = 1

                         Standard orientation:
 ---------------------------------------------------------------------
 Center     Atomic      Atomic             Coordinates (Angstroms)
 Number     Number       Type             X           Y           Z
 ---------------------------------------------------------------------
      1          6           0        2.974498    0.345279    1.051576
      2          6           0        1.634233    1.046987    0.829584
      3          6           0        1.129522    1.766873    2.080513
      4          1           0        2.872097   -0.375069    1.874715
      5          1           0        3.719024    1.085827    1.375095
      6          1           0        0.892801    0.305570    0.505245
      7          1           0        1.739785    1.765611    0.006751
      8          1           0        1.847841    2.527295    2.403589
      9          1           0        0.996044    1.058958    2.904917
     10          1           0        0.170178    2.261581    1.899455
     11          6           0        3.492132   -0.378891   -0.189940
     12          6           0        4.832397   -1.080599    0.032053
     13          6           0        5.337108   -1.800485   -1.218877
     14          1           0        2.747606   -1.119439   -0.513459
     15          1           0        3.594533    0.341457   -1.013079
     16          1           0        4.726845   -1.799223    0.854886
     17          1           0        5.573829   -0.339182    0.356391
     18          1           0        5.470586   -1.092570   -2.043280
     19          1           0        4.618789   -2.560907   -1.541953
     20          1           0        6.296452   -2.295193   -1.037819
     21          6           0       -3.451596   -0.709550   -0.340311
     22          6           0       -4.684867   -0.865643    0.550005
     23          6           0       -5.109319   -2.324482    0.721542
     24          1           0       -3.659727   -1.150539   -1.324768
     25          1           0       -2.621286   -1.285677    0.091036
     26          1           0       -5.512211   -0.288274    0.117846
     27          1           0       -4.473841   -0.424060    1.532394
     28          1           0       -4.302376   -2.909805    1.174135
     29          1           0       -5.346645   -2.773247   -0.248452
     30          1           0       -5.992741   -2.412964    1.361537
     31          6           0       -3.015035    0.743163   -0.521325
     32          6           0       -1.781763    0.899255   -1.411641
     33          6           0       -1.357311    2.358094   -1.583178
     34          1           0       -3.845343    1.319289   -0.952672
     35          1           0       -2.806902    1.184151    0.463132
     36          1           0       -1.992789    0.457672   -2.394031
     37          1           0       -0.954419    0.321886   -0.979482
     38          1           0       -1.119985    2.806859   -0.613185
     39          1           0       -2.164255    2.943417   -2.035772
     40          1           0       -0.473889    2.446576   -2.223174
 ---------------------------------------------------------------------

 SCF Done:  E(RHF) =  -470.733038574     A.U. after   11 cycles
 E2 =    -0.1583515764D+01 EUMP2 =    -0.47231655433738D+03

 The electronic state is 1-A.
 Alpha  occ. eigenvalues --  -11.21619 -11.21618 -11.21599 -11.21528 -11.21430
 Alpha  occ. eigenvalues --  -11.21396 -11.21371 -11.21334 -11.21136 -11.21083
 Alpha  occ. eigenvalues --  -11.21073 -11.21035  -1.08471  -1.08403  -1.03595
 Alpha  occ. eigenvalues --   -1.03475  -0.96027  -0.95947  -0.87030  -0.86977
 Alpha  occ. eigenvalues --   -0.79673  -0.79536  -0.78314  -0.78188  -0.65152
 Alpha  occ. eigenvalues --   -0.65001  -0.61055  -0.60878  -0.59374  -0.59301
 Alpha  occ. eigenvalues --   -0.57617  -0.57572  -0.55302  -0.55228  -0.52711
 Alpha  occ. eigenvalues --   -0.52655  -0.52456  -0.52367  -0.50005  -0.49867
 Alpha  occ. eigenvalues --   -0.48046  -0.47851  -0.46882  -0.46437  -0.45948
 Alpha  occ. eigenvalues --   -0.45765  -0.45748  -0.45379  -0.43809  -0.43763
 Alpha virt. eigenvalues --    0.20115   0.23127   0.23521   0.25120   0.25314
 Alpha virt. eigenvalues --    0.26188   0.26677   0.27768   0.28377   0.29079
 Alpha virt. eigenvalues --    0.30227   0.30922   0.31440   0.32000   0.32454

 Mulliken charges:
               1
     1  C   -0.297867
     2  C   -0.304942
     3  C   -0.477878
     4  H    0.149388
     5  H    0.149635
     6  H    0.156032
     7  H    0.154407
     8  H    0.155824
     9  H    0.155093
    10  H    0.160963
    11  C   -0.298316
    12  C   -0.299640
    13  C   -0.475738
    14  H    0.149238
    15  H    0.149744
    16  H    0.151934
    17  H    0.152019
    18  H    0.155228
    19  H    0.155254
    20  H    0.160313
    21  C   -0.298036
    22  C   -0.299667
    23  C   -0.475687
    24  H    0.149734
    25  H    0.148637
    26  H    0.152003
    27  H    0.152043
    28  H    0.155019
    29  H    0.155168
    30  H    0.160279
    31  C   -0.298629
    32  C   -0.305133
    33  C   -0.476842
    34  H    0.149494
    35  H    0.149495
    36  H    0.151622
    37  H    0.158164
    38  H    0.156955
    39  H    0.154611
    40  H    0.160078
 Sum of Mulliken charges =  -0.00000

 Dipole moment (field-independent basis, Debye):
    X=              0.0282    Y=              0.0046    Z=             -0.0009  Tot=              0.0286
 Quadrupole moment (field-independent basis, Debye-Ang):
   XX=            -84.6347   YY=            -85.3976   ZZ=            -84.7720
   XY=              0.2663   XZ=              0.8378   YZ=             -0.5517

 Normal termination of Gaussian 16 at Wed May  5 21:39:01 2021.
