 Gaussian 16, Revision A.03,
 Gaussian 16:  EM64L-G16RevA.03 25-Dec-2016

 -------------
 #p 6-31g* mp2
 -------------

 ------------------------------------------------------
 Input file generated by CHIRIPA (05-May-2021 14:51:07)
 ------------------------------------------------------
 Symbolic Z-matrix:
 Charge =  0 Multiplicity = 1

                         Standard orientation:
 ---------------------------------------------------------------------
 Center     Atomic      Atomic             Coordinates (Angstroms)
 Number     Number       Type             X           Y           Z
 ---------------------------------------------------------------------
      1          6           0       -2.879112    0.952486    0.116794
      2          6           0       -2.261410    1.834206   -0.969024
      3          6           0       -2.735101    3.285927   -0.892111
      4          1           0       -3.973726    0.987595    0.030012
      5          1           0       -2.630230    1.368608    1.102844
      6          1           0       -2.510221    1.415769   -1.952700
      7          1           0       -1.168134    1.796842   -0.879767
      8          1           0       -2.473035    3.725912    0.075533
      9          1           0       -3.822747    3.342673   -1.003496
     10          1           0       -2.281231    3.898460   -1.677392
     11          6           0       -2.415226   -0.501635    0.053000
     12          6           0       -3.032928   -1.383355    1.138818
     13          6           0       -2.559237   -2.835076    1.061905
     14          1           0       -2.664108   -0.917757   -0.933050
     15          1           0       -1.320612   -0.536744    0.139781
     16          1           0       -4.126204   -1.345991    1.049561
     17          1           0       -2.784117   -0.964917    2.122494
     18          1           0       -1.471590   -2.891822    1.173290
     19          1           0       -2.821303   -3.275061    0.094261
     20          1           0       -3.013107   -3.447609    1.847186
     21          6           0        2.542857    0.529106   -0.028036
     22          6           0        3.575831    1.218527    0.863955
     23          6           0        3.353917    2.727753    0.967812
     24          1           0        2.577252    0.976090   -1.031015
     25          1           0        1.536957    0.726368    0.367752
     26          1           0        4.579570    1.018872    0.467392
     27          1           0        3.539106    0.769718    1.864875
     28          1           0        2.364886    2.943928    1.384568
     29          1           0        3.411261    3.194498   -0.020855
     30          1           0        4.103450    3.200482    1.610141
     31          6           0        2.751481   -0.979957   -0.141758
     32          6           0        1.718507   -1.669378   -1.033750
     33          6           0        1.940420   -3.178604   -1.137605
     34          1           0        3.757381   -1.177218   -0.537545
     35          1           0        2.717086   -1.426942    0.861221
     36          1           0        1.755232   -1.220569   -2.034668
     37          1           0        0.714768   -1.469723   -0.637186
     38          1           0        1.883076   -3.645349   -0.148939
     39          1           0        2.929452   -3.394780   -1.554362
     40          1           0        1.190887   -3.651333   -1.779935
 ---------------------------------------------------------------------

 SCF Done:  E(RHF) =  -470.733334902     A.U. after   11 cycles
 E2 =    -0.1583626841D+01 EUMP2 =    -0.47231696174352D+03

 The electronic state is 1-A.
 Alpha  occ. eigenvalues --  -11.21643 -11.21634 -11.21588 -11.21564 -11.21451
 Alpha  occ. eigenvalues --  -11.21424 -11.21380 -11.21364 -11.21107 -11.21105
 Alpha  occ. eigenvalues --  -11.21062 -11.21054  -1.08478  -1.08433  -1.03558
 Alpha  occ. eigenvalues --   -1.03529  -0.95998  -0.95993  -0.87028  -0.86995
 Alpha  occ. eigenvalues --   -0.79653  -0.79564  -0.78401  -0.78143  -0.65240
 Alpha  occ. eigenvalues --   -0.64949  -0.61034  -0.60858  -0.59397  -0.59327
 Alpha  occ. eigenvalues --   -0.57613  -0.57595  -0.55308  -0.55266  -0.52697
 Alpha  occ. eigenvalues --   -0.52675  -0.52457  -0.52387  -0.50002  -0.49884
 Alpha  occ. eigenvalues --   -0.48046  -0.47837  -0.46823  -0.46553  -0.46252
 Alpha  occ. eigenvalues --   -0.45779  -0.45757  -0.45122  -0.43806  -0.43794
 Alpha virt. eigenvalues --    0.19997   0.22704   0.23642   0.24586   0.25094
 Alpha virt. eigenvalues --    0.26817   0.27051   0.27407   0.28488   0.30007
 Alpha virt. eigenvalues --    0.30757   0.31504   0.31616   0.31922   0.32030

 Mulliken charges:
               1
     1  C   -0.297362
     2  C   -0.301785
     3  C   -0.475586
     4  H    0.149815
     5  H    0.148937
     6  H    0.151999
     7  H    0.154209
     8  H    0.155030
     9  H    0.155079
    10  H    0.160422
    11  C   -0.307133
    12  C   -0.299233
    13  C   -0.476686
    14  H    0.149776
    15  H    0.157612
    16  H    0.152261
    17  H    0.151520
    18  H    0.155554
    19  H    0.155507
    20  H    0.160502
    21  C   -0.301018
    22  C   -0.299658
    23  C   -0.475704
    24  H    0.150222
    25  H    0.150275
    26  H    0.152378
    27  H    0.151945
    28  H    0.154850
    29  H    0.155399
    30  H    0.160474
    31  C   -0.297716
    32  C   -0.309305
    33  C   -0.475025
    34  H    0.149824
    35  H    0.149066
    36  H    0.152036
    37  H    0.161001
    38  H    0.154770
    39  H    0.154998
    40  H    0.160749
 Sum of Mulliken charges =  -0.00000

 Dipole moment (field-independent basis, Debye):
    X=             -0.0032    Y=             -0.0025    Z=             -0.0151  Tot=              0.0156
 Quadrupole moment (field-independent basis, Debye-Ang):
   XX=            -83.8322   YY=            -87.1086   ZZ=            -83.7513
   XY=              0.6287   XZ=             -0.0064   YZ=             -0.0917

 Normal termination of Gaussian 16 at Thu May  6 08:24:05 2021.
