 Gaussian 16, Revision A.03,
 Gaussian 16:  EM64L-G16RevA.03 25-Dec-2016

 -------------
 #p 6-31g* mp2
 -------------

 ------------------------------------------------------
 Input file generated by CHIRIPA (05-May-2021 14:53:12)
 ------------------------------------------------------
 Symbolic Z-matrix:
 Charge =  0 Multiplicity = 1

                         Standard orientation:
 ---------------------------------------------------------------------
 Center     Atomic      Atomic             Coordinates (Angstroms)
 Number     Number       Type             X           Y           Z
 ---------------------------------------------------------------------
      1          6           0        3.506403   -0.050727    0.557696
      2          6           0        3.999241   -1.351416   -0.077366
      3          6           0        4.426315   -2.390788    0.959508
      4          1           0        4.302408    0.365718    1.190069
      5          1           0        2.661833   -0.273388    1.224418
      6          1           0        4.841743   -1.126184   -0.743756
      7          1           0        3.202037   -1.764713   -0.708451
      8          1           0        3.589331   -2.644405    1.618095
      9          1           0        5.238353   -2.002248    1.582590
     10          1           0        4.775072   -3.312680    0.483751
     11          6           0        3.075893    0.998192   -0.466099
     12          6           0        2.583056    2.298882    0.168963
     13          6           0        2.155981    3.338254   -0.867911
     14          1           0        3.920463    1.220853   -1.132822
     15          1           0        2.279888    0.581748   -1.098472
     16          1           0        3.380259    2.712178    0.800048
     17          1           0        1.740553    2.073649    0.835353
     18          1           0        1.343943    2.949713   -1.490993
     19          1           0        2.992965    3.591870   -1.526499
     20          1           0        1.807224    4.260145   -0.392154
     21          6           0       -1.172335   -2.343001   -0.754632
     22          6           0       -2.549056   -2.495023   -0.559574
     23          6           0       -3.333948   -1.408800   -0.161311
     24          6           0       -2.706448   -0.179371    0.033716
     25          6           0       -1.337118    0.003822   -0.152467
     26          6           0       -0.571817   -1.096261   -0.550815
     27          1           0       -0.570222   -3.192188   -1.064045
     28          1           0       -3.018126   -3.462080   -0.717117
     29          1           0       -4.401817   -1.498495   -0.003105
     30          1           0       -0.897974    0.980236    0.012415
     31          1           0        0.497147   -0.975264   -0.701546
     32          7           0       -3.527007    0.977900    0.455384
     33          8           0       -2.950160    2.050558    0.620588
     34          8           0       -4.731470    0.790401    0.612698
 ---------------------------------------------------------------------

 SCF Done:  E(RHF) =  -669.535354964     A.U. after   15 cycles
 E2 =    -0.2092420300D+01 EUMP2 =    -0.67162777526353D+03

 The electronic state is 1-A.
 Alpha  occ. eigenvalues --  -20.60760 -20.60755 -15.85813 -11.31182 -11.27753
 Alpha  occ. eigenvalues --  -11.27748 -11.27490 -11.26768 -11.26731 -11.22531
 Alpha  occ. eigenvalues --  -11.22298 -11.22225 -11.22199 -11.21819 -11.21480
 Alpha  occ. eigenvalues --   -1.59835  -1.39388  -1.19354  -1.09265  -1.08747
 Alpha  occ. eigenvalues --   -1.04759  -1.04251  -0.96680  -0.95583  -0.87688
 Alpha  occ. eigenvalues --   -0.86158  -0.82418  -0.80315  -0.79069  -0.77467
 Alpha  occ. eigenvalues --   -0.72031  -0.71158  -0.70466  -0.66056  -0.65004
 Alpha  occ. eigenvalues --   -0.64699  -0.62095  -0.61636  -0.60043  -0.58280
 Alpha  occ. eigenvalues --   -0.55995  -0.55252  -0.53332  -0.53111  -0.53086
 Alpha  occ. eigenvalues --   -0.52809  -0.50636  -0.48793  -0.48786  -0.48613
 Alpha  occ. eigenvalues --   -0.47381  -0.46583  -0.46528  -0.44793  -0.44523
 Alpha  occ. eigenvalues --   -0.37334  -0.36360
 Alpha virt. eigenvalues --    0.05062   0.11267   0.16516   0.17797   0.22186
 Alpha virt. eigenvalues --    0.23333   0.25075   0.25939   0.27101   0.28295
 Alpha virt. eigenvalues --    0.29419   0.30846   0.31214   0.31364   0.32621

 Mulliken charges:
               1
     1  C   -0.301890
     2  C   -0.299885
     3  C   -0.476340
     4  H    0.155652
     5  H    0.149294
     6  H    0.156195
     7  H    0.142063
     8  H    0.155567
     9  H    0.159014
    10  H    0.161401
    11  C   -0.302648
    12  C   -0.303213
    13  C   -0.476614
    14  H    0.154923
    15  H    0.140656
    16  H    0.156667
    17  H    0.151858
    18  H    0.154200
    19  H    0.156525
    20  H    0.167455
    21  C   -0.172227
    22  C   -0.218519
    23  C   -0.170754
    24  C    0.159194
    25  C   -0.177465
    26  C   -0.228567
    27  H    0.225991
    28  H    0.223423
    29  H    0.275607
    30  H    0.278980
    31  H    0.236389
    32  N    0.487905
    33  O   -0.460332
    34  O   -0.460504
 Sum of Mulliken charges =  -0.00000

 Dipole moment (field-independent basis, Debye):
    X=              3.0887    Y=             -3.9565    Z=             -1.4180  Tot=              5.2158
 Quadrupole moment (field-independent basis, Debye-Ang):
   XX=           -105.5097   YY=            -92.0405   ZZ=            -96.1236
   XY=             14.2698   XZ=              4.1637   YZ=              0.6580

 Normal termination of Gaussian 16 at Thu May  6 08:48:52 2021.
