 Gaussian 16, Revision A.03,
 Gaussian 16:  EM64L-G16RevA.03 25-Dec-2016

 -------------
 #p 6-31g* mp2
 -------------

 ------------------------------------------------------
 Input file generated by CHIRIPA (05-May-2021 14:53:14)
 ------------------------------------------------------
 Symbolic Z-matrix:
 Charge =  0 Multiplicity = 1

                         Standard orientation:
 ---------------------------------------------------------------------
 Center     Atomic      Atomic             Coordinates (Angstroms)
 Number     Number       Type             X           Y           Z
 ---------------------------------------------------------------------
      1          6           0       -4.935117    0.225022   -0.181444
      2          6           0       -6.282534   -0.497691   -0.169605
      3          6           0       -7.454409    0.431212   -0.488416
      4          1           0       -4.961130    1.047787    0.546104
      5          1           0       -4.782091    0.684632   -1.167718
      6          1           0       -6.432350   -0.956970    0.815907
      7          1           0       -6.253245   -1.318951   -0.897128
      8          1           0       -7.331922    0.879644   -1.479630
      9          1           0       -7.512044    1.243682    0.243138
     10          1           0       -8.407839   -0.106039   -0.474574
     11          6           0       -3.753871   -0.690367    0.135491
     12          6           0       -2.406454    0.032346    0.123653
     13          6           0       -1.234579   -0.896557    0.442463
     14          1           0       -3.906897   -1.149977    1.121765
     15          1           0       -3.727858   -1.513132   -0.592057
     16          1           0       -2.435743    0.853606    0.851176
     17          1           0       -2.256639    0.491625   -0.861860
     18          1           0       -1.176944   -1.709028   -0.289091
     19          1           0       -1.357066   -1.344990    1.433678
     20          1           0       -0.281149   -0.359306    0.428622
     21          6           0        2.429688    2.492304    0.329755
     22          6           0        3.492077    2.291112   -0.557585
     23          6           0        4.034340    1.015242   -0.738287
     24          6           0        3.487376   -0.041598   -0.012194
     25          6           0        2.428960    0.126847    0.879250
     26          6           0        1.902450    1.411435    1.044081
     27          1           0        2.014564    3.486817    0.463964
     28          1           0        3.903542    3.128674   -1.113671
     29          1           0        4.856867    0.831244   -1.418736
     30          1           0        2.039904   -0.727624    1.419559
     31          1           0        1.077391    1.564723    1.733883
     32          7           0        4.053105   -1.396920   -0.195094
     33          8           0        3.553405   -2.311493    0.456436
     34          8           0        4.985514   -1.518984   -0.986518
 ---------------------------------------------------------------------

 SCF Done:  E(RHF) =  -669.534574132     A.U. after   15 cycles
 E2 =    -0.2092363630D+01 EUMP2 =    -0.67162693776143D+03

 The electronic state is 1-A.
 Alpha  occ. eigenvalues --  -20.60767 -20.60761 -15.85822 -11.31208 -11.27792
 Alpha  occ. eigenvalues --  -11.27767 -11.27536 -11.26806 -11.26790 -11.22007
 Alpha  occ. eigenvalues --  -11.21806 -11.21679 -11.21617 -11.21365 -11.21261
 Alpha  occ. eigenvalues --   -1.59842  -1.39394  -1.19401  -1.08784  -1.08713
 Alpha  occ. eigenvalues --   -1.04823  -1.03816  -0.96269  -0.95612  -0.87290
 Alpha  occ. eigenvalues --   -0.86195  -0.82453  -0.79892  -0.78523  -0.77490
 Alpha  occ. eigenvalues --   -0.72040  -0.71167  -0.70502  -0.65344  -0.65057
 Alpha  occ. eigenvalues --   -0.64800  -0.62211  -0.61212  -0.59641  -0.57888
 Alpha  occ. eigenvalues --   -0.55540  -0.55297  -0.53454  -0.52922  -0.52757
 Alpha  occ. eigenvalues --   -0.52523  -0.50195  -0.48801  -0.48792  -0.48198
 Alpha  occ. eigenvalues --   -0.46920  -0.46064  -0.45986  -0.44796  -0.44087
 Alpha  occ. eigenvalues --   -0.37380  -0.36324
 Alpha virt. eigenvalues --    0.05013   0.11211   0.16373   0.20955   0.22679
 Alpha virt. eigenvalues --    0.24090   0.26264   0.26776   0.27064   0.28082
 Alpha virt. eigenvalues --    0.28861   0.30301   0.31159   0.31632   0.32305

 Mulliken charges:
               1
     1  C   -0.298270
     2  C   -0.299914
     3  C   -0.475809
     4  H    0.148185
     5  H    0.149601
     6  H    0.152351
     7  H    0.153167
     8  H    0.155272
     9  H    0.154646
    10  H    0.161170
    11  C   -0.298603
    12  C   -0.298422
    13  C   -0.486108
    14  H    0.150064
    15  H    0.152296
    16  H    0.145620
    17  H    0.153081
    18  H    0.162290
    19  H    0.153626
    20  H    0.161428
    21  C   -0.171301
    22  C   -0.218677
    23  C   -0.171125
    24  C    0.157299
    25  C   -0.170832
    26  C   -0.219007
    27  H    0.225986
    28  H    0.223626
    29  H    0.275814
    30  H    0.279129
    31  H    0.225631
    32  N    0.488130
    33  O   -0.459766
    34  O   -0.460577
 Sum of Mulliken charges =  -0.00000

 Dipole moment (field-independent basis, Debye):
    X=             -1.9871    Y=              4.7487    Z=              0.5971  Tot=              5.1822
 Quadrupole moment (field-independent basis, Debye-Ang):
   XX=           -107.6148   YY=            -95.2001   ZZ=            -92.1441
   XY=             18.9140   XZ=             -0.4169   YZ=             -1.1148

 Normal termination of Gaussian 16 at Thu May  6 04:12:46 2021.
