 Gaussian 16, Revision A.03,
 Gaussian 16:  EM64L-G16RevA.03 25-Dec-2016

 -------------
 #p 6-31g* mp2
 -------------

 ------------------------------------------------------
 Input file generated by CHIRIPA (05-May-2021 14:53:13)
 ------------------------------------------------------
 Symbolic Z-matrix:
 Charge =  0 Multiplicity = 1

                         Standard orientation:
 ---------------------------------------------------------------------
 Center     Atomic      Atomic             Coordinates (Angstroms)
 Number     Number       Type             X           Y           Z
 ---------------------------------------------------------------------
      1          6           0       -2.922492   -0.476665    0.087066
      2          6           0       -4.231427   -1.081629    0.595685
      3          6           0       -4.126214   -2.584629    0.855910
      4          1           0       -2.623285   -0.990150   -0.836921
      5          1           0       -2.128355   -0.667764    0.822064
      6          1           0       -5.023166   -0.888243   -0.139412
      7          1           0       -4.527653   -0.566515    1.518466
      8          1           0       -3.356027   -2.792807    1.605627
      9          1           0       -3.854356   -3.116362   -0.061670
     10          1           0       -5.073064   -2.996481    1.218832
     11          6           0       -3.011824    1.025218   -0.177689
     12          6           0       -1.702889    1.630182   -0.686307
     13          6           0       -1.808102    3.133181   -0.946532
     14          1           0       -3.805961    1.216317   -0.912686
     15          1           0       -3.311030    1.538703    0.746299
     16          1           0       -1.406663    1.115068   -1.609088
     17          1           0       -0.911150    1.436795    0.048790
     18          1           0       -2.079960    3.664914   -0.028952
     19          1           0       -2.578288    3.341359   -1.696249
     20          1           0       -0.861252    3.545034   -1.309455
     21          6           0        2.289374    1.962092    1.311531
     22          6           0        1.852739    1.923678   -0.016775
     23          6           0        1.864245    0.723387   -0.733514
     24          6           0        2.320868   -0.424682   -0.087972
     25          6           0        2.762261   -0.418611    1.234308
     26          6           0        2.741944    0.792886    1.931739
     27          1           0        2.277013    2.898859    1.860812
     28          1           0        1.500738    2.830141   -0.500990
     29          1           0        1.531832    0.665234   -1.762853
     30          1           0        3.107583   -1.338631    1.690088
     31          1           0        3.081629    0.819740    2.963213
     32          7           0        2.337714   -1.701308   -0.836532
     33          8           0        2.744703   -2.698902   -0.245089
     34          8           0        1.943610   -1.680161   -2.000522
 ---------------------------------------------------------------------

 SCF Done:  E(RHF) =  -669.534015844     A.U. after   15 cycles
 E2 =    -0.2093688530D+01 EUMP2 =    -0.67162770437415D+03

 The electronic state is 1-A.
 Alpha  occ. eigenvalues --  -20.60775 -20.60769 -15.85828 -11.31196 -11.27763
 Alpha  occ. eigenvalues --  -11.27744 -11.27510 -11.26790 -11.26742 -11.21858
 Alpha  occ. eigenvalues --  -11.21724 -11.21573 -11.21559 -11.21373 -11.20935
 Alpha  occ. eigenvalues --   -1.59849  -1.39403  -1.19383  -1.08777  -1.08568
 Alpha  occ. eigenvalues --   -1.04800  -1.03712  -0.96183  -0.95604  -0.87195
 Alpha  occ. eigenvalues --   -0.86176  -0.82445  -0.79801  -0.78362  -0.77468
 Alpha  occ. eigenvalues --   -0.72047  -0.71171  -0.70480  -0.65226  -0.65027
 Alpha  occ. eigenvalues --   -0.64783  -0.62173  -0.61118  -0.59590  -0.57788
 Alpha  occ. eigenvalues --   -0.55460  -0.55275  -0.53197  -0.53031  -0.52789
 Alpha  occ. eigenvalues --   -0.52506  -0.50093  -0.48807  -0.48801  -0.48092
 Alpha  occ. eigenvalues --   -0.46800  -0.45896  -0.45792  -0.44804  -0.43962
 Alpha  occ. eigenvalues --   -0.37368  -0.36250
 Alpha virt. eigenvalues --    0.05051   0.11194   0.16482   0.20123   0.22925
 Alpha virt. eigenvalues --    0.24006   0.26006   0.26324   0.27100   0.28290
 Alpha virt. eigenvalues --    0.29022   0.29646   0.31285   0.31744   0.32411

 Mulliken charges:
               1
     1  C   -0.299628
     2  C   -0.299837
     3  C   -0.476038
     4  H    0.154823
     5  H    0.149289
     6  H    0.152010
     7  H    0.150223
     8  H    0.155541
     9  H    0.158569
    10  H    0.159759
    11  C   -0.297320
    12  C   -0.308989
    13  C   -0.476589
    14  H    0.149955
    15  H    0.148088
    16  H    0.151978
    17  H    0.160597
    18  H    0.155476
    19  H    0.159980
    20  H    0.148348
    21  C   -0.172457
    22  C   -0.220852
    23  C   -0.167357
    24  C    0.158555
    25  C   -0.171655
    26  C   -0.218700
    27  H    0.225964
    28  H    0.227892
    29  H    0.276134
    30  H    0.275562
    31  H    0.223392
    32  N    0.488295
    33  O   -0.460434
    34  O   -0.460574
 Sum of Mulliken charges =  -0.00000

 Dipole moment (field-independent basis, Debye):
    X=             -0.0844    Y=              4.3985    Z=              2.6375  Tot=              5.1294
 Quadrupole moment (field-independent basis, Debye-Ang):
   XX=            -94.9922   YY=            -99.3940   ZZ=            -91.4033
   XY=              9.7088   XZ=              8.3113   YZ=             -3.0798

 Normal termination of Gaussian 16 at Thu May  6 20:17:29 2021.
