 Gaussian 16, Revision A.03,
 Gaussian 16:  EM64L-G16RevA.03 25-Dec-2016

 -------------
 #p 6-31g* mp2
 -------------

 ------------------------------------------------------
 Input file generated by CHIRIPA (05-May-2021 14:55:22)
 ------------------------------------------------------
 Symbolic Z-matrix:
 Charge =  0 Multiplicity = 1

                         Standard orientation:
 ---------------------------------------------------------------------
 Center     Atomic      Atomic             Coordinates (Angstroms)
 Number     Number       Type             X           Y           Z
 ---------------------------------------------------------------------
      1          6           0       -4.102675   -2.497902    0.158968
      2          6           0       -4.985936   -1.425829   -0.005437
      3          6           0       -4.504122   -0.116688   -0.097929
      4          6           0       -3.126876    0.085011   -0.021767
      5          6           0       -2.221483   -0.962273    0.141790
      6          6           0       -2.725695   -2.263116    0.231929
      7          1           0       -4.485659   -3.511651    0.229904
      8          1           0       -6.055810   -1.605186   -0.062420
      9          1           0       -5.165521    0.731671   -0.225422
     10          1           0       -1.160172   -0.752076    0.195212
     11          1           0       -2.037395   -3.093774    0.359586
     12          7           0       -2.604945    1.466548   -0.118439
     13          8           0       -1.387207    1.617733   -0.048486
     14          8           0       -3.423477    2.372052   -0.262331
     15          6           0        3.603915    0.673621   -0.281837
     16          6           0        3.355904    1.887801    0.613844
     17          6           0        2.336062    2.860878    0.021529
     18          1           0        3.951107    1.016792   -1.266031
     19          1           0        2.652276    0.150936   -0.450889
     20          1           0        4.307961    2.407252    0.782287
     21          1           0        3.009445    1.541691    1.596081
     22          1           0        1.372552    2.363780   -0.130600
     23          1           0        2.678446    3.234259   -0.949018
     24          1           0        2.173921    3.721407    0.678081
     25          6           0        4.621100   -0.308353    0.296774
     26          6           0        4.869110   -1.522533   -0.598907
     27          6           0        5.888952   -2.495611   -0.006591
     28          1           0        5.572738    0.214332    0.465827
     29          1           0        4.273907   -0.651524    1.280968
     30          1           0        5.215569   -1.176424   -1.581144
     31          1           0        3.917053   -2.041985   -0.767349
     32          1           0        5.546568   -2.868991    0.963956
     33          1           0        6.852462   -1.998512    0.145537
     34          1           0        6.051093   -3.356140   -0.663143
 ---------------------------------------------------------------------

 SCF Done:  E(RHF) =  -669.535970809     A.U. after   15 cycles
 E2 =    -0.2090821670D+01 EUMP2 =    -0.67162679247870D+03

 The electronic state is 1-A.
 Alpha  occ. eigenvalues --  -20.60920 -20.60910 -15.85969 -11.31294 -11.27864
 Alpha  occ. eigenvalues --  -11.27853 -11.27595 -11.26868 -11.26858 -11.21457
 Alpha  occ. eigenvalues --  -11.21084 -11.20992 -11.20892 -11.20811 -11.19771
 Alpha  occ. eigenvalues --   -1.59984  -1.39541  -1.19463  -1.08864  -1.07999
 Alpha  occ. eigenvalues --   -1.04862  -1.02996  -0.95709  -0.95416  -0.86430
 Alpha  occ. eigenvalues --   -0.86261  -0.82543  -0.79098  -0.77778  -0.77588
 Alpha  occ. eigenvalues --   -0.72196  -0.71301  -0.70573  -0.65122  -0.64865
 Alpha  occ. eigenvalues --   -0.64640  -0.62211  -0.60389  -0.58862  -0.57024
 Alpha  occ. eigenvalues --   -0.55364  -0.54690  -0.53192  -0.52954  -0.52098
 Alpha  occ. eigenvalues --   -0.51832  -0.49382  -0.48944  -0.48903  -0.47380
 Alpha  occ. eigenvalues --   -0.46144  -0.45305  -0.45215  -0.44951  -0.43268
 Alpha  occ. eigenvalues --   -0.37441  -0.36463
 Alpha virt. eigenvalues --    0.04944   0.11192   0.16442   0.21125   0.23133
 Alpha virt. eigenvalues --    0.24705   0.26449   0.27364   0.27660   0.28439
 Alpha virt. eigenvalues --    0.28834   0.30745   0.31745   0.32115   0.32451

 Mulliken charges:
               1
     1  C   -0.170643
     2  C   -0.218548
     3  C   -0.170573
     4  C    0.157480
     5  C   -0.170443
     6  C   -0.218465
     7  H    0.226019
     8  H    0.223843
     9  H    0.275943
    10  H    0.274789
    11  H    0.223798
    12  N    0.496913
    13  O   -0.468771
    14  O   -0.458781
    15  C   -0.296602
    16  C   -0.299184
    17  C   -0.485134
    18  H    0.149468
    19  H    0.146289
    20  H    0.148174
    21  H    0.149354
    22  H    0.181936
    23  H    0.149914
    24  H    0.158982
    25  C   -0.297808
    26  C   -0.298434
    27  C   -0.475309
    28  H    0.149666
    29  H    0.147406
    30  H    0.152524
    31  H    0.147846
    32  H    0.153713
    33  H    0.155877
    34  H    0.158764
 Sum of Mulliken charges =  -0.00000

 Dipole moment (field-independent basis, Debye):
    X=             -2.0913    Y=             -4.8108    Z=              0.3212  Tot=              5.2555
 Quadrupole moment (field-independent basis, Debye-Ang):
   XX=            -79.4504   YY=            -95.9819   ZZ=            -95.6076
   XY=             14.4003   XZ=             -1.1478   YZ=             -0.1327

 Normal termination of Gaussian 16 at Wed May  5 19:00:25 2021.
