 Gaussian 16, Revision A.03,
 Gaussian 16:  EM64L-G16RevA.03 25-Dec-2016

 -------------
 #p 6-31g* mp2
 -------------

 ------------------------------------------------------
 Input file generated by CHIRIPA (05-May-2021 14:55:20)
 ------------------------------------------------------
 Symbolic Z-matrix:
 Charge =  0 Multiplicity = 1

                         Standard orientation:
 ---------------------------------------------------------------------
 Center     Atomic      Atomic             Coordinates (Angstroms)
 Number     Number       Type             X           Y           Z
 ---------------------------------------------------------------------
      1          6           0        4.448344    1.197963   -0.480763
      2          6           0        3.301253    1.599490    0.211681
      3          6           0        2.307411    0.671767    0.537498
      4          6           0        2.494079   -0.655309    0.153680
      5          6           0        3.625743   -1.086223   -0.536927
      6          6           0        4.606650   -0.141251   -0.852202
      7          1           0        5.215360    1.925341   -0.729771
      8          1           0        3.175634    2.638873    0.501416
      9          1           0        1.409479    0.955382    1.072940
     10          1           0        3.722759   -2.129365   -0.812355
     11          1           0        5.496459   -0.455936   -1.390028
     12          7           0        1.448790   -1.646578    0.493028
     13          8           0        1.637059   -2.809795    0.143576
     14          8           0        0.461017   -1.241548    1.102036
     15          6           0       -4.138044    0.389757   -0.134379
     16          6           0       -4.275145   -1.118120   -0.347676
     17          6           0       -5.731700   -1.582858   -0.363784
     18          1           0       -4.622830    0.665325    0.812188
     19          1           0       -4.683219    0.916608   -0.929745
     20          1           0       -3.728718   -1.641963    0.447069
     21          1           0       -3.789809   -1.390159   -1.293752
     22          1           0       -6.285523   -1.086673   -1.167327
     23          1           0       -6.224085   -1.339907    0.583387
     24          1           0       -5.806508   -2.663889   -0.517526
     25          6           0       -2.687824    0.869598   -0.115865
     26          6           0       -2.550724    2.377474    0.097433
     27          6           0       -1.094168    2.842213    0.113540
     28          1           0       -2.142650    0.342747    0.679501
     29          1           0       -2.203038    0.594028   -1.062432
     30          1           0       -3.036059    2.649514    1.043509
     31          1           0       -3.097150    2.901317   -0.697314
     32          1           0       -0.601784    2.599261   -0.833630
     33          1           0       -0.540345    2.346027    0.917082
     34          1           0       -1.019361    3.923244    0.267282
 ---------------------------------------------------------------------

 SCF Done:  E(RHF) =  -669.535753639     A.U. after   15 cycles
 E2 =    -0.2091955694D+01 EUMP2 =    -0.67162770933361D+03

 The electronic state is 1-A.
 Alpha  occ. eigenvalues --  -20.60829 -20.60822 -15.85867 -11.31173 -11.27751
 Alpha  occ. eigenvalues --  -11.27711 -11.27488 -11.26758 -11.26733 -11.21374
 Alpha  occ. eigenvalues --  -11.21260 -11.20815 -11.20747 -11.20653 -11.20433
 Alpha  occ. eigenvalues --   -1.59891  -1.39447  -1.19348  -1.08756  -1.07876
 Alpha  occ. eigenvalues --   -1.04744  -1.03108  -0.95612  -0.95572  -0.86629
 Alpha  occ. eigenvalues --   -0.86141  -0.82432  -0.79175  -0.77664  -0.77431
 Alpha  occ. eigenvalues --   -0.72092  -0.71204  -0.70469  -0.65005  -0.64765
 Alpha  occ. eigenvalues --   -0.64497  -0.62122  -0.60505  -0.58968  -0.57165
 Alpha  occ. eigenvalues --   -0.55274  -0.54871  -0.53086  -0.52869  -0.52323
 Alpha  occ. eigenvalues --   -0.51970  -0.49553  -0.48852  -0.48838  -0.47476
 Alpha  occ. eigenvalues --   -0.46163  -0.45262  -0.45098  -0.44710  -0.43306
 Alpha  occ. eigenvalues --   -0.37333  -0.36336
 Alpha virt. eigenvalues --    0.05022   0.11297   0.16499   0.20669   0.23339
 Alpha virt. eigenvalues --    0.24309   0.25950   0.27286   0.27782   0.28457
 Alpha virt. eigenvalues --    0.29469   0.30534   0.31551   0.31947   0.32383

 Mulliken charges:
               1
     1  C   -0.170641
     2  C   -0.221381
     3  C   -0.173679
     4  C    0.157282
     5  C   -0.170470
     6  C   -0.218976
     7  H    0.225580
     8  H    0.224441
     9  H    0.283436
    10  H    0.275412
    11  H    0.223313
    12  N    0.489341
    13  O   -0.459863
    14  O   -0.462812
    15  C   -0.298360
    16  C   -0.300479
    17  C   -0.475662
    18  H    0.147828
    19  H    0.145541
    20  H    0.161671
    21  H    0.151843
    22  H    0.152164
    23  H    0.153686
    24  H    0.160416
    25  C   -0.305004
    26  C   -0.298353
    27  C   -0.479439
    28  H    0.170074
    29  H    0.147521
    30  H    0.151871
    31  H    0.150697
    32  H    0.155246
    33  H    0.149964
    34  H    0.157791
 Sum of Mulliken charges =  -0.00000

 Dipole moment (field-independent basis, Debye):
    X=              3.7317    Y=              3.3555    Z=             -1.1492  Tot=              5.1484
 Quadrupole moment (field-independent basis, Debye-Ang):
   XX=            -76.8883   YY=            -97.6350   ZZ=            -93.9118
   XY=              3.9815   XZ=             -4.1480   YZ=              2.9491

 Normal termination of Gaussian 16 at Wed May  5 18:55:20 2021.
