 Gaussian 16, Revision A.03,
 Gaussian 16:  EM64L-G16RevA.03 25-Dec-2016

 -------------
 #p 6-31g* mp2
 -------------

 ------------------------------------------------------
 Input file generated by CHIRIPA (05-May-2021 14:57:25)
 ------------------------------------------------------
 Symbolic Z-matrix:
 Charge =  0 Multiplicity = 1

                         Standard orientation:
 ---------------------------------------------------------------------
 Center     Atomic      Atomic             Coordinates (Angstroms)
 Number     Number       Type             X           Y           Z
 ---------------------------------------------------------------------
      1          6           0       -5.733420   -1.683793   -0.049070
      2          6           0       -4.539974   -2.015922    0.600467
      3          6           0       -3.500304   -1.085999    0.694681
      4          6           0       -3.688909    0.172487    0.125531
      5          6           0       -4.866150    0.533357   -0.528048
      6          6           0       -5.892419   -0.412455   -0.610265
      7          1           0       -6.535856   -2.412351   -0.117598
      8          1           0       -4.413701   -3.002503    1.037225
      9          1           0       -2.565949   -1.316684    1.191857
     10          1           0       -4.962602    1.524802   -0.953667
     11          1           0       -6.818171   -0.151748   -1.115299
     12          7           0       -2.595350    1.165365    0.218921
     13          8           0       -2.786352    2.267363   -0.290742
     14          8           0       -1.567923    0.822786    0.800016
     15          6           0        1.899508    1.563239   -0.232656
     16          6           0        3.117697    2.006952    0.292373
     17          6           0        4.215698    1.144600    0.365123
     18          6           0        4.059557   -0.160832   -0.098295
     19          6           0        2.858911   -0.632579   -0.626684
     20          6           0        1.774224    0.247210   -0.689702
     21          1           0        1.051725    2.239908   -0.285390
     22          1           0        3.217891    3.028465    0.648066
     23          1           0        5.170309    1.461932    0.766914
     24          1           0        2.789553   -1.656487   -0.973410
     25          1           0        0.829370   -0.100126   -1.097935
     26          7           0        5.214914   -1.082996   -0.026429
     27          8           0        5.051586   -2.228344   -0.441325
     28          8           0        6.261934   -0.642978    0.443435
 ---------------------------------------------------------------------

 SCF Done:  E(RHF) =  -868.340672270     A.U. after   16 cycles
 E2 =    -0.2598691959D+01 EUMP2 =    -0.87093936422888D+03

 The electronic state is 1-A.
 Alpha  occ. eigenvalues --  -20.62000 -20.61986 -20.60009 -20.60003 -15.86987
 Alpha  occ. eigenvalues --  -15.85056 -11.32017 -11.30147 -11.28539 -11.28536
 Alpha  occ. eigenvalues --  -11.28209 -11.27471 -11.27460 -11.26724 -11.26709
 Alpha  occ. eigenvalues --  -11.26149 -11.25590 -11.25528  -1.61060  -1.59092
 Alpha  occ. eigenvalues --   -1.40615  -1.38653  -1.20157  -1.18279  -1.09616
 Alpha  occ. eigenvalues --   -1.07665  -1.05502  -1.03662  -0.96505  -0.94555
 Alpha  occ. eigenvalues --   -0.86915  -0.85036  -0.83341  -0.81425  -0.78432
 Alpha  occ. eigenvalues --   -0.76557  -0.73218  -0.72360  -0.71278  -0.71249
 Alpha  occ. eigenvalues --   -0.70415  -0.69247  -0.65806  -0.65494  -0.63905
 Alpha  occ. eigenvalues --   -0.63633  -0.62849  -0.61036  -0.56010  -0.53978
 Alpha  occ. eigenvalues --   -0.53854  -0.53581  -0.51985  -0.51738  -0.49993
 Alpha  occ. eigenvalues --   -0.49953  -0.48050  -0.48007  -0.46079  -0.44123
 Alpha  occ. eigenvalues --   -0.38115  -0.37090  -0.36133  -0.35288
 Alpha virt. eigenvalues --    0.04043   0.05998   0.10568   0.12391   0.15616
 Alpha virt. eigenvalues --    0.17596   0.20758   0.22696   0.26701   0.27562
 Alpha virt. eigenvalues --    0.28362   0.29652   0.30481   0.31779   0.32459

 Mulliken charges:
               1
     1  C   -0.169480
     2  C   -0.218476
     3  C   -0.171861
     4  C    0.156615
     5  C   -0.170463
     6  C   -0.218526
     7  H    0.228790
     8  H    0.226723
     9  H    0.276486
    10  H    0.276304
    11  H    0.226038
    12  N    0.487759
    13  O   -0.459824
    14  O   -0.466073
    15  C   -0.165925
    16  C   -0.221341
    17  C   -0.172226
    18  C    0.156653
    19  C   -0.174308
    20  C   -0.215059
    21  H    0.242852
    22  H    0.221345
    23  H    0.271729
    24  H    0.269756
    25  H    0.222031
    26  N    0.488408
    27  O   -0.464577
    28  O   -0.463349
 Sum of Mulliken charges =  -0.00000

 Dipole moment (field-independent basis, Debye):
    X=             -8.6092    Y=             -0.1544    Z=             -0.5583  Tot=              8.6287
 Quadrupole moment (field-independent basis, Debye-Ang):
   XX=           -107.6477   YY=           -102.6728   ZZ=           -104.2114
   XY=             27.2688   XZ=              3.1562   YZ=             -1.1426

 Normal termination of Gaussian 16 at Wed May  5 19:32:56 2021.
