 Gaussian 16, Revision A.03,
 Gaussian 16:  EM64L-G16RevA.03 25-Dec-2016

 -------------
 #p 6-31g* mp2
 -------------

 ------------------------------------------------------
 Input file generated by CHIRIPA (05-May-2021 14:53:16)
 ------------------------------------------------------
 Symbolic Z-matrix:
 Charge =  0 Multiplicity = 1

                         Standard orientation:
 ---------------------------------------------------------------------
 Center     Atomic      Atomic             Coordinates (Angstroms)
 Number     Number       Type             X           Y           Z
 ---------------------------------------------------------------------
      1          6           0        3.542559   -0.108643   -0.226278
      2          6           0        2.779314    0.922912   -1.057745
      3          6           0        1.262500    0.785897   -0.922486
      4          1           0        3.235274   -1.117689   -0.533437
      5          1           0        3.256572   -0.002578    0.829353
      6          1           0        3.067694    0.815850   -2.111306
      7          1           0        3.088594    1.929617   -0.748703
      8          1           0        0.955612    0.914039    0.120586
      9          1           0        0.934593   -0.206056   -1.249759
     10          1           0        0.736593    1.532996   -1.525084
     11          6           0        5.060033    0.015560   -0.351075
     12          6           0        5.823277   -1.015994    0.480392
     13          6           0        7.340092   -0.878980    0.345133
     14          1           0        5.346020   -0.090504   -1.406706
     15          1           0        5.367318    1.024607   -0.043916
     16          1           0        5.513998   -2.022700    0.171350
     17          1           0        5.534898   -0.908933    1.533953
     18          1           0        7.667999    0.112973    0.672406
     19          1           0        7.646980   -1.007122   -0.697939
     20          1           0        7.865999   -1.626079    0.947732
     21          6           0       -1.676443    1.572340    1.307664
     22          6           0       -2.189879    0.483533    2.019987
     23          6           0       -3.123386   -0.374096    1.430425
     24          6           0       -3.523186   -0.112133    0.120911
     25          6           0       -3.029980    0.964369   -0.614740
     26          6           0       -2.097389    1.808866   -0.005111
     27          1           0       -0.951627    2.233466    1.773445
     28          1           0       -1.864779    0.297411    3.039651
     29          1           0       -3.537059   -1.224342    1.958986
     30          1           0       -3.373159    1.124267   -1.629668
     31          1           0       -1.700345    2.653679   -0.560710
     32          7           0       -4.510962   -1.013115   -0.513853
     33          8           0       -4.847058   -0.760678   -1.668822
     34          8           0       -4.930383   -1.954682    0.155606
 ---------------------------------------------------------------------

 SCF Done:  E(RHF) =  -669.534636111     A.U. after   15 cycles
 E2 =    -0.2092203839D+01 EUMP2 =    -0.67162683995011D+03

 The electronic state is 1-A.
 Alpha  occ. eigenvalues --  -20.60742 -20.60736 -15.85795 -11.31156 -11.27724
 Alpha  occ. eigenvalues --  -11.27711 -11.27466 -11.26754 -11.26729 -11.22058
 Alpha  occ. eigenvalues --  -11.21913 -11.21814 -11.21721 -11.21581 -11.21337
 Alpha  occ. eigenvalues --   -1.59817  -1.39371  -1.19334  -1.08832  -1.08730
 Alpha  occ. eigenvalues --   -1.04738  -1.03926  -0.96385  -0.95566  -0.87406
 Alpha  occ. eigenvalues --   -0.86130  -0.82400  -0.79992  -0.78631  -0.77441
 Alpha  occ. eigenvalues --   -0.72014  -0.71140  -0.70458  -0.65461  -0.64989
 Alpha  occ. eigenvalues --   -0.64750  -0.62093  -0.61330  -0.59759  -0.57992
 Alpha  occ. eigenvalues --   -0.55707  -0.55239  -0.53426  -0.53006  -0.52752
 Alpha  occ. eigenvalues --   -0.52601  -0.50307  -0.48773  -0.48768  -0.48298
 Alpha  occ. eigenvalues --   -0.47026  -0.46172  -0.46099  -0.44778  -0.44193
 Alpha  occ. eigenvalues --   -0.37242  -0.36304
 Alpha virt. eigenvalues --    0.05061   0.11303   0.16454   0.20761   0.22615
 Alpha virt. eigenvalues --    0.24037   0.26179   0.26444   0.27006   0.27658
 Alpha virt. eigenvalues --    0.28902   0.29748   0.31236   0.31667   0.32238

 Mulliken charges:
               1
     1  C   -0.298041
     2  C   -0.301049
     3  C   -0.473575
     4  H    0.151983
     5  H    0.146710
     6  H    0.153855
     7  H    0.149040
     8  H    0.152025
     9  H    0.160488
    10  H    0.152807
    11  C   -0.298384
    12  C   -0.299811
    13  C   -0.475876
    14  H    0.150855
    15  H    0.148923
    16  H    0.153130
    17  H    0.151015
    18  H    0.154933
    19  H    0.156011
    20  H    0.161086
    21  C   -0.170926
    22  C   -0.219266
    23  C   -0.170934
    24  C    0.158668
    25  C   -0.172408
    26  C   -0.210932
    27  H    0.225233
    28  H    0.223181
    29  H    0.275437
    30  H    0.275380
    31  H    0.223502
    32  N    0.488047
    33  O   -0.460511
    34  O   -0.460596
 Sum of Mulliken charges =  -0.00000

 Dipole moment (field-independent basis, Debye):
    X=              3.5154    Y=              3.1337    Z=              2.2236  Tot=              5.2080
 Quadrupole moment (field-independent basis, Debye-Ang):
   XX=           -121.2769   YY=            -94.1323   ZZ=            -90.3196
   XY=            -11.6946   XZ=             -7.7243   YZ=             -1.9083

 Normal termination of Gaussian 16 at Thu May  6 12:15:37 2021.
