 Gaussian 16, Revision A.03,
 Gaussian 16:  EM64L-G16RevA.03 25-Dec-2016

 -------------
 #p 6-31g* mp2
 -------------

 ------------------------------------------------------
 Input file generated by CHIRIPA (05-May-2021 14:57:22)
 ------------------------------------------------------
 Symbolic Z-matrix:
 Charge =  0 Multiplicity = 1

                         Standard orientation:
 ---------------------------------------------------------------------
 Center     Atomic      Atomic             Coordinates (Angstroms)
 Number     Number       Type             X           Y           Z
 ---------------------------------------------------------------------
      1          6           0        3.274071    2.459446    0.814682
      2          6           0        2.258159    1.779445    0.134946
      3          6           0        2.486529    0.504998   -0.392480
      4          6           0        3.748352   -0.062187   -0.221036
      5          6           0        4.780834    0.589980    0.451236
      6          6           0        4.529952    1.863594    0.970384
      7          1           0        3.087924    3.449144    1.221184
      8          1           0        1.281848    2.239743    0.012517
      9          1           0        1.717959   -0.043791   -0.923092
     10          1           0        5.743780    0.105327    0.557379
     11          1           0        5.320801    2.389348    1.497817
     12          7           0        4.002034   -1.410946   -0.775016
     13          8           0        5.122389   -1.888851   -0.610550
     14          8           0        3.075711   -1.964661   -1.363203
     15          6           0       -1.911161   -1.423244    1.373521
     16          6           0       -3.256683   -1.760630    1.553137
     17          6           0       -4.259874   -1.067561    0.869173
     18          6           0       -3.880114   -0.037990    0.009488
     19          6           0       -2.548253    0.321733   -0.190609
     20          6           0       -1.561856   -0.384969    0.503754
     21          1           0       -1.138381   -1.966932    1.908880
     22          1           0       -3.530892   -2.566516    2.227972
     23          1           0       -5.309224   -1.307951    0.989571
     24          1           0       -2.305840    1.129843   -0.870029
     25          1           0       -0.517712   -0.120770    0.362307
     26          7           0       -4.933258    0.702949   -0.720098
     27          8           0       -4.572573    1.605980   -1.471815
     28          8           0       -6.099456    0.366636   -0.526418
 ---------------------------------------------------------------------

 SCF Done:  E(RHF) =  -868.337215350     A.U. after   16 cycles
 E2 =    -0.2600013716D+01 EUMP2 =    -0.87093722906589D+03

 The electronic state is 1-A.
 Alpha  occ. eigenvalues --  -20.61466 -20.61453 -20.60999 -20.60988 -15.86520
 Alpha  occ. eigenvalues --  -15.86053 -11.31987 -11.31446 -11.28633 -11.28507
 Alpha  occ. eigenvalues --  -11.28253 -11.28094 -11.27996 -11.27736 -11.27639
 Alpha  occ. eigenvalues --  -11.27517 -11.27109 -11.26980  -1.60538  -1.60071
 Alpha  occ. eigenvalues --   -1.40088  -1.39624  -1.20159  -1.19624  -1.09514
 Alpha  occ. eigenvalues --   -1.08999  -1.05593  -1.05052  -0.96342  -0.95831
 Alpha  occ. eigenvalues --   -0.86962  -0.86440  -0.83188  -0.82680  -0.78242
 Alpha  occ. eigenvalues --   -0.77726  -0.72731  -0.72270  -0.71867  -0.71394
 Alpha  occ. eigenvalues --   -0.71242  -0.70707  -0.65818  -0.65581  -0.65280
 Alpha  occ. eigenvalues --   -0.65084  -0.63000  -0.62334  -0.56027  -0.55497
 Alpha  occ. eigenvalues --   -0.53904  -0.53684  -0.53345  -0.53120  -0.49499
 Alpha  occ. eigenvalues --   -0.49483  -0.49031  -0.49023  -0.45473  -0.45025
 Alpha  occ. eigenvalues --   -0.38101  -0.37570  -0.37193  -0.36655
 Alpha virt. eigenvalues --    0.04269   0.04828   0.10442   0.10998   0.15648
 Alpha virt. eigenvalues --    0.16300   0.18824   0.22003   0.24865   0.27076
 Alpha virt. eigenvalues --    0.28118   0.29098   0.30325   0.31001   0.32062

 Mulliken charges:
               1
     1  C   -0.170373
     2  C   -0.218854
     3  C   -0.178585
     4  C    0.159476
     5  C   -0.170256
     6  C   -0.217797
     7  H    0.229426
     8  H    0.222362
     9  H    0.272733
    10  H    0.278103
    11  H    0.226820
    12  N    0.487829
    13  O   -0.457496
    14  O   -0.460783
    15  C   -0.170375
    16  C   -0.218326
    17  C   -0.170088
    18  C    0.159013
    19  C   -0.172289
    20  C   -0.221407
    21  H    0.230056
    22  H    0.225473
    23  H    0.276794
    24  H    0.271404
    25  H    0.219462
    26  N    0.488245
    27  O   -0.461508
    28  O   -0.459063
 Sum of Mulliken charges =  -0.00000

 Dipole moment (field-independent basis, Debye):
    X=              2.9872    Y=              2.1053    Z=              4.6419  Tot=              5.9078
 Quadrupole moment (field-independent basis, Debye-Ang):
   XX=           -132.2167   YY=           -104.2770   ZZ=           -105.3595
   XY=             31.1318   XZ=             -2.2707   YZ=             -2.6632

 Normal termination of Gaussian 16 at Thu May  6 03:21:34 2021.
