 Gaussian 16, Revision A.03,
 Gaussian 16:  EM64L-G16RevA.03 25-Dec-2016

 -------------
 #p 6-31g* mp2
 -------------

 ------------------------------------------------------
 Input file generated by CHIRIPA (05-May-2021 14:53:14)
 ------------------------------------------------------
 Symbolic Z-matrix:
 Charge =  0 Multiplicity = 1

                         Standard orientation:
 ---------------------------------------------------------------------
 Center     Atomic      Atomic             Coordinates (Angstroms)
 Number     Number       Type             X           Y           Z
 ---------------------------------------------------------------------
      1          6           0        3.444886   -0.253543    0.166383
      2          6           0        2.747374   -1.445045   -0.490721
      3          6           0        1.243759   -1.475484   -0.215028
      4          1           0        3.270031   -0.286647    1.250483
      5          1           0        2.985817    0.676684   -0.196008
      6          1           0        3.208543   -2.372706   -0.128250
      7          1           0        2.924071   -1.409207   -1.573362
      8          1           0        0.764427   -0.566400   -0.592399
      9          1           0        1.050515   -1.535373    0.860923
     10          1           0        0.765093   -2.335291   -0.694061
     11          6           0        4.948465   -0.209335   -0.100123
     12          6           0        5.645977    0.982167    0.556980
     13          6           0        7.149593    1.012606    0.281287
     14          1           0        5.407534   -1.139563    0.262267
     15          1           0        5.123321   -0.176232   -1.184224
     16          1           0        5.469280    0.946329    1.639621
     17          1           0        5.184808    1.909827    0.194509
     18          1           0        7.342836    1.072495   -0.794664
     19          1           0        7.628924    0.103522    0.658658
     20          1           0        7.628258    1.872412    0.760320
     21          6           0       -3.191909   -2.331792    0.186767
     22          6           0       -2.346214   -1.675900   -0.713859
     23          6           0       -2.385658   -0.284112   -0.840025
     24          6           0       -3.287039    0.423721   -0.046441
     25          6           0       -4.142418   -0.200891    0.859912
     26          6           0       -4.085736   -1.593496    0.969398
     27          1           0       -3.154572   -3.413284    0.278297
     28          1           0       -1.651053   -2.246704   -1.322940
     29          1           0       -1.742238    0.249131   -1.529284
     30          1           0       -4.824826    0.395158    1.453597
     31          1           0       -4.743697   -2.100200    1.669672
     32          7           0       -3.337922    1.897578   -0.171177
     33          8           0       -4.140956    2.498347    0.539349
     34          8           0       -2.573806    2.424108   -0.977111
 ---------------------------------------------------------------------

 SCF Done:  E(RHF) =  -669.534860101     A.U. after   15 cycles
 E2 =    -0.2091894711D+01 EUMP2 =    -0.67162675481280D+03

 The electronic state is 1-A.
 Alpha  occ. eigenvalues --  -20.60736 -20.60730 -15.85788 -11.31135 -11.27692
 Alpha  occ. eigenvalues --  -11.27685 -11.27425 -11.26719 -11.26673 -11.21999
 Alpha  occ. eigenvalues --  -11.21705 -11.21669 -11.21607 -11.21516 -11.21119
 Alpha  occ. eigenvalues --   -1.59811  -1.39365  -1.19303  -1.08704  -1.08652
 Alpha  occ. eigenvalues --   -1.04708  -1.03798  -0.96270  -0.95540  -0.87304
 Alpha  occ. eigenvalues --   -0.86099  -0.82375  -0.79872  -0.78438  -0.77417
 Alpha  occ. eigenvalues --   -0.72007  -0.71133  -0.70416  -0.65284  -0.64953
 Alpha  occ. eigenvalues --   -0.64733  -0.62098  -0.61179  -0.59654  -0.57865
 Alpha  occ. eigenvalues --   -0.55554  -0.55202  -0.53306  -0.53032  -0.52617
 Alpha  occ. eigenvalues --   -0.52538  -0.50198  -0.48765  -0.48762  -0.48176
 Alpha  occ. eigenvalues --   -0.46882  -0.45988  -0.45891  -0.44775  -0.44050
 Alpha  occ. eigenvalues --   -0.37279  -0.36248
 Alpha virt. eigenvalues --    0.05091   0.11294   0.16549   0.20543   0.22785
 Alpha virt. eigenvalues --    0.24025   0.26088   0.26334   0.26852   0.27844
 Alpha virt. eigenvalues --    0.29215   0.29388   0.31322   0.31694   0.32302

 Mulliken charges:
               1
     1  C   -0.299536
     2  C   -0.300530
     3  C   -0.475894
     4  H    0.150554
     5  H    0.153120
     6  H    0.152025
     7  H    0.151842
     8  H    0.155995
     9  H    0.159706
    10  H    0.149260
    11  C   -0.298507
    12  C   -0.300152
    13  C   -0.475884
    14  H    0.148963
    15  H    0.149921
    16  H    0.152310
    17  H    0.154050
    18  H    0.155382
    19  H    0.154668
    20  H    0.161244
    21  C   -0.172869
    22  C   -0.212722
    23  C   -0.171447
    24  C    0.158057
    25  C   -0.171471
    26  C   -0.218370
    27  H    0.225185
    28  H    0.225357
    29  H    0.274692
    30  H    0.275263
    31  H    0.223087
    32  N    0.488168
    33  O   -0.460511
    34  O   -0.460956
 Sum of Mulliken charges =  -0.00000

 Dipole moment (field-independent basis, Debye):
    X=              0.2665    Y=             -5.1570    Z=              0.4856  Tot=              5.1867
 Quadrupole moment (field-independent basis, Debye-Ang):
   XX=            -94.7531   YY=            -99.6794   ZZ=            -92.1732
   XY=             17.1188   XZ=             -4.0650   YZ=              0.0208

 Normal termination of Gaussian 16 at Thu May  6 04:12:00 2021.
