 Gaussian 16, Revision A.03,
 Gaussian 16:  EM64L-G16RevA.03 25-Dec-2016

 -------------
 #p 6-31g* mp2
 -------------

 ------------------------------------------------------
 Input file generated by CHIRIPA (05-May-2021 14:57:25)
 ------------------------------------------------------
 Symbolic Z-matrix:
 Charge =  0 Multiplicity = 1

                         Standard orientation:
 ---------------------------------------------------------------------
 Center     Atomic      Atomic             Coordinates (Angstroms)
 Number     Number       Type             X           Y           Z
 ---------------------------------------------------------------------
      1          6           0        3.662325   -2.180703   -0.765009
      2          6           0        3.308027   -1.852868    0.547819
      3          6           0        2.859189   -0.566634    0.861978
      4          6           0        2.776513    0.371315   -0.165985
      5          6           0        3.122177    0.075219   -1.483609
      6          6           0        3.568435   -1.217312   -1.774753
      7          1           0        4.009991   -3.182327   -1.000116
      8          1           0        3.379938   -2.599025    1.334027
      9          1           0        2.578434   -0.285892    1.869836
     10          1           0        3.039900    0.840370   -2.245969
     11          1           0        3.842910   -1.469089   -2.795203
     12          7           0        2.302714    1.736326    0.154419
     13          8           0        2.238820    2.544639   -0.769261
     14          8           0        2.004216    1.972062    1.323164
     15          6           0       -4.585731    0.027248   -1.608497
     16          6           0       -4.384206   -1.189408   -0.948453
     17          6           0       -3.427776   -1.297172    0.065536
     18          6           0       -2.687242   -0.163127    0.395446
     19          6           0       -2.864734    1.062976   -0.243663
     20          6           0       -3.826689    1.147581   -1.254619
     21          1           0       -5.330854    0.101966   -2.395011
     22          1           0       -4.972235   -2.061123   -1.221183
     23          1           0       -3.251212   -2.226786    0.592851
     24          1           0       -2.263241    1.914569    0.050299
     25          1           0       -3.981040    2.093740   -1.765506
     26          7           0       -1.671787   -0.264953    1.467307
     27          8           0       -1.032309    0.748813    1.739307
     28          8           0       -1.534581   -1.356602    2.015134
 ---------------------------------------------------------------------

 SCF Done:  E(RHF) =  -868.337649019     A.U. after   16 cycles
 E2 =    -0.2600121912D+01 EUMP2 =    -0.87093777093083D+03

 The electronic state is 1-A.
 Alpha  occ. eigenvalues --  -20.60519 -20.60426 -20.59961 -20.59801 -15.85504
 Alpha  occ. eigenvalues --  -15.84919 -11.30914 -11.30399 -11.27537 -11.27425
 Alpha  occ. eigenvalues --  -11.27267 -11.27069 -11.26885 -11.26810 -11.26557
 Alpha  occ. eigenvalues --  -11.26482 -11.26113 -11.25986  -1.59561  -1.58949
 Alpha  occ. eigenvalues --   -1.39104  -1.38492  -1.19101  -1.18600  -1.08497
 Alpha  occ. eigenvalues --   -1.07986  -1.04502  -1.04012  -0.95317  -0.94794
 Alpha  occ. eigenvalues --   -0.85901  -0.85408  -0.82138  -0.81616  -0.77177
 Alpha  occ. eigenvalues --   -0.76633  -0.71741  -0.71139  -0.70915  -0.70245
 Alpha  occ. eigenvalues --   -0.70180  -0.69716  -0.64747  -0.64507  -0.64250
 Alpha  occ. eigenvalues --   -0.64025  -0.61838  -0.61344  -0.55019  -0.54546
 Alpha  occ. eigenvalues --   -0.52844  -0.52590  -0.52353  -0.52105  -0.48525
 Alpha  occ. eigenvalues --   -0.48483  -0.47941  -0.47878  -0.44595  -0.43744
 Alpha  occ. eigenvalues --   -0.37100  -0.36617  -0.36110  -0.35618
 Alpha virt. eigenvalues --    0.05320   0.05916   0.11540   0.12028   0.16805
 Alpha virt. eigenvalues --    0.17356   0.21683   0.22118   0.27604   0.28035
 Alpha virt. eigenvalues --    0.28596   0.29055   0.31215   0.31627   0.32902

 Mulliken charges:
               1
     1  C   -0.171905
     2  C   -0.218627
     3  C   -0.166515
     4  C    0.156151
     5  C   -0.173129
     6  C   -0.219582
     7  H    0.222517
     8  H    0.224352
     9  H    0.285328
    10  H    0.271799
    11  H    0.219342
    12  N    0.487405
    13  O   -0.471394
    14  O   -0.445665
    15  C   -0.171195
    16  C   -0.219025
    17  C   -0.171769
    18  C    0.156998
    19  C   -0.171896
    20  C   -0.219019
    21  H    0.224578
    22  H    0.221551
    23  H    0.273261
    24  H    0.283575
    25  H    0.224959
    26  N    0.486327
    27  O   -0.450138
    28  O   -0.468283
 Sum of Mulliken charges =  -0.00000

 Dipole moment (field-independent basis, Debye):
    X=             -1.9717    Y=             -4.2602    Z=             -4.5912  Tot=              6.5663
 Quadrupole moment (field-independent basis, Debye-Ang):
   XX=            -78.3605   YY=           -104.4239   ZZ=           -103.5820
   XY=            -12.2144   XZ=              5.5536   YZ=             -0.7307

 Normal termination of Gaussian 16 at Fri May  7 01:59:19 2021.
