 Gaussian 16, Revision A.03,
 Gaussian 16:  EM64L-G16RevA.03 25-Dec-2016

 -------------
 #p 6-31g* mp2
 -------------

 ------------------------------------------------------
 Input file generated by CHIRIPA (05-May-2021 14:51:14)
 ------------------------------------------------------
 Symbolic Z-matrix:
 Charge =  0 Multiplicity = 1

                         Standard orientation:
 ---------------------------------------------------------------------
 Center     Atomic      Atomic             Coordinates (Angstroms)
 Number     Number       Type             X           Y           Z
 ---------------------------------------------------------------------
      1          6           0       -2.615505    1.112678    0.024133
      2          6           0       -3.303063    2.464122    0.221234
      3          6           0       -2.309817    3.619064    0.353014
      4          1           0       -1.941990    0.924091    0.871339
      5          1           0       -1.983441    1.158170   -0.873542
      6          1           0       -3.934718    2.415659    1.117492
      7          1           0       -3.975163    2.649426   -0.626445
      8          1           0       -1.687258    3.696044   -0.544257
      9          1           0       -1.646583    3.460949    1.209589
     10          1           0       -2.822754    4.575684    0.493140
     11          6           0       -3.595296   -0.051775   -0.109233
     12          6           0       -2.907738   -1.403218   -0.306334
     13          6           0       -3.900983   -2.558160   -0.438114
     14          1           0       -4.227359   -0.097267    0.788442
     15          1           0       -4.268810    0.136812   -0.956439
     16          1           0       -2.235637   -1.588522    0.541345
     17          1           0       -2.276082   -1.354756   -1.202592
     18          1           0       -4.564217   -2.400045   -1.294689
     19          1           0       -4.523543   -2.635141    0.459157
     20          1           0       -3.388047   -3.514780   -0.578240
     21          6           0        2.468770   -0.905740   -0.150565
     22          6           0        2.194622   -2.126860    0.727895
     23          6           0        0.917608   -2.867187    0.329218
     24          1           0        1.612324   -0.220160   -0.092029
     25          1           0        2.541679   -1.226007   -1.199139
     26          1           0        2.123627   -1.804579    1.774657
     27          1           0        3.051903   -2.809522    0.667411
     28          1           0        0.982167   -3.216495   -0.706358
     29          1           0        0.048617   -2.205842    0.407179
     30          1           0        0.740865   -3.736593    0.970121
     31          6           0        3.742030   -0.155165    0.235665
     32          6           0        4.016178    1.065956   -0.642795
     33          6           0        5.293192    1.806284   -0.244118
     34          1           0        3.669121    0.165103    1.284239
     35          1           0        4.598476   -0.840744    0.177129
     36          1           0        3.158898    1.748618   -0.582311
     37          1           0        4.087173    0.743675   -1.689557
     38          1           0        6.162183    1.144939   -0.322079
     39          1           0        5.228634    2.155592    0.791458
     40          1           0        5.469935    2.675689   -0.885022
 ---------------------------------------------------------------------

 SCF Done:  E(RHF) =  -470.733178734     A.U. after   11 cycles
 E2 =    -0.1582805093D+01 EUMP2 =    -0.47231598382699D+03

 The electronic state is 1-A.
 Alpha  occ. eigenvalues --  -11.21637 -11.21595 -11.21576 -11.21552 -11.21441
 Alpha  occ. eigenvalues --  -11.21375 -11.21369 -11.21308 -11.21107 -11.21058
 Alpha  occ. eigenvalues --  -11.21051 -11.20957  -1.08461  -1.08390  -1.03558
 Alpha  occ. eigenvalues --   -1.03479  -0.96002  -0.95930  -0.87025  -0.86943
 Alpha  occ. eigenvalues --   -0.79683  -0.79496  -0.78308  -0.78171  -0.65106
 Alpha  occ. eigenvalues --   -0.65009  -0.61003  -0.60843  -0.59380  -0.59298
 Alpha  occ. eigenvalues --   -0.57663  -0.57495  -0.55306  -0.55207  -0.52696
 Alpha  occ. eigenvalues --   -0.52627  -0.52452  -0.52331  -0.50005  -0.49853
 Alpha  occ. eigenvalues --   -0.48086  -0.47720  -0.46748  -0.46514  -0.45928
 Alpha  occ. eigenvalues --   -0.45739  -0.45700  -0.45468  -0.43802  -0.43744
 Alpha virt. eigenvalues --    0.21774   0.23217   0.23660   0.24569   0.25770
 Alpha virt. eigenvalues --    0.26578   0.27000   0.27514   0.28237   0.29126
 Alpha virt. eigenvalues --    0.30641   0.31459   0.31713   0.31843   0.32115

 Mulliken charges:
               1
     1  C   -0.298895
     2  C   -0.299554
     3  C   -0.475777
     4  H    0.148641
     5  H    0.149884
     6  H    0.152071
     7  H    0.152244
     8  H    0.155261
     9  H    0.154890
    10  H    0.160478
    11  C   -0.297630
    12  C   -0.304477
    13  C   -0.475669
    14  H    0.149456
    15  H    0.149802
    16  H    0.155992
    17  H    0.153126
    18  H    0.155062
    19  H    0.154919
    20  H    0.161339
    21  C   -0.298765
    22  C   -0.299136
    23  C   -0.483003
    24  H    0.150460
    25  H    0.149230
    26  H    0.151220
    27  H    0.151566
    28  H    0.154533
    29  H    0.163840
    30  H    0.159206
    31  C   -0.298188
    32  C   -0.299717
    33  C   -0.475663
    34  H    0.149348
    35  H    0.149543
    36  H    0.152182
    37  H    0.151747
    38  H    0.155095
    39  H    0.155158
    40  H    0.160181
 Sum of Mulliken charges =  -0.00000

 Dipole moment (field-independent basis, Debye):
    X=             -0.0463    Y=              0.0065    Z=             -0.0122  Tot=              0.0483
 Quadrupole moment (field-independent basis, Debye-Ang):
   XX=            -85.6818   YY=            -85.7655   ZZ=            -83.3693
   XY=             -1.3782   XZ=             -0.5410   YZ=              0.0505

 Normal termination of Gaussian 16 at Wed May  5 20:01:45 2021.
