 Gaussian 16, Revision A.03,
 Gaussian 16:  EM64L-G16RevA.03 25-Dec-2016

 -------------
 #p 6-31g* mp2
 -------------

 ------------------------------------------------------
 Input file generated by CHIRIPA (05-May-2021 14:55:25)
 ------------------------------------------------------
 Symbolic Z-matrix:
 Charge =  0 Multiplicity = 1

                         Standard orientation:
 ---------------------------------------------------------------------
 Center     Atomic      Atomic             Coordinates (Angstroms)
 Number     Number       Type             X           Y           Z
 ---------------------------------------------------------------------
      1          6           0       -1.599913    2.016454    0.405328
      2          6           0       -2.784294    2.406300   -0.228535
      3          6           0       -3.826163    1.492071   -0.410862
      4          6           0       -3.648976    0.190254    0.055150
      5          6           0       -2.480951   -0.228492    0.690493
      6          6           0       -1.452282    0.702619    0.862014
      7          1           0       -0.795691    2.733206    0.542767
      8          1           0       -2.901731    3.425977   -0.584221
      9          1           0       -4.753664    1.767111   -0.898216
     10          1           0       -2.393219   -1.251964    1.034334
     11          1           0       -0.533586    0.397054    1.354633
     12          7           0       -4.744969   -0.786535   -0.132151
     13          8           0       -4.564102   -1.927521    0.287461
     14          8           0       -5.764123   -0.392661   -0.695024
     15          6           0        5.198933   -0.447948   -0.028511
     16          6           0        5.820618    0.942175   -0.166544
     17          6           0        7.340540    0.929126   -0.000837
     18          1           0        5.458413   -0.862654    0.955173
     19          1           0        5.644609   -1.117289   -0.777343
     20          1           0        5.372903    1.609050    0.581416
     21          1           0        5.559468    1.353699   -1.149938
     22          1           0        7.804843    0.286232   -0.755630
     23          1           0        7.617218    0.543034    0.985562
     24          1           0        7.764183    1.933066   -0.103254
     25          6           0        3.680024   -0.451228   -0.191701
     26          6           0        3.058341   -1.841351   -0.053666
     27          6           0        1.538417   -1.828303   -0.219374
     28          1           0        3.234348    0.218113    0.557133
     29          1           0        3.420544   -0.036522   -1.175384
     30          1           0        3.319490   -2.252875    0.929727
     31          1           0        3.506055   -2.508227   -0.801628
     32          1           0        1.261740   -1.442211   -1.205773
     33          1           0        1.074114   -1.185409    0.535419
     34          1           0        1.114774   -2.832243   -0.116957
 ---------------------------------------------------------------------

 SCF Done:  E(RHF) =  -669.535287386     A.U. after   15 cycles
 E2 =    -0.2091071914D+01 EUMP2 =    -0.67162635930019D+03

 The electronic state is 1-A.
 Alpha  occ. eigenvalues --  -20.60722 -20.60716 -15.85775 -11.31135 -11.27710
 Alpha  occ. eigenvalues --  -11.27696 -11.27449 -11.26727 -11.26702 -11.22210
 Alpha  occ. eigenvalues --  -11.22099 -11.22034 -11.21890 -11.21802 -11.21480
 Alpha  occ. eigenvalues --   -1.59797  -1.39351  -1.19310  -1.09006  -1.08707
 Alpha  occ. eigenvalues --   -1.04715  -1.04094  -0.96553  -0.95541  -0.87573
 Alpha  occ. eigenvalues --   -0.86112  -0.82377  -0.80160  -0.78820  -0.77421
 Alpha  occ. eigenvalues --   -0.71994  -0.71120  -0.70418  -0.65646  -0.64963
 Alpha  occ. eigenvalues --   -0.64739  -0.62113  -0.61461  -0.59911  -0.58155
 Alpha  occ. eigenvalues --   -0.55867  -0.55211  -0.53243  -0.53152  -0.52973
 Alpha  occ. eigenvalues --   -0.52695  -0.50485  -0.48758  -0.48748  -0.48460
 Alpha  occ. eigenvalues --   -0.47188  -0.46358  -0.46281  -0.44757  -0.44347
 Alpha  occ. eigenvalues --   -0.37290  -0.36299
 Alpha virt. eigenvalues --    0.05107   0.11311   0.16543   0.20140   0.22503
 Alpha virt. eigenvalues --    0.23777   0.25347   0.26465   0.27056   0.28345
 Alpha virt. eigenvalues --    0.28698   0.29908   0.31230   0.31506   0.32078

 Mulliken charges:
               1
     1  C   -0.171737
     2  C   -0.218667
     3  C   -0.171031
     4  C    0.158236
     5  C   -0.171254
     6  C   -0.217830
     7  H    0.225594
     8  H    0.223170
     9  H    0.275408
    10  H    0.275987
    11  H    0.225593
    12  N    0.488134
    13  O   -0.460401
    14  O   -0.460711
    15  C   -0.298616
    16  C   -0.299768
    17  C   -0.475968
    18  H    0.150569
    19  H    0.151717
    20  H    0.150108
    21  H    0.152176
    22  H    0.156476
    23  H    0.155857
    24  H    0.160966
    25  C   -0.297413
    26  C   -0.300310
    27  C   -0.477292
    28  H    0.143025
    29  H    0.150683
    30  H    0.152962
    31  H    0.155702
    32  H    0.159797
    33  H    0.143670
    34  H    0.165170
 Sum of Mulliken charges =  -0.00000

 Dipole moment (field-independent basis, Debye):
    X=              4.0004    Y=              3.3805    Z=              0.5883  Tot=              5.2704
 Quadrupole moment (field-independent basis, Debye-Ang):
   XX=           -122.6720   YY=            -91.1149   ZZ=            -93.3699
   XY=            -14.4781   XZ=             -1.1258   YZ=             -1.3233

 Normal termination of Gaussian 16 at Thu May  6 01:38:46 2021.
