 Gaussian 16, Revision A.03,
 Gaussian 16:  EM64L-G16RevA.03 25-Dec-2016

 -------------
 #p 6-31g* mp2
 -------------

 ------------------------------------------------------
 Input file generated by CHIRIPA (05-May-2021 14:55:25)
 ------------------------------------------------------
 Symbolic Z-matrix:
 Charge =  0 Multiplicity = 1

                         Standard orientation:
 ---------------------------------------------------------------------
 Center     Atomic      Atomic             Coordinates (Angstroms)
 Number     Number       Type             X           Y           Z
 ---------------------------------------------------------------------
      1          6           0        4.575879   -1.701007    0.573917
      2          6           0        4.348698   -0.728662    1.553436
      3          6           0        3.540731    0.379097    1.280294
      4          6           0        2.973211    0.483301    0.011297
      5          6           0        3.180671   -0.468730   -0.985641
      6          6           0        3.992170   -1.568172   -0.690266
      7          1           0        5.204899   -2.558310    0.794736
      8          1           0        4.800715   -0.829221    2.536092
      9          1           0        3.348189    1.146624    2.020057
     10          1           0        2.716391   -0.341061   -1.955982
     11          1           0        4.166856   -2.321759   -1.452917
     12          7           0        2.115983    1.651634   -0.289634
     13          8           0        1.627552    1.720282   -1.415405
     14          8           0        1.948751    2.476602    0.605965
     15          6           0       -4.548897   -0.405170    0.437912
     16          6           0       -5.878744    0.144887   -0.078737
     17          6           0       -6.993962    0.072026    0.964707
     18          1           0       -4.688934   -1.447719    0.754815
     19          1           0       -4.251086    0.156609    1.334076
     20          1           0       -6.173267   -0.416851   -0.974461
     21          1           0       -5.735480    1.186187   -0.394624
     22          1           0       -6.725535    0.647872    1.856306
     23          1           0       -7.165809   -0.964274    1.273174
     24          1           0       -7.935649    0.470399    0.574340
     25          6           0       -3.424204   -0.339139   -0.593802
     26          6           0       -2.094356   -0.889197   -0.077153
     27          6           0       -0.979138   -0.816336   -1.120597
     28          1           0       -3.722014   -0.900919   -1.489965
     29          1           0       -3.284167    0.703409   -0.910704
     30          1           0       -2.237620   -1.930497    0.238735
     31          1           0       -1.799833   -0.327459    0.818572
     32          1           0       -0.807291    0.219964   -1.429064
     33          1           0       -1.247567   -1.392182   -2.012196
     34          1           0       -0.037452   -1.214708   -0.730230
 ---------------------------------------------------------------------

 SCF Done:  E(RHF) =  -669.536136808     A.U. after   15 cycles
 E2 =    -0.2091782530D+01 EUMP2 =    -0.67162791933833D+03

 The electronic state is 1-A.
 Alpha  occ. eigenvalues --  -20.60878 -20.60866 -15.85900 -11.31241 -11.27804
 Alpha  occ. eigenvalues --  -11.27795 -11.27545 -11.26817 -11.26806 -11.21213
 Alpha  occ. eigenvalues --  -11.21077 -11.20956 -11.20843 -11.20748 -11.20372
 Alpha  occ. eigenvalues --   -1.59931  -1.39488  -1.19411  -1.08810  -1.07958
 Alpha  occ. eigenvalues --   -1.04808  -1.03057  -0.95658  -0.95497  -0.86527
 Alpha  occ. eigenvalues --   -0.86202  -0.82485  -0.79131  -0.77773  -0.77528
 Alpha  occ. eigenvalues --   -0.72131  -0.71247  -0.70516  -0.65066  -0.64809
 Alpha  occ. eigenvalues --   -0.64581  -0.62154  -0.60441  -0.58901  -0.57129
 Alpha  occ. eigenvalues --   -0.55312  -0.54769  -0.53170  -0.52900  -0.52197
 Alpha  occ. eigenvalues --   -0.51915  -0.49442  -0.48890  -0.48877  -0.47445
 Alpha  occ. eigenvalues --   -0.46191  -0.45335  -0.45260  -0.44737  -0.43322
 Alpha  occ. eigenvalues --   -0.37380  -0.36398
 Alpha virt. eigenvalues --    0.04964   0.11191   0.16446   0.21358   0.23339
 Alpha virt. eigenvalues --    0.24731   0.27135   0.27188   0.27913   0.28001
 Alpha virt. eigenvalues --    0.28689   0.30869   0.31772   0.32016   0.32214

 Mulliken charges:
               1
     1  C   -0.170606
     2  C   -0.218529
     3  C   -0.170980
     4  C    0.158853
     5  C   -0.170131
     6  C   -0.219322
     7  H    0.225845
     8  H    0.223646
     9  H    0.275634
    10  H    0.277404
    11  H    0.223965
    12  N    0.488650
    13  O   -0.458932
    14  O   -0.459962
    15  C   -0.298097
    16  C   -0.299581
    17  C   -0.475504
    18  H    0.147302
    19  H    0.150234
    20  H    0.150880
    21  H    0.153557
    22  H    0.155298
    23  H    0.153827
    24  H    0.159475
    25  C   -0.298793
    26  C   -0.298721
    27  C   -0.486820
    28  H    0.147495
    29  H    0.154842
    30  H    0.147039
    31  H    0.152797
    32  H    0.178588
    33  H    0.149910
    34  H    0.150737
 Sum of Mulliken charges =  -0.00000

 Dipole moment (field-independent basis, Debye):
    X=              3.1571    Y=             -3.9637    Z=              1.0239  Tot=              5.1697
 Quadrupole moment (field-independent basis, Debye-Ang):
   XX=            -78.4246   YY=            -98.0661   ZZ=            -90.8140
   XY=            -10.7984   XZ=              4.7993   YZ=              2.5269

 Normal termination of Gaussian 16 at Thu May  6 14:24:50 2021.
