 Gaussian 16, Revision A.03,
 Gaussian 16:  EM64L-G16RevA.03 25-Dec-2016

 -------------
 #p 6-31g* mp2
 -------------

 ------------------------------------------------------
 Input file generated by CHIRIPA (05-May-2021 14:55:22)
 ------------------------------------------------------
 Symbolic Z-matrix:
 Charge =  0 Multiplicity = 1

                         Standard orientation:
 ---------------------------------------------------------------------
 Center     Atomic      Atomic             Coordinates (Angstroms)
 Number     Number       Type             X           Y           Z
 ---------------------------------------------------------------------
      1          6           0        1.136990    1.424258   -1.176943
      2          6           0        0.873954    0.068581   -0.954515
      3          6           0        1.874898   -0.778702   -0.469983
      4          6           0        3.133177   -0.234373   -0.217532
      5          6           0        3.426186    1.111997   -0.429010
      6          6           0        2.410022    1.940729   -0.913944
      7          1           0        0.353520    2.075242   -1.553495
      8          1           0       -0.113767   -0.335269   -1.157877
      9          1           0        1.698567   -1.832037   -0.288846
     10          1           0        4.420615    1.485575   -0.216951
     11          1           0        2.617160    2.993165   -1.085747
     12          7           0        4.200888   -1.121534    0.295633
     13          8           0        5.301143   -0.617497    0.510159
     14          8           0        3.917287   -2.304130    0.473609
     15          6           0       -3.196889    0.135015    0.873323
     16          6           0       -2.345328    1.397758    0.738022
     17          6           0       -1.172227    1.427496    1.718197
     18          1           0       -3.575111    0.064015    1.902330
     19          1           0       -2.561051   -0.746597    0.712492
     20          1           0       -2.982868    2.276771    0.897694
     21          1           0       -1.969247    1.465860   -0.290833
     22          1           0       -0.512794    0.568761    1.555957
     23          1           0       -1.532174    1.384278    2.751237
     24          1           0       -0.576843    2.338754    1.604229
     25          6           0       -4.373556    0.090671   -0.099927
     26          6           0       -5.225117   -1.172073    0.035374
     27          6           0       -6.398218   -1.201811   -0.944801
     28          1           0       -5.009393    0.972282    0.060905
     29          1           0       -3.995333    0.161670   -1.128933
     30          1           0       -5.601198   -1.240175    1.064229
     31          1           0       -4.587576   -2.051085   -0.124298
     32          1           0       -6.038269   -1.158593   -1.977841
     33          1           0       -7.057650   -0.343075   -0.782561
     34          1           0       -6.993600   -2.113069   -0.830833
 ---------------------------------------------------------------------

 SCF Done:  E(RHF) =  -669.534368641     A.U. after   15 cycles
 E2 =    -0.2093610969D+01 EUMP2 =    -0.67162797961006D+03

 The electronic state is 1-A.
 Alpha  occ. eigenvalues --  -20.60780 -20.60775 -15.85835 -11.31216 -11.27785
 Alpha  occ. eigenvalues --  -11.27780 -11.27507 -11.26800 -11.26784 -11.22486
 Alpha  occ. eigenvalues --  -11.22190 -11.22172 -11.22079 -11.21562 -11.21561
 Alpha  occ. eigenvalues --   -1.59855  -1.39408  -1.19394  -1.09171  -1.08777
 Alpha  occ. eigenvalues --   -1.04813  -1.04181  -0.96605  -0.95610  -0.87611
 Alpha  occ. eigenvalues --   -0.86199  -0.82451  -0.80264  -0.78975  -0.77497
 Alpha  occ. eigenvalues --   -0.72053  -0.71178  -0.70506  -0.65899  -0.65042
 Alpha  occ. eigenvalues --   -0.64767  -0.62208  -0.61520  -0.59984  -0.58227
 Alpha  occ. eigenvalues --   -0.55960  -0.55289  -0.53353  -0.53049  -0.52966
 Alpha  occ. eigenvalues --   -0.52881  -0.50504  -0.48814  -0.48807  -0.48560
 Alpha  occ. eigenvalues --   -0.47324  -0.46504  -0.46449  -0.44811  -0.44454
 Alpha  occ. eigenvalues --   -0.37314  -0.36363
 Alpha virt. eigenvalues --    0.05011   0.11175   0.16418   0.19137   0.22653
 Alpha virt. eigenvalues --    0.24104   0.25418   0.25672   0.27117   0.28195
 Alpha virt. eigenvalues --    0.28732   0.30518   0.31110   0.31412   0.31935

 Mulliken charges:
               1
     1  C   -0.167300
     2  C   -0.218896
     3  C   -0.172921
     4  C    0.159075
     5  C   -0.170543
     6  C   -0.219546
     7  H    0.226832
     8  H    0.225742
     9  H    0.275586
    10  H    0.275781
    11  H    0.223621
    12  N    0.488106
    13  O   -0.460274
    14  O   -0.460416
    15  C   -0.299103
    16  C   -0.301969
    17  C   -0.476109
    18  H    0.154892
    19  H    0.145631
    20  H    0.155295
    21  H    0.137959
    22  H    0.160892
    23  H    0.157327
    24  H    0.158276
    25  C   -0.298056
    26  C   -0.300007
    27  C   -0.476032
    28  H    0.151719
    29  H    0.145192
    30  H    0.154281
    31  H    0.151672
    32  H    0.154654
    33  H    0.156136
    34  H    0.162501
 Sum of Mulliken charges =  -0.00000

 Dipole moment (field-independent basis, Debye):
    X=             -3.8256    Y=              3.1235    Z=             -1.7320  Tot=              5.2337
 Quadrupole moment (field-independent basis, Debye-Ang):
   XX=           -116.5839   YY=            -93.3232   ZZ=            -94.6485
   XY=             13.3335   XZ=             -6.0395   YZ=              0.0327

 Normal termination of Gaussian 16 at Wed May  5 22:16:22 2021.
