 Gaussian 16, Revision A.03,
 Gaussian 16:  EM64L-G16RevA.03 25-Dec-2016

 -------------
 #p 6-31g* mp2
 -------------

 ------------------------------------------------------
 Input file generated by CHIRIPA (05-May-2021 14:51:09)
 ------------------------------------------------------
 Symbolic Z-matrix:
 Charge =  0 Multiplicity = 1

                         Standard orientation:
 ---------------------------------------------------------------------
 Center     Atomic      Atomic             Coordinates (Angstroms)
 Number     Number       Type             X           Y           Z
 ---------------------------------------------------------------------
      1          6           0       -2.397503   -0.421490    0.295361
      2          6           0       -1.984621   -1.268723    1.499400
      3          6           0       -0.473689   -1.490012    1.576290
      4          1           0       -2.049705   -0.909926   -0.625189
      5          1           0       -1.885892    0.549613    0.346425
      6          1           0       -2.497927   -2.237417    1.446814
      7          1           0       -2.333609   -0.778311    2.417179
      8          1           0        0.052395   -0.532985    1.653323
      9          1           0       -0.112857   -2.000381    0.677444
     10          1           0       -0.200660   -2.098074    2.444378
     11          6           0       -3.905028   -0.191498    0.204808
     12          6           0       -4.317910    0.655735   -0.999231
     13          6           0       -5.828841    0.877024   -1.076121
     14          1           0       -4.416638   -1.162602    0.153744
     15          1           0       -4.252826    0.296937    1.125358
     16          1           0       -3.968922    0.165322   -1.917010
     17          1           0       -3.804604    1.624428   -0.946644
     18          1           0       -6.189674    1.387392   -0.177275
     19          1           0       -6.354925   -0.080004   -1.153154
     20          1           0       -6.101871    1.485085   -1.944209
     21          6           0        2.805114    0.871808    0.129429
     22          6           0        3.418877    2.246485   -0.138048
     23          6           0        2.715563    3.367144    0.628286
     24          1           0        1.741160    0.892939   -0.143520
     25          1           0        2.847182    0.662641    1.207332
     26          1           0        3.376919    2.452405   -1.215290
     27          1           0        4.481538    2.222024    0.135391
     28          1           0        2.769278    3.188725    1.707120
     29          1           0        1.658382    3.420414    0.348764
     30          1           0        3.170402    4.341108    0.422433
     31          6           0        3.497417   -0.258820   -0.629599
     32          6           0        2.883653   -1.633497   -0.362122
     33          6           0        3.586967   -2.754155   -1.128455
     34          1           0        3.455349   -0.049652   -1.707502
     35          1           0        4.561370   -0.279951   -0.356650
     36          1           0        1.820992   -1.609036   -0.635560
     37          1           0        2.925612   -1.839416    0.715122
     38          1           0        4.644148   -2.807425   -0.848933
     39          1           0        3.533252   -2.575736   -2.207289
     40          1           0        3.132128   -3.728119   -0.922602
 ---------------------------------------------------------------------

 SCF Done:  E(RHF) =  -470.732725338     A.U. after   11 cycles
 E2 =    -0.1583420222D+01 EUMP2 =    -0.47231614555981D+03

 The electronic state is 1-A.
 Alpha  occ. eigenvalues --  -11.21612 -11.21590 -11.21555 -11.21491 -11.21411
 Alpha  occ. eigenvalues --  -11.21369 -11.21351 -11.21308 -11.21081 -11.21078
 Alpha  occ. eigenvalues --  -11.21023 -11.20942  -1.08434  -1.08385  -1.03531
 Alpha  occ. eigenvalues --   -1.03475  -0.95958  -0.95953  -0.87008  -0.86940
 Alpha  occ. eigenvalues --   -0.79687  -0.79476  -0.78325  -0.78101  -0.65064
 Alpha  occ. eigenvalues --   -0.65021  -0.60981  -0.60835  -0.59341  -0.59318
 Alpha  occ. eigenvalues --   -0.57577  -0.57567  -0.55283  -0.55200  -0.52708
 Alpha  occ. eigenvalues --   -0.52634  -0.52413  -0.52332  -0.49980  -0.49833
 Alpha  occ. eigenvalues --   -0.48110  -0.47737  -0.46708  -0.46452  -0.46005
 Alpha  occ. eigenvalues --   -0.45716  -0.45652  -0.45359  -0.43770  -0.43745
 Alpha virt. eigenvalues --    0.21673   0.23153   0.23827   0.24170   0.25886
 Alpha virt. eigenvalues --    0.26272   0.26586   0.27770   0.27828   0.29672
 Alpha virt. eigenvalues --    0.30329   0.31256   0.31782   0.31879   0.32197

 Mulliken charges:
               1
     1  C   -0.298334
     2  C   -0.300197
     3  C   -0.480680
     4  H    0.148682
     5  H    0.149106
     6  H    0.151504
     7  H    0.151568
     8  H    0.159397
     9  H    0.159172
    10  H    0.159091
    11  C   -0.298148
    12  C   -0.299643
    13  C   -0.475704
    14  H    0.149626
    15  H    0.149836
    16  H    0.151766
    17  H    0.151780
    18  H    0.155261
    19  H    0.155218
    20  H    0.160231
    21  C   -0.300448
    22  C   -0.299488
    23  C   -0.475724
    24  H    0.151611
    25  H    0.149934
    26  H    0.151928
    27  H    0.151960
    28  H    0.155031
    29  H    0.154663
    30  H    0.160359
    31  C   -0.298050
    32  C   -0.302741
    33  C   -0.475779
    34  H    0.149025
    35  H    0.149265
    36  H    0.156048
    37  H    0.153505
    38  H    0.154923
    39  H    0.154636
    40  H    0.159810
 Sum of Mulliken charges =  -0.00000

 Dipole moment (field-independent basis, Debye):
    X=              0.0109    Y=             -0.0045    Z=              0.0085  Tot=              0.0145
 Quadrupole moment (field-independent basis, Debye-Ang):
   XX=            -85.7729   YY=            -85.0122   ZZ=            -84.1579
   XY=              0.6265   XZ=              0.6236   YZ=             -0.0280

 Normal termination of Gaussian 16 at Wed May  5 21:21:53 2021.
