 Gaussian 16, Revision A.03,
 Gaussian 16:  EM64L-G16RevA.03 25-Dec-2016

 -------------
 #p 6-31g* mp2
 -------------

 ------------------------------------------------------
 Input file generated by CHIRIPA (05-May-2021 14:57:23)
 ------------------------------------------------------
 Symbolic Z-matrix:
 Charge =  0 Multiplicity = 1

                         Standard orientation:
 ---------------------------------------------------------------------
 Center     Atomic      Atomic             Coordinates (Angstroms)
 Number     Number       Type             X           Y           Z
 ---------------------------------------------------------------------
      1          6           0        2.705474    2.568979    0.612338
      2          6           0        2.297677    1.751298    1.671404
      3          6           0        2.243441    0.362932    1.516338
      4          6           0        2.605628   -0.176539    0.283016
      5          6           0        3.016096    0.611602   -0.791060
      6          6           0        3.062751    1.997529   -0.613353
      7          1           0        2.744661    3.646547    0.741591
      8          1           0        2.019635    2.192330    2.624414
      9          1           0        1.931419   -0.293502    2.319553
     10          1           0        3.287198    0.142840   -1.729241
     11          1           0        3.379837    2.630096   -1.437586
     12          7           0        2.552223   -1.645049    0.106870
     13          8           0        2.876430   -2.095739   -0.989672
     14          8           0        2.187168   -2.317570    1.068685
     15          6           0       -4.757766    0.197068    0.992980
     16          6           0       -4.430702    1.117329   -0.008354
     17          6           0       -3.245763    0.981691   -0.737785
     18          6           0       -2.407219   -0.090873   -0.438213
     19          6           0       -2.705298   -1.024200    0.553422
     20          6           0       -3.895540   -0.868880    1.270184
     21          1           0       -5.680314    0.310080    1.554699
     22          1           0       -5.098421    1.946133   -0.225797
     23          1           0       -2.968045    1.679612   -1.518295
     24          1           0       -2.019690   -1.840127    0.747387
     25          1           0       -4.146972   -1.585088    2.047276
     26          7           0       -1.149970   -0.244885   -1.203722
     27          8           0       -0.428092   -1.198480   -0.920555
     28          8           0       -0.910224    0.590912   -2.072400
 ---------------------------------------------------------------------

 SCF Done:  E(RHF) =  -868.338348535     A.U. after   16 cycles
 E2 =    -0.2601728658D+01 EUMP2 =    -0.87094007719351D+03

 The electronic state is 1-A.
 Alpha  occ. eigenvalues --  -20.60821 -20.60816 -20.59396 -20.59328 -15.85851
 Alpha  occ. eigenvalues --  -15.84435 -11.31182 -11.29997 -11.27784 -11.27690
 Alpha  occ. eigenvalues --  -11.27511 -11.26790 -11.26734 -11.26677 -11.26534
 Alpha  occ. eigenvalues --  -11.26463 -11.25800 -11.25675  -1.59885  -1.58394
 Alpha  occ. eigenvalues --   -1.39440  -1.37967  -1.19359  -1.18205  -1.08767
 Alpha  occ. eigenvalues --   -1.07568  -1.04753  -1.03669  -0.95605  -0.94379
 Alpha  occ. eigenvalues --   -0.86152  -0.85059  -0.82440  -0.81239  -0.77480
 Alpha  occ. eigenvalues --   -0.76229  -0.72197  -0.71235  -0.70704  -0.70469
 Alpha  occ. eigenvalues --   -0.69478  -0.69372  -0.65005  -0.64754  -0.63887
 Alpha  occ. eigenvalues --   -0.63716  -0.62087  -0.61031  -0.55267  -0.54213
 Alpha  occ. eigenvalues --   -0.53098  -0.52839  -0.51967  -0.51794  -0.48844
 Alpha  occ. eigenvalues --   -0.48830  -0.47461  -0.47410  -0.44873  -0.43340
 Alpha  occ. eigenvalues --   -0.37361  -0.36362  -0.36161  -0.35271
 Alpha virt. eigenvalues --    0.04991   0.06446   0.11293   0.12380   0.16522
 Alpha virt. eigenvalues --    0.17801   0.21448   0.22327   0.27368   0.28194
 Alpha virt. eigenvalues --    0.28367   0.29261   0.30987   0.31788   0.32671

 Mulliken charges:
               1
     1  C   -0.172981
     2  C   -0.220428
     3  C   -0.175939
     4  C    0.167946
     5  C   -0.161370
     6  C   -0.216680
     7  H    0.220064
     8  H    0.216721
     9  H    0.269505
    10  H    0.277363
    11  H    0.220871
    12  N    0.500081
    13  O   -0.456765
    14  O   -0.470899
    15  C   -0.170937
    16  C   -0.219163
    17  C   -0.171327
    18  C    0.157328
    19  C   -0.172529
    20  C   -0.219432
    21  H    0.225329
    22  H    0.222465
    23  H    0.274028
    24  H    0.283378
    25  H    0.224812
    26  N    0.491035
    27  O   -0.460070
    28  O   -0.462407
 Sum of Mulliken charges =  -0.00000

 Dipole moment (field-independent basis, Debye):
    X=             -4.3586    Y=              5.4551    Z=              3.0303  Tot=              7.6117
 Quadrupole moment (field-independent basis, Debye-Ang):
   XX=            -83.4930   YY=           -104.6795   ZZ=           -101.9512
   XY=             11.5710   XZ=             -4.9175   YZ=             -2.2736

 Normal termination of Gaussian 16 at Fri May  7 03:23:24 2021.
