 Gaussian 16, Revision A.03,
 Gaussian 16:  EM64L-G16RevA.03 25-Dec-2016

 -------------
 #p 6-31g* mp2
 -------------

 ------------------------------------------------------
 Input file generated by CHIRIPA (05-May-2021 14:57:24)
 ------------------------------------------------------
 Symbolic Z-matrix:
 Charge =  0 Multiplicity = 1

                         Standard orientation:
 ---------------------------------------------------------------------
 Center     Atomic      Atomic             Coordinates (Angstroms)
 Number     Number       Type             X           Y           Z
 ---------------------------------------------------------------------
      1          6           0        5.380881   -1.820838    0.427681
      2          6           0        4.024115   -1.928587    0.750321
      3          6           0        3.134907   -0.897312    0.433573
      4          6           0        3.638878    0.232621   -0.208730
      5          6           0        4.985205    0.369592   -0.543294
      6          6           0        5.856258   -0.674114   -0.216961
      7          1           0        6.064588   -2.626785    0.677461
      8          1           0        3.652126   -2.817985    1.250961
      9          1           0        2.079733   -0.954595    0.671785
     10          1           0        5.326453    1.268444   -1.042325
     11          1           0        6.909436   -0.587695   -0.468740
     12          7           0        2.707123    1.330966   -0.549131
     13          8           0        3.176086    2.316091   -1.115027
     14          8           0        1.525494    1.185926   -0.243595
     15          6           0       -1.956041    1.259838    1.281202
     16          6           0       -1.736195   -0.068495    0.902094
     17          6           0       -2.746491   -0.804700    0.276114
     18          6           0       -3.969979   -0.178386    0.043522
     19          6           0       -4.219614    1.143390    0.409419
     20          6           0       -3.194864    1.860482    1.034090
     21          1           0       -1.165604    1.824316    1.766971
     22          1           0       -0.775107   -0.537540    1.092745
     23          1           0       -2.603293   -1.834527   -0.027809
     24          1           0       -5.188184    1.583790    0.206102
     25          1           0       -3.368428    2.891927    1.327418
     26          7           0       -5.047185   -0.947657   -0.618483
     27          8           0       -6.116207   -0.372935   -0.812196
     28          8           0       -4.802079   -2.110765   -0.931113
 ---------------------------------------------------------------------

 SCF Done:  E(RHF) =  -868.338717736     A.U. after   16 cycles
 E2 =    -0.2599358873D+01 EUMP2 =    -0.87093807660858D+03

 The electronic state is 1-A.
 Alpha  occ. eigenvalues --  -20.61694 -20.61639 -20.60208 -20.60201 -15.86709
 Alpha  occ. eigenvalues --  -15.85257 -11.31946 -11.30441 -11.28574 -11.28444
 Alpha  occ. eigenvalues --  -11.28162 -11.27482 -11.27426 -11.27024 -11.27006
 Alpha  occ. eigenvalues --  -11.26600 -11.25962 -11.25933  -1.60731  -1.59287
 Alpha  occ. eigenvalues --   -1.40295  -1.38846  -1.20092  -1.18590  -1.09500
 Alpha  occ. eigenvalues --   -1.07985  -1.05481  -1.03988  -0.96367  -0.94858
 Alpha  occ. eigenvalues --   -0.86883  -0.85377  -0.83208  -0.81720  -0.78290
 Alpha  occ. eigenvalues --   -0.76816  -0.72942  -0.72041  -0.71479  -0.71200
 Alpha  occ. eigenvalues --   -0.70607  -0.69634  -0.65750  -0.65480  -0.64237
 Alpha  occ. eigenvalues --   -0.63993  -0.62844  -0.61361  -0.55960  -0.54398
 Alpha  occ. eigenvalues --   -0.53803  -0.53574  -0.52287  -0.52091  -0.49699
 Alpha  occ. eigenvalues --   -0.49660  -0.48245  -0.48219  -0.45727  -0.44294
 Alpha  occ. eigenvalues --   -0.38041  -0.37073  -0.36476  -0.35587
 Alpha virt. eigenvalues --    0.04249   0.05745   0.10585   0.12071   0.15779
 Alpha virt. eigenvalues --    0.17303   0.19238   0.22031   0.24922   0.27081
 Alpha virt. eigenvalues --    0.28788   0.29140   0.30333   0.31016   0.32724

 Mulliken charges:
               1
     1  C   -0.169755
     2  C   -0.219306
     3  C   -0.171075
     4  C    0.157803
     5  C   -0.169679
     6  C   -0.218246
     7  H    0.228482
     8  H    0.225148
     9  H    0.270244
    10  H    0.277385
    11  H    0.226207
    12  N    0.490547
    13  O   -0.455259
    14  O   -0.471404
    15  C   -0.163545
    16  C   -0.211159
    17  C   -0.173714
    18  C    0.157825
    19  C   -0.171456
    20  C   -0.219650
    21  H    0.232058
    22  H    0.219904
    23  H    0.270625
    24  H    0.273227
    25  H    0.222195
    26  N    0.488379
    27  O   -0.462169
    28  O   -0.463613
 Sum of Mulliken charges =  -0.00000

 Dipole moment (field-independent basis, Debye):
    X=              7.5723    Y=             -1.0148    Z=              3.5217  Tot=              8.4126
 Quadrupole moment (field-independent basis, Debye-Ang):
   XX=           -106.6317   YY=           -103.5979   ZZ=           -105.8450
   XY=            -25.9940   XZ=             -7.5427   YZ=             -0.1970

 Normal termination of Gaussian 16 at Fri May  7 08:01:49 2021.
