 Gaussian 16, Revision A.03,
 Gaussian 16:  EM64L-G16RevA.03 25-Dec-2016

 -------------
 #p 6-31g* mp2
 -------------

 ------------------------------------------------------
 Input file generated by CHIRIPA (05-May-2021 14:53:13)
 ------------------------------------------------------
 Symbolic Z-matrix:
 Charge =  0 Multiplicity = 1

                         Standard orientation:
 ---------------------------------------------------------------------
 Center     Atomic      Atomic             Coordinates (Angstroms)
 Number     Number       Type             X           Y           Z
 ---------------------------------------------------------------------
      1          6           0        4.093258    0.959008   -0.050493
      2          6           0        2.582541    1.144984   -0.195868
      3          6           0        2.174824    2.615213   -0.295802
      4          1           0        4.438425    1.498212    0.842291
      5          1           0        4.597117    1.422601   -0.909914
      6          1           0        2.081601    0.679970    0.662873
      7          1           0        2.240901    0.605117   -1.088304
      8          1           0        2.647981    3.088152   -1.162435
      9          1           0        2.487777    3.163431    0.598692
     10          1           0        1.090797    2.725083   -0.399109
     11          6           0        4.516421   -0.505383    0.050596
     12          6           0        6.027137   -0.691358    0.195971
     13          6           0        6.434854   -2.161588    0.295904
     14          1           0        4.012562   -0.968975    0.910016
     15          1           0        4.171253   -1.044586   -0.842189
     16          1           0        6.368778   -0.151491    1.088406
     17          1           0        6.528077   -0.226345   -0.662771
     18          1           0        6.121902   -2.709805   -0.598590
     19          1           0        5.961697   -2.634527    1.162537
     20          1           0        7.518882   -2.271458    0.399211
     21          6           0       -5.809828   -0.772346    0.159701
     22          6           0       -4.878292   -1.739466   -0.232014
     23          6           0       -3.520123   -1.420923   -0.323966
     24          6           0       -3.126620   -0.119661   -0.015483
     25          6           0       -4.030599    0.865991    0.377711
     26          6           0       -5.383759    0.525009    0.462779
     27          1           0       -6.862941   -1.028514    0.228457
     28          1           0       -5.206315   -2.747812   -0.467991
     29          1           0       -2.777665   -2.150147   -0.624642
     30          1           0       -3.673398    1.862706    0.606592
     31          1           0       -6.104970    1.278131    0.767259
     32          7           0       -1.691439    0.229445   -0.109185
     33          8           0       -1.370269    1.382997    0.167954
     34          8           0       -0.914890   -0.657089   -0.457992
 ---------------------------------------------------------------------

 SCF Done:  E(RHF) =  -669.536518867     A.U. after   15 cycles
 E2 =    -0.2091539797D+01 EUMP2 =    -0.67162805866449D+03

 The electronic state is 1-A.
 Alpha  occ. eigenvalues --  -20.61050 -20.61045 -15.86060 -11.31355 -11.27910
 Alpha  occ. eigenvalues --  -11.27907 -11.27642 -11.26910 -11.26900 -11.20702
 Alpha  occ. eigenvalues --  -11.20338 -11.20219 -11.19966 -11.19636 -11.19083
 Alpha  occ. eigenvalues --   -1.60090  -1.39649  -1.19516  -1.08926  -1.07122
 Alpha  occ. eigenvalues --   -1.04907  -1.02136  -0.95773  -0.94625  -0.86309
 Alpha  occ. eigenvalues --   -0.85666  -0.82607  -0.78269  -0.77663  -0.76816
 Alpha  occ. eigenvalues --   -0.72274  -0.71401  -0.70624  -0.65172  -0.64910
 Alpha  occ. eigenvalues --   -0.63777  -0.62254  -0.59559  -0.58062  -0.56181
 Alpha  occ. eigenvalues --   -0.55398  -0.53965  -0.53241  -0.52999  -0.51332
 Alpha  occ. eigenvalues --   -0.51066  -0.49033  -0.48929  -0.48648  -0.46537
 Alpha  occ. eigenvalues --   -0.45342  -0.45067  -0.44367  -0.44266  -0.42381
 Alpha  occ. eigenvalues --   -0.37494  -0.36506
 Alpha virt. eigenvalues --    0.04858   0.11149   0.16363   0.21284   0.24037
 Alpha virt. eigenvalues --    0.25727   0.27210   0.27892   0.28150   0.28787
 Alpha virt. eigenvalues --    0.29373   0.30864   0.32378   0.32666   0.32895

 Mulliken charges:
               1
     1  C   -0.298481
     2  C   -0.293252
     3  C   -0.484656
     4  H    0.144615
     5  H    0.144373
     6  H    0.157603
     7  H    0.156560
     8  H    0.143825
     9  H    0.145450
    10  H    0.183745
    11  C   -0.296562
    12  C   -0.298500
    13  C   -0.474799
    14  H    0.149047
    15  H    0.149558
    16  H    0.149858
    17  H    0.149916
    18  H    0.154148
    19  H    0.154002
    20  H    0.157015
    21  C   -0.170461
    22  C   -0.218613
    23  C   -0.170521
    24  C    0.157717
    25  C   -0.170736
    26  C   -0.218568
    27  H    0.226211
    28  H    0.224035
    29  H    0.276025
    30  H    0.275940
    31  H    0.224044
    32  N    0.490002
    33  O   -0.460582
    34  O   -0.457958
 Sum of Mulliken charges =  -0.00000

 Dipole moment (field-independent basis, Debye):
    X=             -5.5775    Y=             -1.3114    Z=              0.3206  Tot=              5.7385
 Quadrupole moment (field-independent basis, Debye-Ang):
   XX=            -65.5309   YY=            -91.7040   ZZ=            -94.2642
   XY=              3.5807   XZ=             -1.5050   YZ=              1.7774

 Normal termination of Gaussian 16 at Thu May  6 08:55:25 2021.
