 Gaussian 16, Revision A.03,
 Gaussian 16:  EM64L-G16RevA.03 25-Dec-2016

 -------------
 #p 6-31g* mp2
 -------------

 ------------------------------------------------------
 Input file generated by CHIRIPA (05-May-2021 14:53:11)
 ------------------------------------------------------
 Symbolic Z-matrix:
 Charge =  0 Multiplicity = 1

                         Standard orientation:
 ---------------------------------------------------------------------
 Center     Atomic      Atomic             Coordinates (Angstroms)
 Number     Number       Type             X           Y           Z
 ---------------------------------------------------------------------
      1          6           0       -4.096714    0.344184    0.230201
      2          6           0       -5.161155    0.930223   -0.697974
      3          6           0       -5.829486    2.177156   -0.118072
      4          1           0       -4.557157    0.099084    1.197084
      5          1           0       -3.334569    1.109562    0.432012
      6          1           0       -5.920336    0.163532   -0.899084
      7          1           0       -4.698165    1.173778   -1.662825
      8          1           0       -5.087979    2.961244    0.066246
      9          1           0       -6.317094    1.945258    0.834327
     10          1           0       -6.586958    2.579595   -0.797880
     11          6           0       -3.419577   -0.902807   -0.335685
     12          6           0       -2.355136   -1.488845    0.592490
     13          6           0       -1.686805   -2.735778    0.012588
     14          1           0       -4.181722   -1.668184   -0.537496
     15          1           0       -2.959134   -0.657707   -1.302568
     16          1           0       -2.818126   -1.732401    1.557341
     17          1           0       -1.595955   -0.722154    0.793600
     18          1           0       -1.199197   -2.503880   -0.939811
     19          1           0       -2.428312   -3.519867   -0.171730
     20          1           0       -0.929333   -3.138217    0.692396
     21          6           0        3.412039    2.695365    0.096612
     22          6           0        2.318002    2.176938    0.797209
     23          6           0        2.044732    0.806057    0.773603
     24          6           0        2.890034   -0.021270    0.035848
     25          6           0        3.987756    0.465048   -0.672524
     26          6           0        4.241962    1.839275   -0.634730
     27          1           0        3.616918    3.761599    0.120460
     28          1           0        1.671769    2.839420    1.366019
     29          1           0        1.204563    0.378058    1.306849
     30          1           0        4.613991   -0.220312   -1.230673
     31          1           0        5.092318    2.239099   -1.179780
     32          7           0        2.610827   -1.474331    0.003347
     33          8           0        3.370704   -2.182131   -0.654105
     34          8           0        1.637392   -1.877927    0.635941
 ---------------------------------------------------------------------

 SCF Done:  E(RHF) =  -669.535759592     A.U. after   15 cycles
 E2 =    -0.2091519350D+01 EUMP2 =    -0.67162727894289D+03

 The electronic state is 1-A.
 Alpha  occ. eigenvalues --  -20.60899 -20.60886 -15.85930 -11.31273 -11.27838
 Alpha  occ. eigenvalues --  -11.27834 -11.27577 -11.26851 -11.26841 -11.21463
 Alpha  occ. eigenvalues --  -11.21173 -11.21027 -11.20951 -11.20892 -11.19781
 Alpha  occ. eigenvalues --   -1.59958  -1.39514  -1.19443  -1.08843  -1.08055
 Alpha  occ. eigenvalues --   -1.04842  -1.03032  -0.95695  -0.95434  -0.86462
 Alpha  occ. eigenvalues --   -0.86240  -0.82516  -0.79140  -0.77848  -0.77565
 Alpha  occ. eigenvalues --   -0.72166  -0.71274  -0.70551  -0.65102  -0.64849
 Alpha  occ. eigenvalues --   -0.64694  -0.62191  -0.60438  -0.58867  -0.57031
 Alpha  occ. eigenvalues --   -0.55345  -0.54753  -0.53173  -0.52936  -0.52076
 Alpha  occ. eigenvalues --   -0.51872  -0.49431  -0.48916  -0.48891  -0.47422
 Alpha  occ. eigenvalues --   -0.46214  -0.45380  -0.45310  -0.44893  -0.43258
 Alpha  occ. eigenvalues --   -0.37422  -0.36444
 Alpha virt. eigenvalues --    0.04943   0.11193   0.16437   0.20791   0.23079
 Alpha virt. eigenvalues --    0.24289   0.26023   0.27315   0.27621   0.28496
 Alpha virt. eigenvalues --    0.28883   0.30316   0.31504   0.32024   0.32797

 Mulliken charges:
               1
     1  C   -0.296610
     2  C   -0.299198
     3  C   -0.475164
     4  H    0.149175
     5  H    0.143735
     6  H    0.152735
     7  H    0.151251
     8  H    0.152550
     9  H    0.155110
    10  H    0.159791
    11  C   -0.297807
    12  C   -0.299513
    13  C   -0.473084
    14  H    0.149632
    15  H    0.148436
    16  H    0.148788
    17  H    0.145492
    18  H    0.154155
    19  H    0.146577
    20  H    0.180940
    21  C   -0.170576
    22  C   -0.219071
    23  C   -0.173165
    24  C    0.157458
    25  C   -0.170564
    26  C   -0.218618
    27  H    0.225934
    28  H    0.223955
    29  H    0.278798
    30  H    0.275812
    31  H    0.223751
    32  N    0.491343
    33  O   -0.459375
    34  O   -0.462674
 Sum of Mulliken charges =  -0.00000

 Dipole moment (field-independent basis, Debye):
    X=              1.2093    Y=              4.9998    Z=              0.1253  Tot=              5.1455
 Quadrupole moment (field-independent basis, Debye-Ang):
   XX=            -86.5914   YY=            -95.7265   ZZ=            -93.5312
   XY=             15.3642   XZ=             -2.5748   YZ=              0.0375

 Normal termination of Gaussian 16 at Thu May  6 05:40:25 2021.
