 Gaussian 16, Revision A.03,
 Gaussian 16:  EM64L-G16RevA.03 25-Dec-2016

 -------------
 #p 6-31g* mp2
 -------------

 ------------------------------------------------------
 Input file generated by CHIRIPA (05-May-2021 14:51:14)
 ------------------------------------------------------
 Symbolic Z-matrix:
 Charge =  0 Multiplicity = 1

                         Standard orientation:
 ---------------------------------------------------------------------
 Center     Atomic      Atomic             Coordinates (Angstroms)
 Number     Number       Type             X           Y           Z
 ---------------------------------------------------------------------
      1          6           0        3.754993    0.536299   -0.296351
      2          6           0        4.954580    1.238996    0.340196
      3          6           0        5.326010    2.538642   -0.374474
      4          1           0        3.978896    0.325393   -1.351022
      5          1           0        2.893556    1.218415   -0.290045
      6          1           0        5.813120    0.555266    0.333944
      7          1           0        4.727869    1.448082    1.393524
      8          1           0        4.486964    3.241686   -0.356225
      9          1           0        5.578381    2.343798   -1.421826
     10          1           0        6.185992    3.024438    0.097005
     11          6           0        3.371558   -0.764483    0.406979
     12          6           0        2.171971   -1.467180   -0.229568
     13          6           0        1.800541   -2.766826    0.485102
     14          1           0        4.232995   -1.446599    0.400673
     15          1           0        3.147655   -0.553577    1.461650
     16          1           0        2.398682   -1.676266   -1.282897
     17          1           0        1.313431   -0.783450   -0.223316
     18          1           0        1.548170   -2.571982    1.532454
     19          1           0        2.639587   -3.469871    0.466853
     20          1           0        0.940559   -3.252622    0.013623
     21          6           0       -4.084108    0.613414    0.195371
     22          6           0       -3.758167    2.062768   -0.166735
     23          6           0       -4.809373    3.049840    0.341642
     24          1           0       -5.066861    0.350638   -0.219466
     25          1           0       -4.172335    0.526532    1.287188
     26          1           0       -3.669217    2.146603   -1.257457
     27          1           0       -2.775991    2.322064    0.248850
     28          1           0       -4.893435    2.995548    1.431865
     29          1           0       -5.791735    2.819090   -0.083000
     30          1           0       -4.556577    4.079941    0.071744
     31          6           0       -3.042443   -0.385229   -0.305999
     32          6           0       -3.368384   -1.834583    0.056108
     33          6           0       -2.317177   -2.821656   -0.452269
     34          1           0       -2.954216   -0.298347   -1.397816
     35          1           0       -2.059690   -0.122453    0.108837
     36          1           0       -4.350560   -2.093880   -0.359477
     37          1           0       -3.457334   -1.918418    1.146830
     38          1           0       -1.334816   -2.590906   -0.027628
     39          1           0       -2.233116   -2.767364   -1.542493
     40          1           0       -2.569975   -3.851757   -0.182373
 ---------------------------------------------------------------------

 SCF Done:  E(RHF) =  -470.733243451     A.U. after   11 cycles
 E2 =    -0.1582549588D+01 EUMP2 =    -0.47231579303882D+03

 The electronic state is 1-A.
 Alpha  occ. eigenvalues --  -11.21617 -11.21606 -11.21604 -11.21600 -11.21418
 Alpha  occ. eigenvalues --  -11.21408 -11.21359 -11.21348 -11.21083 -11.21072
 Alpha  occ. eigenvalues --  -11.21042 -11.21032  -1.08443  -1.08428  -1.03556
 Alpha  occ. eigenvalues --   -1.03509  -0.96027  -0.95939  -0.87061  -0.86941
 Alpha  occ. eigenvalues --   -0.79622  -0.79568  -0.78261  -0.78235  -0.65099
 Alpha  occ. eigenvalues --   -0.65037  -0.61015  -0.60873  -0.59397  -0.59325
 Alpha  occ. eigenvalues --   -0.57726  -0.57475  -0.55348  -0.55192  -0.52812
 Alpha  occ. eigenvalues --   -0.52648  -0.52479  -0.52226  -0.49976  -0.49844
 Alpha  occ. eigenvalues --   -0.47973  -0.47831  -0.46632  -0.46615  -0.45824
 Alpha  occ. eigenvalues --   -0.45774  -0.45736  -0.45666  -0.43807  -0.43749
 Alpha virt. eigenvalues --    0.21267   0.23122   0.23479   0.24877   0.25969
 Alpha virt. eigenvalues --    0.26830   0.26938   0.27189   0.28063   0.28972
 Alpha virt. eigenvalues --    0.30758   0.30956   0.31557   0.31780   0.31989

 Mulliken charges:
               1
     1  C   -0.298269
     2  C   -0.299655
     3  C   -0.475705
     4  H    0.149769
     5  H    0.149479
     6  H    0.151960
     7  H    0.151847
     8  H    0.155179
     9  H    0.155223
    10  H    0.160246
    11  C   -0.298209
    12  C   -0.301001
    13  C   -0.480879
    14  H    0.149730
    15  H    0.149399
    16  H    0.152420
    17  H    0.152348
    18  H    0.154251
    19  H    0.155495
    20  H    0.166101
    21  C   -0.298316
    22  C   -0.299599
    23  C   -0.475713
    24  H    0.149820
    25  H    0.149507
    26  H    0.152049
    27  H    0.151610
    28  H    0.155168
    29  H    0.155262
    30  H    0.160270
    31  C   -0.298775
    32  C   -0.299402
    33  C   -0.482969
    34  H    0.149743
    35  H    0.149465
    36  H    0.151920
    37  H    0.151889
    38  H    0.163237
    39  H    0.154959
    40  H    0.160146
 Sum of Mulliken charges =  -0.00000

 Dipole moment (field-independent basis, Debye):
    X=              0.0025    Y=             -0.0112    Z=             -0.0092  Tot=              0.0147
 Quadrupole moment (field-independent basis, Debye-Ang):
   XX=            -84.7417   YY=            -86.1106   ZZ=            -83.8925
   XY=             -0.1229   XZ=              0.3958   YZ=              0.5692

 Normal termination of Gaussian 16 at Thu May  6 04:00:33 2021.
