 Gaussian 16, Revision A.03,
 Gaussian 16:  EM64L-G16RevA.03 25-Dec-2016

 -------------
 #p 6-31g* mp2
 -------------

 ------------------------------------------------------
 Input file generated by CHIRIPA (05-May-2021 14:51:14)
 ------------------------------------------------------
 Symbolic Z-matrix:
 Charge =  0 Multiplicity = 1

                         Standard orientation:
 ---------------------------------------------------------------------
 Center     Atomic      Atomic             Coordinates (Angstroms)
 Number     Number       Type             X           Y           Z
 ---------------------------------------------------------------------
      1          6           0       -5.214584    0.428412   -0.109820
      2          6           0       -6.019574   -0.869612   -0.181303
      3          6           0       -7.519954   -0.626364   -0.347084
      4          1           0       -5.583798    1.035711    0.727923
      5          1           0       -5.393488    1.013377   -1.022621
      6          1           0       -5.838124   -1.452590    0.730744
      7          1           0       -5.648273   -1.473977   -1.018856
      8          1           0       -7.720122   -0.065760   -1.265919
      9          1           0       -7.911052   -0.044251    0.493622
     10          1           0       -8.076276   -1.567629   -0.395945
     11          6           0       -3.712967    0.201671    0.055894
     12          6           0       -2.907977    1.499695    0.127377
     13          6           0       -1.407597    1.256447    0.293158
     14          1           0       -3.534063   -0.383294    0.968694
     15          1           0       -3.343753   -0.405628   -0.781850
     16          1           0       -3.279278    2.104060    0.964929
     17          1           0       -3.089427    2.082673   -0.784670
     18          1           0       -1.016499    0.674334   -0.547549
     19          1           0       -1.207429    0.695843    1.211992
     20          1           0       -0.851275    2.197712    0.342019
     21          6           0        5.015590    0.212766    0.008210
     22          6           0        6.387576   -0.356973   -0.353782
     23          6           0        7.481120    0.711128   -0.387238
     24          1           0        4.746404    0.992559   -0.717330
     25          1           0        5.077992    0.705781    0.988228
     26          1           0        6.322269   -0.849970   -1.332201
     27          1           0        6.653443   -1.135633    0.372592
     28          1           0        7.575385    1.196675    0.589470
     29          1           0        7.242329    1.483962   -1.125010
     30          1           0        8.453590    0.282018   -0.648055
     31          6           0        3.911961   -0.842849    0.045717
     32          6           0        2.539975   -0.273111    0.407708
     33          6           0        1.446432   -1.341210    0.441165
     34          1           0        3.849559   -1.335864   -0.934302
     35          1           0        4.181147   -1.622642    0.771257
     36          1           0        2.274108    0.505550   -0.318666
     37          1           0        2.605282    0.219886    1.386128
     38          1           0        1.685222   -2.114045    1.178936
     39          1           0        1.352166   -1.826758   -0.535543
     40          1           0        0.473961   -0.912101    0.701981
 ---------------------------------------------------------------------

 SCF Done:  E(RHF) =  -470.732589075     A.U. after   11 cycles
 E2 =    -0.1582811993D+01 EUMP2 =    -0.47231540106754D+03

 The electronic state is 1-A.
 Alpha  occ. eigenvalues --  -11.21625 -11.21607 -11.21558 -11.21484 -11.21420
 Alpha  occ. eigenvalues --  -11.21360 -11.21336 -11.21273 -11.21105 -11.21075
 Alpha  occ. eigenvalues --  -11.21039 -11.20842  -1.08450  -1.08352  -1.03568
 Alpha  occ. eigenvalues --   -1.03428  -0.96052  -0.95850  -0.87090  -0.86851
 Alpha  occ. eigenvalues --   -0.79642  -0.79490  -0.78262  -0.78166  -0.65080
 Alpha  occ. eigenvalues --   -0.64984  -0.60968  -0.60824  -0.59420  -0.59289
 Alpha  occ. eigenvalues --   -0.57803  -0.57328  -0.55324  -0.55151  -0.52940
 Alpha  occ. eigenvalues --   -0.52682  -0.52404  -0.51982  -0.49960  -0.49824
 Alpha  occ. eigenvalues --   -0.48047  -0.47659  -0.46648  -0.46544  -0.45792
 Alpha  occ. eigenvalues --   -0.45729  -0.45701  -0.45636  -0.43804  -0.43655
 Alpha virt. eigenvalues --    0.22247   0.22989   0.23549   0.24863   0.26408
 Alpha virt. eigenvalues --    0.26654   0.26966   0.27456   0.27793   0.29138
 Alpha virt. eigenvalues --    0.30211   0.31358   0.31559   0.31874   0.32134

 Mulliken charges:
               1
     1  C   -0.298244
     2  C   -0.299671
     3  C   -0.475725
     4  H    0.149671
     5  H    0.149540
     6  H    0.152026
     7  H    0.152036
     8  H    0.155170
     9  H    0.155175
    10  H    0.160313
    11  C   -0.298484
    12  C   -0.299934
    13  C   -0.479176
    14  H    0.149457
    15  H    0.149902
    16  H    0.151971
    17  H    0.151966
    18  H    0.158590
    19  H    0.156447
    20  H    0.161050
    21  C   -0.298156
    22  C   -0.299569
    23  C   -0.475650
    24  H    0.149429
    25  H    0.149349
    26  H    0.151795
    27  H    0.151849
    28  H    0.155101
    29  H    0.155074
    30  H    0.160089
    31  C   -0.298056
    32  C   -0.299129
    33  C   -0.483453
    34  H    0.149145
    35  H    0.149415
    36  H    0.152330
    37  H    0.151267
    38  H    0.153445
    39  H    0.153171
    40  H    0.170471
 Sum of Mulliken charges =  -0.00000

 Dipole moment (field-independent basis, Debye):
    X=             -0.0651    Y=              0.0333    Z=              0.0007  Tot=              0.0732
 Quadrupole moment (field-independent basis, Debye-Ang):
   XX=            -86.9925   YY=            -85.2756   ZZ=            -82.7485
   XY=             -0.5407   XZ=              0.0052   YZ=             -0.1042

 Normal termination of Gaussian 16 at Wed May  5 16:54:21 2021.
