 Gaussian 16, Revision A.03,
 Gaussian 16:  EM64L-G16RevA.03 25-Dec-2016

 -------------
 #p 6-31g* mp2
 -------------

 ------------------------------------------------------
 Input file generated by CHIRIPA (05-May-2021 14:57:27)
 ------------------------------------------------------
 Symbolic Z-matrix:
 Charge =  0 Multiplicity = 1

                         Standard orientation:
 ---------------------------------------------------------------------
 Center     Atomic      Atomic             Coordinates (Angstroms)
 Number     Number       Type             X           Y           Z
 ---------------------------------------------------------------------
      1          6           0        1.954840    1.877577    0.958584
      2          6           0        1.723693    0.525903    1.234395
      3          6           0        2.636805   -0.449138    0.821999
      4          6           0        3.775688   -0.035260    0.132840
      5          6           0        4.034089    1.303581   -0.157025
      6          6           0        3.107268    2.261425    0.264977
      7          1           0        1.240188    2.628333    1.282674
      8          1           0        0.829563    0.224894    1.772883
      9          1           0        2.482657   -1.502497    1.022226
     10          1           0        4.934475    1.573002   -0.695668
     11          1           0        3.289378    3.310425    0.049385
     12          7           0        4.749615   -1.058390   -0.308830
     13          8           0        5.745313   -0.667895   -0.914417
     14          8           0        4.498839   -2.231441   -0.041061
     15          6           0       -1.146295    0.017721   -0.703366
     16          6           0       -1.983897    1.103225   -0.980179
     17          6           0       -3.353378    1.030683   -0.708504
     18          6           0       -3.853855   -0.147970   -0.157513
     19          6           0       -3.045074   -1.246502    0.129527
     20          6           0       -1.678619   -1.151616   -0.150371
     21          1           0       -0.083625    0.082751   -0.917604
     22          1           0       -1.573252    2.012606   -1.409645
     23          1           0       -4.024536    1.856028   -0.912882
     24          1           0       -3.483556   -2.139752    0.557612
     25          1           0       -1.030507   -1.996206    0.065646
     26          7           0       -5.302063   -0.236594    0.134450
     27          8           0       -5.718389   -1.286189    0.619896
     28          8           0       -5.993418    0.745216   -0.127685
 ---------------------------------------------------------------------

 SCF Done:  E(RHF) =  -868.336850339     A.U. after   16 cycles
 E2 =    -0.2601757933D+01 EUMP2 =    -0.87093860827126D+03

 The electronic state is 1-A.
 Alpha  occ. eigenvalues --  -20.61609 -20.61600 -20.61183 -20.61177 -15.86665
 Alpha  occ. eigenvalues --  -15.86243 -11.32216 -11.31687 -11.28791 -11.28726
 Alpha  occ. eigenvalues --  -11.28488 -11.28306 -11.28300 -11.27921 -11.27791
 Alpha  occ. eigenvalues --  -11.27781 -11.27300 -11.27287  -1.60680  -1.60259
 Alpha  occ. eigenvalues --   -1.40228  -1.39809  -1.20398  -1.19888  -1.09749
 Alpha  occ. eigenvalues --   -1.09250  -1.05814  -1.05308  -0.96545  -0.96069
 Alpha  occ. eigenvalues --   -0.87178  -0.86695  -0.83371  -0.82897  -0.78398
 Alpha  occ. eigenvalues --   -0.77944  -0.72873  -0.72455  -0.72012  -0.71587
 Alpha  occ. eigenvalues --   -0.71444  -0.70965  -0.66018  -0.65777  -0.65519
 Alpha  occ. eigenvalues --   -0.65307  -0.63125  -0.62645  -0.56253  -0.55924
 Alpha  occ. eigenvalues --   -0.54046  -0.53916  -0.53502  -0.53387  -0.49647
 Alpha  occ. eigenvalues --   -0.49623  -0.49222  -0.49206  -0.45593  -0.45197
 Alpha  occ. eigenvalues --   -0.38543  -0.37920  -0.37177  -0.36939
 Alpha virt. eigenvalues --    0.04095   0.04569   0.10208   0.10635   0.15501
 Alpha virt. eigenvalues --    0.16166   0.20051   0.21329   0.25438   0.26890
 Alpha virt. eigenvalues --    0.27851   0.28223   0.30146   0.30667   0.31575

 Mulliken charges:
               1
     1  C   -0.175674
     2  C   -0.227074
     3  C   -0.178388
     4  C    0.160305
     5  C   -0.170910
     6  C   -0.218538
     7  H    0.229718
     8  H    0.231046
     9  H    0.275567
    10  H    0.278829
    11  H    0.226921
    12  N    0.487960
    13  O   -0.457035
    14  O   -0.459222
    15  C   -0.175894
    16  C   -0.223669
    17  C   -0.170086
    18  C    0.157762
    19  C   -0.169753
    20  C   -0.226185
    21  H    0.235739
    22  H    0.222284
    23  H    0.276420
    24  H    0.277451
    25  H    0.223166
    26  N    0.488106
    27  O   -0.459083
    28  O   -0.459761
 Sum of Mulliken charges =  -0.00000

 Dipole moment (field-independent basis, Debye):
    X=              1.8255    Y=              3.9752    Z=              0.5317  Tot=              4.4065
 Quadrupole moment (field-independent basis, Debye-Ang):
   XX=           -168.4799   YY=            -98.3962   ZZ=           -104.0099
   XY=             13.7860   XZ=              7.5467   YZ=             -2.9104

 Normal termination of Gaussian 16 at Thu May  6 14:50:26 2021.
