 Gaussian 16, Revision A.03,
 Gaussian 16:  EM64L-G16RevA.03 25-Dec-2016

 -------------
 #p 6-31g* mp2
 -------------

 ------------------------------------------------------
 Input file generated by CHIRIPA (05-May-2021 14:51:12)
 ------------------------------------------------------
 Symbolic Z-matrix:
 Charge =  0 Multiplicity = 1

                         Standard orientation:
 ---------------------------------------------------------------------
 Center     Atomic      Atomic             Coordinates (Angstroms)
 Number     Number       Type             X           Y           Z
 ---------------------------------------------------------------------
      1          6           0        3.383863   -0.371146   -0.151318
      2          6           0        3.767886    1.015558   -0.668585
      3          6           0        4.961700    0.980676   -1.623250
      4          1           0        4.248925   -0.818318    0.357257
      5          1           0        3.152495   -1.022376   -1.005579
      6          1           0        3.997120    1.664373    0.186462
      7          1           0        2.901750    1.459559   -1.175821
      8          1           0        4.740109    0.355854   -2.494512
      9          1           0        5.841703    0.561832   -1.124488
     10          1           0        5.219157    1.982510   -1.980887
     11          6           0        2.192064   -0.352672    0.804194
     12          6           0        1.808041   -1.739375    1.321461
     13          6           0        0.614227   -1.704494    2.276126
     14          1           0        2.423431    0.298559    1.658455
     15          1           0        1.327001    0.094500    0.295619
     16          1           0        2.674176   -2.183377    1.828697
     17          1           0        1.578806   -2.388191    0.466414
     18          1           0       -0.265777   -1.285650    1.777364
     19          1           0        0.835817   -1.079672    3.147387
     20          1           0        0.356769   -2.706328    2.633762
     21          6           0       -2.499771   -0.270589   -0.643177
     22          6           0       -3.538196   -1.374468   -0.845939
     23          6           0       -2.946441   -2.633414   -1.480505
     24          1           0       -2.049237   -0.017231   -1.612596
     25          1           0       -1.686573   -0.653401   -0.011071
     26          1           0       -4.349876   -0.989252   -1.476336
     27          1           0       -3.986447   -1.625092    0.124047
     28          1           0       -2.150275   -3.044223   -0.851255
     29          1           0       -2.515769   -2.404771   -2.460731
     30          1           0       -3.706051   -3.409555   -1.616371
     31          6           0       -3.076155    0.994407   -0.009698
     32          6           0       -2.037731    2.098285    0.193064
     33          6           0       -2.629484    3.357232    0.827629
     34          1           0       -3.889353    1.377219   -0.641806
     35          1           0       -3.526690    0.741050    0.959721
     36          1           0       -1.589480    2.348909   -0.776923
     37          1           0       -1.226051    1.713070    0.823460
     38          1           0       -3.060158    3.128588    1.807856
     39          1           0       -3.425651    3.768041    0.198379
     40          1           0       -1.869875    4.133372    0.963496
 ---------------------------------------------------------------------

 SCF Done:  E(RHF) =  -470.733403431     A.U. after   11 cycles
 E2 =    -0.1583441402D+01 EUMP2 =    -0.47231684483265D+03

 The electronic state is 1-A.
 Alpha  occ. eigenvalues --  -11.21633 -11.21627 -11.21619 -11.21590 -11.21442
 Alpha  occ. eigenvalues --  -11.21400 -11.21380 -11.21341 -11.21123 -11.21099
 Alpha  occ. eigenvalues --  -11.21078 -11.21063  -1.08474  -1.08426  -1.03555
 Alpha  occ. eigenvalues --   -1.03542  -0.96015  -0.95984  -0.87033  -0.87000
 Alpha  occ. eigenvalues --   -0.79620  -0.79604  -0.78347  -0.78182  -0.65217
 Alpha  occ. eigenvalues --   -0.64963  -0.61002  -0.60892  -0.59376  -0.59358
 Alpha  occ. eigenvalues --   -0.57652  -0.57570  -0.55405  -0.55184  -0.52698
 Alpha  occ. eigenvalues --   -0.52687  -0.52476  -0.52377  -0.50050  -0.49849
 Alpha  occ. eigenvalues --   -0.47959  -0.47926  -0.46746  -0.46634  -0.46067
 Alpha  occ. eigenvalues --   -0.45780  -0.45737  -0.45296  -0.43811  -0.43792
 Alpha virt. eigenvalues --    0.19788   0.23255   0.23872   0.24143   0.25669
 Alpha virt. eigenvalues --    0.26622   0.27027   0.27898   0.28094   0.29681
 Alpha virt. eigenvalues --    0.30588   0.31591   0.31723   0.31926   0.32094

 Mulliken charges:
               1
     1  C   -0.298241
     2  C   -0.299728
     3  C   -0.475724
     4  H    0.149603
     5  H    0.149751
     6  H    0.151838
     7  H    0.152324
     8  H    0.155186
     9  H    0.155130
    10  H    0.160207
    11  C   -0.302190
    12  C   -0.299123
    13  C   -0.483228
    14  H    0.149260
    15  H    0.153555
    16  H    0.152251
    17  H    0.152108
    18  H    0.160494
    19  H    0.155575
    20  H    0.160549
    21  C   -0.308306
    22  C   -0.299078
    23  C   -0.476083
    24  H    0.149494
    25  H    0.157976
    26  H    0.152197
    27  H    0.152284
    28  H    0.155388
    29  H    0.154979
    30  H    0.160515
    31  C   -0.297710
    32  C   -0.302670
    33  C   -0.475703
    34  H    0.149799
    35  H    0.149888
    36  H    0.151548
    37  H    0.154794
    38  H    0.155405
    39  H    0.155189
    40  H    0.160498
 Sum of Mulliken charges =  -0.00000

 Dipole moment (field-independent basis, Debye):
    X=             -0.0089    Y=              0.0043    Z=              0.0008  Tot=              0.0100
 Quadrupole moment (field-independent basis, Debye-Ang):
   XX=            -85.1010   YY=            -85.6054   ZZ=            -83.9893
   XY=              0.1541   XZ=              1.4181   YZ=             -0.5793

 Normal termination of Gaussian 16 at Wed May  5 19:54:33 2021.
