 Gaussian 16, Revision A.03,
 Gaussian 16:  EM64L-G16RevA.03 25-Dec-2016

 -------------
 #p 6-31g* mp2
 -------------

 ------------------------------------------------------
 Input file generated by CHIRIPA (05-May-2021 14:51:13)
 ------------------------------------------------------
 Symbolic Z-matrix:
 Charge =  0 Multiplicity = 1

                         Standard orientation:
 ---------------------------------------------------------------------
 Center     Atomic      Atomic             Coordinates (Angstroms)
 Number     Number       Type             X           Y           Z
 ---------------------------------------------------------------------
      1          6           0       -3.460642   -0.351536    0.384287
      2          6           0       -4.670981   -0.044024   -0.498040
      3          6           0       -5.761178    0.730659    0.242994
      4          1           0       -3.790199   -0.926794    1.260309
      5          1           0       -3.045934    0.591159    0.767350
      6          1           0       -5.082446   -0.986935   -0.880441
      7          1           0       -4.338474    0.530404   -1.372161
      8          1           0       -5.372728    1.685899    0.610722
      9          1           0       -6.120926    0.159939    1.105235
     10          1           0       -6.616989    0.939832   -0.406385
     11          6           0       -2.362231   -1.125594   -0.342389
     12          6           0       -1.151892   -1.433106    0.539937
     13          6           0       -0.061695   -2.207789   -0.201096
     14          1           0       -2.776939   -2.068289   -0.725452
     15          1           0       -2.032673   -0.550336   -1.218412
     16          1           0       -1.484399   -2.007534    1.414059
     17          1           0       -0.740427   -0.490195    0.922339
     18          1           0        0.298054   -1.637069   -1.063338
     19          1           0       -0.450145   -3.163029   -0.568824
     20          1           0        0.794116   -2.416962    0.448283
     21          6           0        3.437006    0.294137    0.310249
     22          6           0        3.704736   -1.002015   -0.455452
     23          6           0        4.758488   -1.880499    0.219578
     24          1           0        4.376331    0.855418    0.408118
     25          1           0        3.111888    0.048500    1.330717
     26          1           0        4.027923   -0.754024   -1.474602
     27          1           0        2.764627   -1.560184   -0.551676
     28          1           0        4.439937   -2.156740    1.229932
     29          1           0        5.710411   -1.346000    0.301763
     30          1           0        4.934302   -2.801785   -0.344497
     31          6           0        2.385867    1.182993   -0.352147
     32          6           0        2.118137    2.479144    0.413555
     33          6           0        1.064385    3.357629   -0.261475
     34          1           0        2.710984    1.428631   -1.372615
     35          1           0        1.446542    0.621712   -0.450016
     36          1           0        3.058245    3.037315    0.509779
     37          1           0        1.794950    2.231155    1.432704
     38          1           0        0.112462    2.823130   -0.343661
     39          1           0        1.382935    3.633871   -1.271830
     40          1           0        0.888570    4.278916    0.302600
 ---------------------------------------------------------------------

 SCF Done:  E(RHF) =  -470.732265828     A.U. after   11 cycles
 E2 =    -0.1584307451D+01 EUMP2 =    -0.47231657327919D+03

 The electronic state is 1-A.
 Alpha  occ. eigenvalues --  -11.21714 -11.21639 -11.21609 -11.21477 -11.21421
 Alpha  occ. eigenvalues --  -11.21413 -11.21362 -11.21298 -11.21168 -11.21110
 Alpha  occ. eigenvalues --  -11.21096 -11.21001  -1.08515  -1.08381  -1.03616
 Alpha  occ. eigenvalues --   -1.03486  -0.96068  -0.95948  -0.87102  -0.86954
 Alpha  occ. eigenvalues --   -0.79730  -0.79510  -0.78319  -0.78197  -0.65316
 Alpha  occ. eigenvalues --   -0.64899  -0.61009  -0.60937  -0.59444  -0.59279
 Alpha  occ. eigenvalues --   -0.57668  -0.57554  -0.55430  -0.55177  -0.52821
 Alpha  occ. eigenvalues --   -0.52625  -0.52482  -0.52359  -0.50056  -0.49875
 Alpha  occ. eigenvalues --   -0.48006  -0.47861  -0.46811  -0.46507  -0.45934
 Alpha  occ. eigenvalues --   -0.45772  -0.45711  -0.45478  -0.43806  -0.43733
 Alpha virt. eigenvalues --    0.19731   0.22829   0.23926   0.24354   0.26168
 Alpha virt. eigenvalues --    0.26649   0.27121   0.27755   0.28120   0.29858
 Alpha virt. eigenvalues --    0.30544   0.31439   0.31724   0.31891   0.32396

 Mulliken charges:
               1
     1  C   -0.298447
     2  C   -0.299741
     3  C   -0.475782
     4  H    0.149846
     5  H    0.149492
     6  H    0.152029
     7  H    0.152209
     8  H    0.155392
     9  H    0.155191
    10  H    0.160448
    11  C   -0.298954
    12  C   -0.302136
    13  C   -0.481442
    14  H    0.150050
    15  H    0.149986
    16  H    0.152708
    17  H    0.152870
    18  H    0.158471
    19  H    0.156405
    20  H    0.163081
    21  C   -0.297217
    22  C   -0.309506
    23  C   -0.475429
    24  H    0.149409
    25  H    0.148568
    26  H    0.150671
    27  H    0.163880
    28  H    0.154097
    29  H    0.154828
    30  H    0.160004
    31  C   -0.305400
    32  C   -0.299447
    33  C   -0.475662
    34  H    0.149189
    35  H    0.156746
    36  H    0.152231
    37  H    0.151686
    38  H    0.153867
    39  H    0.155381
    40  H    0.160426
 Sum of Mulliken charges =  -0.00000

 Dipole moment (field-independent basis, Debye):
    X=             -0.0669    Y=             -0.0390    Z=             -0.0143  Tot=              0.0788
 Quadrupole moment (field-independent basis, Debye-Ang):
   XX=            -85.6046   YY=            -84.6034   ZZ=            -84.7262
   XY=              1.8115   XZ=             -0.4611   YZ=             -0.4421

 Normal termination of Gaussian 16 at Wed May  5 23:12:56 2021.
