 Gaussian 16, Revision A.03,
 Gaussian 16:  EM64L-G16RevA.03 25-Dec-2016

 -------------
 #p 6-31g* mp2
 -------------

 ------------------------------------------------------
 Input file generated by CHIRIPA (05-May-2021 14:51:09)
 ------------------------------------------------------
 Symbolic Z-matrix:
 Charge =  0 Multiplicity = 1

                         Standard orientation:
 ---------------------------------------------------------------------
 Center     Atomic      Atomic             Coordinates (Angstroms)
 Number     Number       Type             X           Y           Z
 ---------------------------------------------------------------------
      1          6           0       -3.847756    0.023222   -0.096830
      2          6           0       -5.194109   -0.608055   -0.452932
      3          6           0       -6.202019    0.410529   -0.986220
      4          1           0       -4.006098    0.811204    0.652141
      5          1           0       -3.435139    0.516963   -0.987539
      6          1           0       -5.603413   -1.101644    0.437830
      7          1           0       -5.032520   -1.394755   -1.201001
      8          1           0       -5.818373    0.895390   -1.889728
      9          1           0       -6.392510    1.190167   -0.241586
     10          1           0       -7.157404   -0.062191   -1.234484
     11          6           0       -2.829593   -0.982428    0.437716
     12          6           0       -1.483240   -0.351151    0.793817
     13          6           0       -0.475329   -1.369735    1.327106
     14          1           0       -3.242210   -1.476169    1.328425
     15          1           0       -2.671251   -1.770410   -0.311255
     16          1           0       -1.644829    0.435549    1.541886
     17          1           0       -1.073935    0.142438   -0.096944
     18          1           0       -0.284838   -2.149373    0.582472
     19          1           0       -0.858976   -1.854596    2.230614
     20          1           0        0.480056   -0.897016    1.575370
     21          6           0        3.127558    1.187140   -0.366029
     22          6           0        2.062065    1.779035    0.557209
     23          6           0        1.650047    3.194902    0.153036
     24          1           0        4.009780    1.841836   -0.364371
     25          1           0        2.746314    1.178983   -1.396553
     26          1           0        2.444677    1.784795    1.585893
     27          1           0        1.182350    1.122753    0.553502
     28          1           0        1.243526    3.202448   -0.863470
     29          1           0        2.513024    3.868251    0.174787
     30          1           0        0.887560    3.598764    0.826362
     31          6           0        3.549790   -0.227934    0.025143
     32          6           0        4.615285   -0.819829   -0.898094
     33          6           0        5.027301   -2.235696   -0.493922
     34          1           0        3.931035   -0.219777    1.055668
     35          1           0        2.667569   -0.882630    0.023485
     36          1           0        5.494999   -0.163548   -0.894387
     37          1           0        4.232672   -0.825589   -1.926778
     38          1           0        4.164324   -2.909044   -0.515674
     39          1           0        5.433823   -2.243241    0.522584
     40          1           0        5.789789   -2.639559   -1.167247
 ---------------------------------------------------------------------

 SCF Done:  E(RHF) =  -470.732590725     A.U. after   11 cycles
 E2 =    -0.1583849710D+01 EUMP2 =    -0.47231644043489D+03

 The electronic state is 1-A.
 Alpha  occ. eigenvalues --  -11.21657 -11.21623 -11.21581 -11.21515 -11.21441
 Alpha  occ. eigenvalues --  -11.21379 -11.21370 -11.21310 -11.21087 -11.21067
 Alpha  occ. eigenvalues --  -11.21049 -11.21037  -1.08480  -1.08392  -1.03593
 Alpha  occ. eigenvalues --   -1.03476  -0.96016  -0.95949  -0.87030  -0.86965
 Alpha  occ. eigenvalues --   -0.79667  -0.79541  -0.78311  -0.78199  -0.65165
 Alpha  occ. eigenvalues --   -0.64997  -0.61039  -0.60868  -0.59503  -0.59201
 Alpha  occ. eigenvalues --   -0.57650  -0.57535  -0.55305  -0.55231  -0.52790
 Alpha  occ. eigenvalues --   -0.52598  -0.52452  -0.52350  -0.49979  -0.49865
 Alpha  occ. eigenvalues --   -0.47954  -0.47876  -0.46761  -0.46501  -0.45856
 Alpha  occ. eigenvalues --   -0.45760  -0.45729  -0.45554  -0.43800  -0.43737
 Alpha virt. eigenvalues --    0.21251   0.23170   0.23770   0.24358   0.26313
 Alpha virt. eigenvalues --    0.26535   0.26874   0.27345   0.28076   0.29716
 Alpha virt. eigenvalues --    0.30623   0.30991   0.31590   0.31918   0.31969

 Mulliken charges:
               1
     1  C   -0.298369
     2  C   -0.299696
     3  C   -0.475718
     4  H    0.149802
     5  H    0.149517
     6  H    0.152011
     7  H    0.151927
     8  H    0.155207
     9  H    0.155259
    10  H    0.160329
    11  C   -0.298072
    12  C   -0.301650
    13  C   -0.483063
    14  H    0.149854
    15  H    0.149636
    16  H    0.152784
    17  H    0.151902
    18  H    0.154331
    19  H    0.155823
    20  H    0.167757
    21  C   -0.297296
    22  C   -0.311874
    23  C   -0.474673
    24  H    0.149458
    25  H    0.148696
    26  H    0.150840
    27  H    0.166009
    28  H    0.154549
    29  H    0.154913
    30  H    0.160182
    31  C   -0.302783
    32  C   -0.299461
    33  C   -0.475679
    34  H    0.149027
    35  H    0.154348
    36  H    0.151921
    37  H    0.151651
    38  H    0.155303
    39  H    0.155204
    40  H    0.160095
 Sum of Mulliken charges =  -0.00000

 Dipole moment (field-independent basis, Debye):
    X=             -0.0335    Y=             -0.0131    Z=              0.0160  Tot=              0.0394
 Quadrupole moment (field-independent basis, Debye-Ang):
   XX=            -85.0975   YY=            -86.1340   ZZ=            -83.6774
   XY=              1.0867   XZ=             -0.2783   YZ=              0.8182

 Normal termination of Gaussian 16 at Wed May  5 15:07:51 2021.
