 Gaussian 16, Revision A.03,
 Gaussian 16:  EM64L-G16RevA.03 25-Dec-2016

 -------------
 #p 6-31g* mp2
 -------------

 ------------------------------------------------------
 Input file generated by CHIRIPA (05-May-2021 14:53:15)
 ------------------------------------------------------
 Symbolic Z-matrix:
 Charge =  0 Multiplicity = 1

                         Standard orientation:
 ---------------------------------------------------------------------
 Center     Atomic      Atomic             Coordinates (Angstroms)
 Number     Number       Type             X           Y           Z
 ---------------------------------------------------------------------
      1          6           0        3.226851   -0.543098    0.028116
      2          6           0        2.863627   -1.937862    0.538692
      3          6           0        1.358879   -2.206786    0.503933
      4          1           0        2.704285    0.209785    0.633951
      5          1           0        2.856654   -0.428739   -1.000121
      6          1           0        3.235611   -2.050050    1.565170
      7          1           0        3.387268   -2.687506   -0.068307
      8          1           0        0.975919   -2.122124   -0.518210
      9          1           0        0.823400   -1.481046    1.124549
     10          1           0        1.121602   -3.209395    0.873166
     11          6           0        4.727646   -0.259327    0.056714
     12          6           0        5.090870    1.135436   -0.453862
     13          6           0        6.595617    1.404360   -0.419103
     14          1           0        5.097843   -0.373687    1.084951
     15          1           0        5.250212   -1.012211   -0.549121
     16          1           0        4.567228    1.885081    0.153137
     17          1           0        4.718885    1.247624   -1.480340
     18          1           0        7.131097    0.678620   -1.039719
     19          1           0        6.978578    1.319699    0.603040
     20          1           0        6.832895    2.406970   -0.788336
     21          6           0       -2.567855    2.746608    0.360227
     22          6           0       -3.885975    2.354175    0.105125
     23          6           0       -4.196411    1.008797   -0.114277
     24          6           0       -3.159369    0.078218   -0.071166
     25          6           0       -1.836298    0.437955    0.180549
     26          6           0       -1.549020    1.788934    0.397060
     27          1           0       -2.335696    3.793905    0.529541
     28          1           0       -4.679246    3.095736    0.075928
     29          1           0       -5.208211    0.677412   -0.313930
     30          1           0       -1.066917   -0.324244    0.203403
     31          1           0       -0.524444    2.090812    0.594948
     32          7           0       -3.475756   -1.349036   -0.301907
     33          8           0       -2.544061   -2.149481   -0.258647
     34          8           0       -4.649444   -1.640250   -0.521653
 ---------------------------------------------------------------------

 SCF Done:  E(RHF) =  -669.535546935     A.U. after   15 cycles
 E2 =    -0.2091513137D+01 EUMP2 =    -0.67162706007202D+03

 The electronic state is 1-A.
 Alpha  occ. eigenvalues --  -20.60699 -20.60692 -15.85747 -11.31097 -11.27687
 Alpha  occ. eigenvalues --  -11.27610 -11.27435 -11.26704 -11.26682 -11.21928
 Alpha  occ. eigenvalues --  -11.21781 -11.21724 -11.21654 -11.21334 -11.21141
 Alpha  occ. eigenvalues --   -1.59772  -1.39325  -1.19279  -1.08714  -1.08681
 Alpha  occ. eigenvalues --   -1.04682  -1.03760  -0.96206  -0.95512  -0.87219
 Alpha  occ. eigenvalues --   -0.86079  -0.82345  -0.79830  -0.78556  -0.77380
 Alpha  occ. eigenvalues --   -0.71965  -0.71095  -0.70397  -0.65344  -0.64932
 Alpha  occ. eigenvalues --   -0.64696  -0.62060  -0.61145  -0.59560  -0.57821
 Alpha  occ. eigenvalues --   -0.55508  -0.55188  -0.53017  -0.52960  -0.52837
 Alpha  occ. eigenvalues --   -0.52444  -0.50150  -0.48729  -0.48720  -0.48120
 Alpha  occ. eigenvalues --   -0.46863  -0.46086  -0.46003  -0.44732  -0.44008
 Alpha  occ. eigenvalues --   -0.37271  -0.36286
 Alpha virt. eigenvalues --    0.05128   0.11349   0.16624   0.20503   0.22712
 Alpha virt. eigenvalues --    0.23945   0.25676   0.26331   0.27035   0.28175
 Alpha virt. eigenvalues --    0.29588   0.30747   0.31352   0.31615   0.31983

 Mulliken charges:
               1
     1  C   -0.297967
     2  C   -0.300750
     3  C   -0.478133
     4  H    0.140894
     5  H    0.149940
     6  H    0.152337
     7  H    0.154959
     8  H    0.162211
     9  H    0.145284
    10  H    0.170871
    11  C   -0.298097
    12  C   -0.299490
    13  C   -0.475814
    14  H    0.150376
    15  H    0.152019
    16  H    0.148682
    17  H    0.152126
    18  H    0.156601
    19  H    0.155662
    20  H    0.160212
    21  C   -0.170448
    22  C   -0.219200
    23  C   -0.170084
    24  C    0.156625
    25  C   -0.180101
    26  C   -0.222840
    27  H    0.225232
    28  H    0.223073
    29  H    0.275288
    30  H    0.291371
    31  H    0.223624
    32  N    0.487067
    33  O   -0.460699
    34  O   -0.460828
 Sum of Mulliken charges =  -0.00000

 Dipole moment (field-independent basis, Debye):
    X=              1.2144    Y=              4.8526    Z=              0.7767  Tot=              5.0621
 Quadrupole moment (field-independent basis, Debye-Ang):
   XX=            -98.1517   YY=            -93.7931   ZZ=            -94.8303
   XY=            -17.9211   XZ=             -2.1278   YZ=             -0.0894

 Normal termination of Gaussian 16 at Thu May  6 07:28:53 2021.
