 Gaussian 16, Revision A.03,
 Gaussian 16:  EM64L-G16RevA.03 25-Dec-2016

 -------------
 #p 6-31g* mp2
 -------------

 ------------------------------------------------------
 Input file generated by CHIRIPA (05-May-2021 14:57:24)
 ------------------------------------------------------
 Symbolic Z-matrix:
 Charge =  0 Multiplicity = 1

                         Standard orientation:
 ---------------------------------------------------------------------
 Center     Atomic      Atomic             Coordinates (Angstroms)
 Number     Number       Type             X           Y           Z
 ---------------------------------------------------------------------
      1          6           0        3.828647    1.632388    0.558057
      2          6           0        3.483968    0.788970    1.619359
      3          6           0        2.779775   -0.395801    1.384887
      4          6           0        2.434711   -0.707646    0.070744
      5          6           0        2.763694    0.112048   -1.007757
      6          6           0        3.468045    1.291835   -0.749809
      7          1           0        4.375743    2.550811    0.749319
      8          1           0        3.762702    1.050908    2.636090
      9          1           0        2.500204   -1.066946    2.187896
     10          1           0        2.471987   -0.175824   -2.010481
     11          1           0        3.734392    1.944938   -1.575982
     12          7           0        1.689129   -1.959272   -0.189908
     13          8           0        1.396822   -2.211416   -1.356791
     14          8           0        1.411167   -2.664452    0.777612
     15          6           0       -0.850929    2.240928   -0.767259
     16          6           0       -0.762783    0.944582   -1.285178
     17          6           0       -1.702855   -0.027349   -0.929980
     18          6           0       -2.722586    0.333188   -0.050519
     19          6           0       -2.837266    1.616224    0.482358
     20          6           0       -1.886064    2.572028    0.113303
     21          1           0       -0.116336    2.989683   -1.048568
     22          1           0        0.040043    0.684611   -1.969232
     23          1           0       -1.658315   -1.038476   -1.316056
     24          1           0       -3.648867    1.845501    1.162177
     25          1           0       -1.957002    3.577996    0.517085
     26          7           0       -3.723689   -0.687215    0.332848
     27          8           0       -4.612529   -0.344361    1.109412
     28          8           0       -3.600557   -1.810540   -0.150491
 ---------------------------------------------------------------------

 SCF Done:  E(RHF) =  -868.337018922     A.U. after   16 cycles
 E2 =    -0.2602815906D+01 EUMP2 =    -0.87093983482829D+03

 The electronic state is 1-A.
 Alpha  occ. eigenvalues --  -20.61512 -20.61443 -20.60298 -20.60254 -15.86507
 Alpha  occ. eigenvalues --  -15.85335 -11.31920 -11.30808 -11.28588 -11.28437
 Alpha  occ. eigenvalues --  -11.28242 -11.27586 -11.27463 -11.27462 -11.27279
 Alpha  occ. eigenvalues --  -11.27267 -11.26530 -11.26424  -1.60532  -1.59354
 Alpha  occ. eigenvalues --   -1.40092  -1.38901  -1.20108  -1.19022  -1.09483
 Alpha  occ. eigenvalues --   -1.08417  -1.05536  -1.04434  -0.96315  -0.95216
 Alpha  occ. eigenvalues --   -0.86935  -0.85835  -0.83151  -0.82042  -0.78207
 Alpha  occ. eigenvalues --   -0.77048  -0.72722  -0.71861  -0.71551  -0.71230
 Alpha  occ. eigenvalues --   -0.70679  -0.70136  -0.65764  -0.65554  -0.64672
 Alpha  occ. eigenvalues --   -0.64473  -0.62885  -0.61729  -0.56012  -0.54992
 Alpha  occ. eigenvalues --   -0.53922  -0.53627  -0.52737  -0.52468  -0.49499
 Alpha  occ. eigenvalues --   -0.49466  -0.48332  -0.48291  -0.45478  -0.44281
 Alpha  occ. eigenvalues --   -0.38127  -0.37315  -0.36872  -0.35952
 Alpha virt. eigenvalues --    0.04277   0.05475   0.10305   0.11734   0.15789
 Alpha virt. eigenvalues --    0.16919   0.20083   0.21963   0.25594   0.27045
 Alpha virt. eigenvalues --    0.28498   0.28724   0.30049   0.31015   0.32526

 Mulliken charges:
               1
     1  C   -0.171138
     2  C   -0.217683
     3  C   -0.168784
     4  C    0.165589
     5  C   -0.178984
     6  C   -0.221878
     7  H    0.227077
     8  H    0.226503
     9  H    0.279527
    10  H    0.271639
    11  H    0.222686
    12  N    0.488273
    13  O   -0.467431
    14  O   -0.450693
    15  C   -0.170139
    16  C   -0.221876
    17  C   -0.176347
    18  C    0.159195
    19  C   -0.171340
    20  C   -0.219612
    21  H    0.219162
    22  H    0.221548
    23  H    0.290281
    24  H    0.274407
    25  H    0.220106
    26  N    0.487806
    27  O   -0.463724
    28  O   -0.454172
 Sum of Mulliken charges =  -0.00000

 Dipole moment (field-independent basis, Debye):
    X=              6.2679    Y=              7.6985    Z=             -0.2225  Tot=              9.9299
 Quadrupole moment (field-independent basis, Debye-Ang):
   XX=           -111.3339   YY=           -107.2431   ZZ=            -98.6372
   XY=             -1.1071   XZ=              5.1734   YZ=              0.1009

 Normal termination of Gaussian 16 at Thu May  6 18:02:13 2021.
