 Gaussian 16, Revision A.03,
 Gaussian 16:  EM64L-G16RevA.03 25-Dec-2016

 -------------
 #p 6-31g* mp2
 -------------

 ------------------------------------------------------
 Input file generated by CHIRIPA (05-May-2021 14:51:08)
 ------------------------------------------------------
 Symbolic Z-matrix:
 Charge =  0 Multiplicity = 1

                         Standard orientation:
 ---------------------------------------------------------------------
 Center     Atomic      Atomic             Coordinates (Angstroms)
 Number     Number       Type             X           Y           Z
 ---------------------------------------------------------------------
      1          6           0        3.441031    0.843749   -0.342460
      2          6           0        3.102740    2.024139    0.568706
      3          6           0        2.295522    3.109196   -0.144628
      4          1           0        4.004008    1.209580   -1.212041
      5          1           0        2.509032    0.411863   -0.732649
      6          1           0        4.035043    2.452806    0.958156
      7          1           0        2.540668    1.655429    1.436314
      8          1           0        1.350301    2.702842   -0.518839
      9          1           0        2.853166    3.504749   -0.999714
     10          1           0        2.064665    3.943468    0.525114
     11          6           0        4.247806   -0.249199    0.356330
     12          6           0        4.586098   -1.429589   -0.554836
     13          6           0        5.393315   -2.514645    0.158498
     14          1           0        5.179805    0.182687    0.746518
     15          1           0        3.684829   -0.615029    1.225910
     16          1           0        5.148169   -1.060879   -1.422445
     17          1           0        3.653795   -1.858256   -0.944287
     18          1           0        4.835671   -2.910199    1.013583
     19          1           0        6.338537   -2.108292    0.532709
     20          1           0        5.624172   -3.348917   -0.511245
     21          6           0       -4.501742    0.007277   -0.249023
     22          6           0       -5.736766   -0.633319    0.385280
     23          6           0       -7.044092   -0.013344   -0.109009
     24          1           0       -4.503224    1.084383   -0.032725
     25          1           0       -4.565820   -0.092248   -1.341444
     26          1           0       -5.669704   -0.533838    1.476252
     27          1           0       -5.732242   -1.709058    0.167609
     28          1           0       -7.137613   -0.125533   -1.194029
     29          1           0       -7.074719    1.056363    0.122050
     30          1           0       -7.914122   -0.486174    0.357190
     31          6           0       -3.187095   -0.601827    0.235154
     32          6           0       -1.952072    0.038768   -0.399149
     33          6           0       -0.644745   -0.581206    0.095140
     34          1           0       -3.123018   -0.502302    1.327575
     35          1           0       -3.185613   -1.678933    0.018857
     36          1           0       -1.956596    1.114508   -0.181479
     37          1           0       -2.019133   -0.060712   -1.490122
     38          1           0       -0.614118   -1.650914   -0.135919
     39          1           0       -0.551225   -0.469017    1.180160
     40          1           0        0.225285   -0.108376   -0.371060
 ---------------------------------------------------------------------

 SCF Done:  E(RHF) =  -470.733315864     A.U. after   11 cycles
 E2 =    -0.1582809208D+01 EUMP2 =    -0.47231612507201D+03

 The electronic state is 1-A.
 Alpha  occ. eigenvalues --  -11.21663 -11.21623 -11.21574 -11.21563 -11.21441
 Alpha  occ. eigenvalues --  -11.21380 -11.21367 -11.21307 -11.21150 -11.21086
 Alpha  occ. eigenvalues --  -11.21062 -11.21039  -1.08470  -1.08398  -1.03578
 Alpha  occ. eigenvalues --   -1.03498  -0.96029  -0.95950  -0.87053  -0.86962
 Alpha  occ. eigenvalues --   -0.79641  -0.79559  -0.78279  -0.78216  -0.65103
 Alpha  occ. eigenvalues --   -0.65049  -0.60994  -0.60899  -0.59421  -0.59285
 Alpha  occ. eigenvalues --   -0.57639  -0.57559  -0.55316  -0.55237  -0.52758
 Alpha  occ. eigenvalues --   -0.52645  -0.52462  -0.52359  -0.49966  -0.49890
 Alpha  occ. eigenvalues --   -0.47987  -0.47861  -0.46671  -0.46584  -0.45825
 Alpha  occ. eigenvalues --   -0.45755  -0.45746  -0.45672  -0.43780  -0.43745
 Alpha virt. eigenvalues --    0.20469   0.23026   0.23752   0.25099   0.26069
 Alpha virt. eigenvalues --    0.26563   0.26935   0.27482   0.28018   0.28894
 Alpha virt. eigenvalues --    0.30687   0.31291   0.31727   0.31911   0.32041

 Mulliken charges:
               1
     1  C   -0.304706
     2  C   -0.299549
     3  C   -0.477056
     4  H    0.149615
     5  H    0.155056
     6  H    0.151923
     7  H    0.152612
     8  H    0.155843
     9  H    0.155177
    10  H    0.160162
    11  C   -0.297982
    12  C   -0.299805
    13  C   -0.475722
    14  H    0.149319
    15  H    0.150292
    16  H    0.151693
    17  H    0.152318
    18  H    0.155331
    19  H    0.155032
    20  H    0.160088
    21  C   -0.298303
    22  C   -0.299675
    23  C   -0.475733
    24  H    0.149828
    25  H    0.149628
    26  H    0.151967
    27  H    0.151963
    28  H    0.155234
    29  H    0.155257
    30  H    0.160322
    31  C   -0.298645
    32  C   -0.299275
    33  C   -0.484091
    34  H    0.149623
    35  H    0.149752
    36  H    0.152371
    37  H    0.152197
    38  H    0.155412
    39  H    0.155351
    40  H    0.167175
 Sum of Mulliken charges =  -0.00000

 Dipole moment (field-independent basis, Debye):
    X=             -0.0225    Y=             -0.0069    Z=              0.0033  Tot=              0.0237
 Quadrupole moment (field-independent basis, Debye-Ang):
   XX=            -85.4430   YY=            -85.0013   ZZ=            -84.3339
   XY=              1.2827   XZ=             -0.6821   YZ=              0.8258

 Normal termination of Gaussian 16 at Wed May  5 22:54:57 2021.
