 Gaussian 16, Revision A.03,
 Gaussian 16:  EM64L-G16RevA.03 25-Dec-2016

 -------------
 #p 6-31g* mp2
 -------------

 ------------------------------------------------------
 Input file generated by CHIRIPA (05-May-2021 14:57:24)
 ------------------------------------------------------
 Symbolic Z-matrix:
 Charge =  0 Multiplicity = 1

                         Standard orientation:
 ---------------------------------------------------------------------
 Center     Atomic      Atomic             Coordinates (Angstroms)
 Number     Number       Type             X           Y           Z
 ---------------------------------------------------------------------
      1          6           0       -5.394661    1.428498    0.665210
      2          6           0       -5.055978    0.408921    1.560911
      3          6           0       -4.027392   -0.488572    1.259141
      4          6           0       -3.355351   -0.336633    0.047297
      5          6           0       -3.669430    0.668847   -0.865750
      6          6           0       -4.701528    1.554983   -0.543131
      7          1           0       -6.195055    2.121281    0.907731
      8          1           0       -5.592559    0.308294    2.500059
      9          1           0       -3.744584   -1.287026    1.934350
     10          1           0       -3.116467    0.743897   -1.794199
     11          1           0       -4.962393    2.345842   -1.240653
     12          7           0       -2.264574   -1.280757   -0.283209
     13          8           0       -1.687762   -1.125573   -1.357380
     14          8           0       -2.007089   -2.158069    0.538169
     15          6           0        5.719518    0.390224    1.143455
     16          6           0        5.055280    1.537611    0.697574
     17          6           0        3.844362    1.433644    0.006619
     18          6           0        3.323945    0.160805   -0.222152
     19          6           0        3.961922   -1.001097    0.209425
     20          6           0        5.171685   -0.873241    0.898389
     21          1           0        6.659740    0.480267    1.679432
     22          1           0        5.478385    2.520131    0.886471
     23          1           0        3.309112    2.305385   -0.349743
     24          1           0        3.515393   -1.966860    0.006120
     25          1           0        5.685339   -1.766050    1.243495
     26          7           0        2.042611    0.038095   -0.952583
     27          8           0        1.605023   -1.094811   -1.141464
     28          8           0        1.500153    1.077145   -1.322380
 ---------------------------------------------------------------------

 SCF Done:  E(RHF) =  -868.334990771     A.U. after   16 cycles
 E2 =    -0.2600565645D+01 EUMP2 =    -0.87093555641607D+03

 The electronic state is 1-A.
 Alpha  occ. eigenvalues --  -20.59793 -20.59670 -20.59508 -20.59347 -15.84800
 Alpha  occ. eigenvalues --  -15.84487 -11.30500 -11.30236 -11.27142 -11.27074
 Alpha  occ. eigenvalues --  -11.26928 -11.26895 -11.26806 -11.26700 -11.26225
 Alpha  occ. eigenvalues --  -11.26183 -11.25993 -11.25943  -1.58806  -1.58495
 Alpha  occ. eigenvalues --   -1.38353  -1.38039  -1.18708  -1.18453  -1.08043
 Alpha  occ. eigenvalues --   -1.07782  -1.04160  -1.03913  -0.94820  -0.94544
 Alpha  occ. eigenvalues --   -0.85543  -0.85295  -0.81649  -0.81378  -0.76640
 Alpha  occ. eigenvalues --   -0.76356  -0.71029  -0.70666  -0.70189  -0.69824
 Alpha  occ. eigenvalues --   -0.69806  -0.69567  -0.64353  -0.64171  -0.64095
 Alpha  occ. eigenvalues --   -0.63926  -0.61502  -0.61252  -0.54658  -0.54421
 Alpha  occ. eigenvalues --   -0.52476  -0.52258  -0.52226  -0.52013  -0.47931
 Alpha  occ. eigenvalues --   -0.47775  -0.47466  -0.47236  -0.43700  -0.43309
 Alpha  occ. eigenvalues --   -0.36714  -0.36466  -0.35780  -0.35534
 Alpha virt. eigenvalues --    0.05881   0.06207   0.11868   0.12115   0.17319
 Alpha virt. eigenvalues --    0.17610   0.21957   0.22178   0.27845   0.28064
 Alpha virt. eigenvalues --    0.28887   0.29122   0.31478   0.31691   0.33165

 Mulliken charges:
               1
     1  C   -0.172283
     2  C   -0.218903
     3  C   -0.172367
     4  C    0.159024
     5  C   -0.169575
     6  C   -0.219033
     7  H    0.221935
     8  H    0.219622
     9  H    0.273014
    10  H    0.280441
    11  H    0.221273
    12  N    0.486031
    13  O   -0.440760
    14  O   -0.468560
    15  C   -0.172005
    16  C   -0.218650
    17  C   -0.172107
    18  C    0.158885
    19  C   -0.170944
    20  C   -0.218703
    21  H    0.223020
    22  H    0.220483
    23  H    0.273083
    24  H    0.278938
    25  H    0.222133
    26  N    0.485594
    27  O   -0.441974
    28  O   -0.467612
 Sum of Mulliken charges =  -0.00000

 Dipole moment (field-independent basis, Debye):
    X=              0.7539    Y=              3.5402    Z=              3.4453  Tot=              4.9972
 Quadrupole moment (field-independent basis, Debye-Ang):
   XX=            -52.8557   YY=           -101.6986   ZZ=           -103.0664
   XY=             -8.1292   XZ=              3.2401   YZ=             -2.5107

 Normal termination of Gaussian 16 at Fri May  7 04:56:42 2021.
