 Gaussian 16, Revision A.03,
 Gaussian 16:  EM64L-G16RevA.03 25-Dec-2016

 -------------
 #p 6-31g* mp2
 -------------

 ------------------------------------------------------
 Input file generated by CHIRIPA (05-May-2021 14:57:25)
 ------------------------------------------------------
 Symbolic Z-matrix:
 Charge =  0 Multiplicity = 1

                         Standard orientation:
 ---------------------------------------------------------------------
 Center     Atomic      Atomic             Coordinates (Angstroms)
 Number     Number       Type             X           Y           Z
 ---------------------------------------------------------------------
      1          6           0       -0.878008   -0.357361    0.800965
      2          6           0       -1.842351   -1.277899    1.224254
      3          6           0       -3.171910   -1.154397    0.810045
      4          6           0       -3.503659   -0.093555   -0.031293
      5          6           0       -2.565759    0.839721   -0.470186
      6          6           0       -1.242148    0.696653   -0.043415
      7          1           0        0.152515   -0.460900    1.127612
      8          1           0       -1.562428   -2.097449    1.880017
      9          1           0       -3.938677   -1.852821    1.122598
     10          1           0       -2.875062    1.646261   -1.123825
     11          1           0       -0.495344    1.413046   -0.373734
     12          7           0       -4.908055    0.047548   -0.476447
     13          8           0       -5.174777    0.990955   -1.217715
     14          8           0       -5.715506   -0.787935   -0.075662
     15          6           0        2.594095    2.393598    0.807833
     16          6           0        2.527488    1.282050    1.654323
     17          6           0        2.900691    0.015760    1.194127
     18          6           0        3.337754   -0.103301   -0.124240
     19          6           0        3.415217    0.985029   -0.991897
     20          6           0        3.036965    2.241807   -0.510251
     21          1           0        2.302221    3.373588    1.173656
     22          1           0        2.183935    1.396957    2.678438
     23          1           0        2.858920   -0.861646    1.828029
     24          1           0        3.761760    0.839131   -2.007790
     25          1           0        3.089719    3.103281   -1.169892
     26          7           0        3.735519   -1.438829   -0.622783
     27          8           0        4.117134   -1.517253   -1.788483
     28          8           0        3.658142   -2.381906    0.161600
 ---------------------------------------------------------------------

 SCF Done:  E(RHF) =  -868.337203441     A.U. after   16 cycles
 E2 =    -0.2602171399D+01 EUMP2 =    -0.87093937483990D+03

 The electronic state is 1-A.
 Alpha  occ. eigenvalues --  -20.61796 -20.61777 -20.60793 -20.60786 -15.86853
 Alpha  occ. eigenvalues --  -15.85845 -11.32478 -11.31197 -11.29067 -11.28990
 Alpha  occ. eigenvalues --  -11.28782 -11.28124 -11.28063 -11.27782 -11.27752
 Alpha  occ. eigenvalues --  -11.27387 -11.26755 -11.26738  -1.60861  -1.59868
 Alpha  occ. eigenvalues --   -1.40407  -1.39422  -1.20679  -1.19361  -1.09995
 Alpha  occ. eigenvalues --   -1.08751  -1.06107  -1.04767  -0.96790  -0.95592
 Alpha  occ. eigenvalues --   -0.87452  -0.86157  -0.83610  -0.82432  -0.78625
 Alpha  occ. eigenvalues --   -0.77487  -0.73058  -0.72201  -0.72062  -0.71713
 Alpha  occ. eigenvalues --   -0.71191  -0.70485  -0.66289  -0.66035  -0.65008
 Alpha  occ. eigenvalues --   -0.64782  -0.63402  -0.62125  -0.56516  -0.55538
 Alpha  occ. eigenvalues --   -0.54163  -0.54121  -0.53098  -0.52836  -0.49837
 Alpha  occ. eigenvalues --   -0.49803  -0.48823  -0.48818  -0.45755  -0.44831
 Alpha  occ. eigenvalues --   -0.38667  -0.37710  -0.37291  -0.36379
 Alpha virt. eigenvalues --    0.03860   0.05040   0.09839   0.11284   0.15258
 Alpha virt. eigenvalues --    0.16580   0.20069   0.21695   0.25825   0.26914
 Alpha virt. eigenvalues --    0.27299   0.28879   0.29936   0.31016   0.31911

 Mulliken charges:
               1
     1  C   -0.174098
     2  C   -0.220448
     3  C   -0.170463
     4  C    0.158349
     5  C   -0.171270
     6  C   -0.225399
     7  H    0.230373
     8  H    0.224509
     9  H    0.275854
    10  H    0.273905
    11  H    0.221927
    12  N    0.488051
    13  O   -0.461357
    14  O   -0.459981
    15  C   -0.174881
    16  C   -0.219479
    17  C   -0.189538
    18  C    0.164346
    19  C   -0.170445
    20  C   -0.221001
    21  H    0.231410
    22  H    0.228985
    23  H    0.277255
    24  H    0.280661
    25  H    0.229142
    26  N    0.488316
    27  O   -0.455146
    28  O   -0.459580
 Sum of Mulliken charges =  -0.00000

 Dipole moment (field-independent basis, Debye):
    X=              3.9196    Y=              4.2576    Z=              3.2380  Tot=              6.6314
 Quadrupole moment (field-independent basis, Debye-Ang):
   XX=           -148.8913   YY=           -101.9200   ZZ=           -100.5150
   XY=             19.2909   XZ=             -1.7456   YZ=             -5.3424

 Normal termination of Gaussian 16 at Fri May  7 06:33:57 2021.
