 Gaussian 16, Revision A.03,
 Gaussian 16:  EM64L-G16RevA.03 25-Dec-2016

 -------------
 #p 6-31g* mp2
 -------------

 ------------------------------------------------------
 Input file generated by CHIRIPA (05-May-2021 14:55:22)
 ------------------------------------------------------
 Symbolic Z-matrix:
 Charge =  0 Multiplicity = 1

                         Standard orientation:
 ---------------------------------------------------------------------
 Center     Atomic      Atomic             Coordinates (Angstroms)
 Number     Number       Type             X           Y           Z
 ---------------------------------------------------------------------
      1          6           0        4.252870    1.356585   -0.746674
      2          6           0        4.445002   -0.019168   -0.910716
      3          6           0        3.510063   -0.931098   -0.411898
      4          6           0        2.389371   -0.430242    0.248770
      5          6           0        2.169786    0.934645    0.428086
      6          6           0        3.117876    1.828269   -0.078974
      7          1           0        4.984261    2.057885   -1.137369
      8          1           0        5.325517   -0.388342   -1.428837
      9          1           0        3.633959   -2.001286   -0.524885
     10          1           0        1.282172    1.272537    0.949036
     11          1           0        2.966059    2.896160    0.049892
     12          7           0        1.392632   -1.385972    0.781209
     13          8           0        0.413637   -0.919289    1.359493
     14          8           0        1.609256   -2.583660    0.610169
     15          6           0       -3.019338   -0.353890   -0.370685
     16          6           0       -4.129700   -1.405100   -0.376904
     17          6           0       -3.615253   -2.806402   -0.707797
     18          1           0       -2.527861   -0.343090   -1.353170
     19          1           0       -2.251852   -0.645645    0.359547
     20          1           0       -4.895541   -1.110737   -1.105913
     21          1           0       -4.618718   -1.413265    0.605649
     22          1           0       -2.866705   -3.124941    0.024876
     23          1           0       -3.145103   -2.820695   -1.696411
     24          1           0       -4.425520   -3.542151   -0.706794
     25          6           0       -3.517995    1.052069   -0.041522
     26          6           0       -2.407634    2.103280   -0.035302
     27          6           0       -2.922081    3.504582    0.295591
     28          1           0       -4.285482    1.343825   -0.771753
     29          1           0       -4.009473    1.041269    0.940964
     30          1           0       -1.918617    2.111445   -1.017855
     31          1           0       -1.641792    1.808916    0.693706
     32          1           0       -3.392231    3.518873    1.284205
     33          1           0       -3.670628    3.823120   -0.437083
     34          1           0       -2.111813    4.240330    0.294587
 ---------------------------------------------------------------------

 SCF Done:  E(RHF) =  -669.536479494     A.U. after   15 cycles
 E2 =    -0.2091731954D+01 EUMP2 =    -0.67162821144737D+03

 The electronic state is 1-A.
 Alpha  occ. eigenvalues --  -20.60971 -20.60965 -15.85992 -11.31276 -11.27839
 Alpha  occ. eigenvalues --  -11.27830 -11.27574 -11.26841 -11.26829 -11.21254
 Alpha  occ. eigenvalues --  -11.20894 -11.20746 -11.20686 -11.20281 -11.20056
 Alpha  occ. eigenvalues --   -1.60021  -1.39580  -1.19443  -1.08856  -1.07695
 Alpha  occ. eigenvalues --   -1.04835  -1.02876  -0.95704  -0.95305  -0.86327
 Alpha  occ. eigenvalues --   -0.86236  -0.82541  -0.78980  -0.77635  -0.77404
 Alpha  occ. eigenvalues --   -0.72222  -0.71325  -0.70555  -0.65104  -0.64841
 Alpha  occ. eigenvalues --   -0.64313  -0.62185  -0.60269  -0.58733  -0.56914
 Alpha  occ. eigenvalues --   -0.55345  -0.54576  -0.53168  -0.52930  -0.52064
 Alpha  occ. eigenvalues --   -0.51724  -0.49254  -0.48979  -0.48962  -0.47283
 Alpha  occ. eigenvalues --   -0.46011  -0.45334  -0.44998  -0.44475  -0.43088
 Alpha  occ. eigenvalues --   -0.37421  -0.36433
 Alpha virt. eigenvalues --    0.04893   0.11212   0.16368   0.20815   0.23378
 Alpha virt. eigenvalues --    0.24666   0.25914   0.27466   0.27672   0.28656
 Alpha virt. eigenvalues --    0.29281   0.30903   0.31588   0.32143   0.32254

 Mulliken charges:
               1
     1  C   -0.170382
     2  C   -0.218775
     3  C   -0.170430
     4  C    0.157543
     5  C   -0.171586
     6  C   -0.219435
     7  H    0.225951
     8  H    0.223725
     9  H    0.275743
    10  H    0.278965
    11  H    0.224093
    12  N    0.489795
    13  O   -0.462453
    14  O   -0.458615
    15  C   -0.311240
    16  C   -0.298447
    17  C   -0.477310
    18  H    0.142996
    19  H    0.178475
    20  H    0.146425
    21  H    0.150833
    22  H    0.166833
    23  H    0.151837
    24  H    0.155873
    25  C   -0.296547
    26  C   -0.303327
    27  C   -0.474599
    28  H    0.145991
    29  H    0.149691
    30  H    0.148052
    31  H    0.155427
    32  H    0.156301
    33  H    0.155180
    34  H    0.153420
 Sum of Mulliken charges =  -0.00000

 Dipole moment (field-independent basis, Debye):
    X=              3.7282    Y=              3.2101    Z=             -1.7523  Tot=              5.2226
 Quadrupole moment (field-independent basis, Debye-Ang):
   XX=            -77.5925   YY=            -96.4943   ZZ=            -95.0677
   XY=              4.6399   XZ=             -5.1223   YZ=              2.5986

 Normal termination of Gaussian 16 at Thu May  6 10:56:26 2021.
