 Gaussian 16, Revision A.03,
 Gaussian 16:  EM64L-G16RevA.03 25-Dec-2016

 -------------
 #p 6-31g* mp2
 -------------

 ------------------------------------------------------
 Input file generated by CHIRIPA (05-May-2021 14:51:10)
 ------------------------------------------------------
 Symbolic Z-matrix:
 Charge =  0 Multiplicity = 1

                         Standard orientation:
 ---------------------------------------------------------------------
 Center     Atomic      Atomic             Coordinates (Angstroms)
 Number     Number       Type             X           Y           Z
 ---------------------------------------------------------------------
      1          6           0        2.717183    1.332049    0.365334
      2          6           0        1.986489    2.292014   -0.574101
      3          6           0        1.513719    3.563709    0.130934
      4          1           0        2.051293    1.065672    1.197547
      5          1           0        3.579661    1.849064    0.808304
      6          1           0        1.126447    1.772912   -1.016228
      7          1           0        2.654130    2.555985   -1.404276
      8          1           0        2.363539    4.106302    0.557547
      9          1           0        0.827176    3.318779    0.947800
     10          1           0        0.993978    4.235726   -0.559083
     11          6           0        3.195923    0.056058   -0.324871
     12          6           0        3.926617   -0.903907    0.614565
     13          6           0        4.399388   -2.175602   -0.090470
     14          1           0        2.333445   -0.460957   -0.767841
     15          1           0        3.861813    0.322434   -1.157084
     16          1           0        3.258976   -1.167879    1.444740
     17          1           0        4.786659   -0.384805    1.056692
     18          1           0        5.085930   -1.930673   -0.907336
     19          1           0        3.549567   -2.718195   -0.517083
     20          1           0        4.919128   -2.847620    0.599546
     21          6           0       -2.199456   -0.684526   -0.120954
     22          6           0       -1.554781   -2.066100   -0.004189
     23          6           0       -0.039870   -2.030695   -0.208110
     24          1           0       -1.970836   -0.262578   -1.109204
     25          1           0       -1.744564   -0.011598    0.619070
     26          1           0       -2.011726   -2.736595   -0.743279
     27          1           0       -1.785123   -2.484888    0.983827
     28          1           0        0.434169   -1.383967    0.537297
     29          1           0        0.206279   -1.637103   -1.199622
     30          1           0        0.400457   -3.028834   -0.120415
     31          6           0       -3.713650   -0.703580    0.080491
     32          6           0       -4.358325    0.677993   -0.036275
     33          6           0       -5.873237    0.642589    0.167646
     34          1           0       -4.168543   -1.376508   -0.659534
     35          1           0       -3.942271   -1.125528    1.068740
     36          1           0       -4.127983    1.096782   -1.024291
     37          1           0       -3.901381    1.348489    0.702815
     38          1           0       -6.119386    0.248997    1.159159
     39          1           0       -6.347275   -0.004140   -0.577760
     40          1           0       -6.313563    1.640728    0.079951
 ---------------------------------------------------------------------

 SCF Done:  E(RHF) =  -470.732682336     A.U. after   11 cycles
 E2 =    -0.1583991886D+01 EUMP2 =    -0.47231667422126D+03

 The electronic state is 1-A.
 Alpha  occ. eigenvalues --  -11.21704 -11.21647 -11.21537 -11.21493 -11.21491
 Alpha  occ. eigenvalues --  -11.21423 -11.21308 -11.21214 -11.21150 -11.21105
 Alpha  occ. eigenvalues --  -11.21029 -11.20973  -1.08517  -1.08325  -1.03621
 Alpha  occ. eigenvalues --   -1.03439  -0.96086  -0.95882  -0.87116  -0.86895
 Alpha  occ. eigenvalues --   -0.79713  -0.79497  -0.78345  -0.78113  -0.65162
 Alpha  occ. eigenvalues --   -0.64969  -0.61020  -0.60842  -0.59440  -0.59255
 Alpha  occ. eigenvalues --   -0.57727  -0.57478  -0.55370  -0.55182  -0.52767
 Alpha  occ. eigenvalues --   -0.52596  -0.52566  -0.52254  -0.50021  -0.49826
 Alpha  occ. eigenvalues --   -0.48053  -0.47810  -0.46722  -0.46531  -0.46024
 Alpha  occ. eigenvalues --   -0.45805  -0.45638  -0.45324  -0.43863  -0.43685
 Alpha virt. eigenvalues --    0.20357   0.22874   0.23835   0.24463   0.25494
 Alpha virt. eigenvalues --    0.26088   0.27201   0.27639   0.27795   0.30137
 Alpha virt. eigenvalues --    0.30473   0.31055   0.31553   0.31909   0.32271

 Mulliken charges:
               1
     1  C   -0.298393
     2  C   -0.300255
     3  C   -0.475394
     4  H    0.148126
     5  H    0.149278
     6  H    0.152662
     7  H    0.151723
     8  H    0.155014
     9  H    0.154644
    10  H    0.160057
    11  C   -0.307186
    12  C   -0.299132
    13  C   -0.477061
    14  H    0.161440
    15  H    0.148619
    16  H    0.151366
    17  H    0.151276
    18  H    0.154735
    19  H    0.156882
    20  H    0.159536
    21  C   -0.298705
    22  C   -0.300378
    23  C   -0.480972
    24  H    0.149754
    25  H    0.149313
    26  H    0.152458
    27  H    0.152371
    28  H    0.159497
    29  H    0.156239
    30  H    0.161470
    31  C   -0.298348
    32  C   -0.299726
    33  C   -0.475775
    34  H    0.149801
    35  H    0.149864
    36  H    0.152117
    37  H    0.152084
    38  H    0.155244
    39  H    0.155254
    40  H    0.160502
 Sum of Mulliken charges =  -0.00000

 Dipole moment (field-independent basis, Debye):
    X=             -0.0750    Y=             -0.0409    Z=             -0.0211  Tot=              0.0880
 Quadrupole moment (field-independent basis, Debye-Ang):
   XX=            -85.5540   YY=            -85.5477   ZZ=            -83.8775
   XY=              0.9549   XZ=              0.1747   YZ=             -0.3210

 Normal termination of Gaussian 16 at Wed May  5 23:02:39 2021.
