 Gaussian 16, Revision A.03,
 Gaussian 16:  EM64L-G16RevA.03 25-Dec-2016

 -------------
 #p 6-31g* mp2
 -------------

 ------------------------------------------------------
 Input file generated by CHIRIPA (05-May-2021 14:55:19)
 ------------------------------------------------------
 Symbolic Z-matrix:
 Charge =  0 Multiplicity = 1

                         Standard orientation:
 ---------------------------------------------------------------------
 Center     Atomic      Atomic             Coordinates (Angstroms)
 Number     Number       Type             X           Y           Z
 ---------------------------------------------------------------------
      1          6           0        0.646594   -1.759194    1.347538
      2          6           0        1.318329   -0.693036    1.954660
      3          6           0        2.318318    0.000374    1.266362
      4          6           0        2.622455   -0.400930   -0.033540
      5          6           0        1.971153   -1.459032   -0.665613
      6          6           0        0.974571   -2.138122    0.041642
      7          1           0       -0.128898   -2.292290    1.889588
      8          1           0        1.065711   -0.396557    2.968726
      9          1           0        2.854205    0.829411    1.712390
     10          1           0        2.245033   -1.731411   -1.677649
     11          1           0        0.454553   -2.965732   -0.432371
     12          7           0        3.679295    0.325572   -0.772245
     13          8           0        3.928617   -0.047535   -1.916477
     14          8           0        4.238312    1.254355   -0.193022
     15          6           0       -2.782111    1.323852    0.053161
     16          6           0       -1.260169    1.195835    0.125888
     17          6           0       -0.570848    2.519343    0.458987
     18          1           0       -3.044699    2.076193   -0.703129
     19          1           0       -3.157598    1.702252    1.014004
     20          1           0       -0.887797    0.816476   -0.834342
     21          1           0       -1.001178    0.443572    0.881958
     22          1           0       -0.914181    2.899708    1.426482
     23          1           0       -0.800155    3.274731   -0.299570
     24          1           0        0.516609    2.404934    0.505968
     25          6           0       -3.485474    0.009054   -0.278972
     26          6           0       -5.007416    0.137072   -0.351699
     27          6           0       -5.696737   -1.186437   -0.684798
     28          1           0       -3.109986   -0.369346   -1.239815
     29          1           0       -3.222885   -0.743287    0.477318
     30          1           0       -5.266406    0.889333   -1.107769
     31          1           0       -5.379788    0.516430    0.608531
     32          1           0       -5.467429   -1.941824    0.073760
     33          1           0       -5.353404   -1.566802   -1.652293
     34          1           0       -6.784194   -1.072028   -0.731779
 ---------------------------------------------------------------------

 SCF Done:  E(RHF) =  -669.533484556     A.U. after   15 cycles
 E2 =    -0.2095119139D+01 EUMP2 =    -0.67162860369466D+03

 The electronic state is 1-A.
 Alpha  occ. eigenvalues --  -20.60830 -20.60825 -15.85884 -11.31276 -11.27840
 Alpha  occ. eigenvalues --  -11.27826 -11.27545 -11.26832 -11.26819 -11.21968
 Alpha  occ. eigenvalues --  -11.21802 -11.21617 -11.21551 -11.21474 -11.21127
 Alpha  occ. eigenvalues --   -1.59905  -1.39458  -1.19450  -1.08862  -1.08695
 Alpha  occ. eigenvalues --   -1.04853  -1.03765  -0.96242  -0.95671  -0.87255
 Alpha  occ. eigenvalues --   -0.86249  -0.82496  -0.79847  -0.78541  -0.77540
 Alpha  occ. eigenvalues --   -0.72100  -0.71230  -0.70556  -0.65370  -0.65095
 Alpha  occ. eigenvalues --   -0.64845  -0.62194  -0.61199  -0.59661  -0.57921
 Alpha  occ. eigenvalues --   -0.55559  -0.55346  -0.53316  -0.52940  -0.52718
 Alpha  occ. eigenvalues --   -0.52645  -0.50192  -0.48861  -0.48855  -0.48145
 Alpha  occ. eigenvalues --   -0.46908  -0.46058  -0.46024  -0.44858  -0.44041
 Alpha  occ. eigenvalues --   -0.37265  -0.36383
 Alpha virt. eigenvalues --    0.04955   0.11079   0.16406   0.20960   0.22736
 Alpha virt. eigenvalues --    0.24026   0.26209   0.26790   0.27080   0.27775
 Alpha virt. eigenvalues --    0.28799   0.30423   0.31240   0.31486   0.31683

 Mulliken charges:
               1
     1  C   -0.171708
     2  C   -0.217661
     3  C   -0.170145
     4  C    0.159863
     5  C   -0.171503
     6  C   -0.214243
     7  H    0.226080
     8  H    0.224188
     9  H    0.276106
    10  H    0.275909
    11  H    0.224123
    12  N    0.488024
    13  O   -0.460126
    14  O   -0.460394
    15  C   -0.297798
    16  C   -0.302544
    17  C   -0.478045
    18  H    0.151052
    19  H    0.147437
    20  H    0.152077
    21  H    0.153923
    22  H    0.150838
    23  H    0.157732
    24  H    0.161716
    25  C   -0.296205
    26  C   -0.299605
    27  C   -0.475590
    28  H    0.149312
    29  H    0.141548
    30  H    0.154189
    31  H    0.151979
    32  H    0.152433
    33  H    0.155210
    34  H    0.161830
 Sum of Mulliken charges =  -0.00000

 Dipole moment (field-independent basis, Debye):
    X=             -3.6363    Y=             -2.6044    Z=              2.5758  Tot=              5.1615
 Quadrupole moment (field-independent basis, Debye-Ang):
   XX=           -115.5211   YY=            -92.1840   ZZ=            -91.0985
   XY=             -5.3585   XZ=              7.5616   YZ=              1.2227

 Normal termination of Gaussian 16 at Thu May  6 14:02:42 2021.
