 Gaussian 16, Revision A.03,
 Gaussian 16:  EM64L-G16RevA.03 25-Dec-2016

 -------------
 #p 6-31g* mp2
 -------------

 ------------------------------------------------------
 Input file generated by CHIRIPA (05-May-2021 14:57:22)
 ------------------------------------------------------
 Symbolic Z-matrix:
 Charge =  0 Multiplicity = 1

                         Standard orientation:
 ---------------------------------------------------------------------
 Center     Atomic      Atomic             Coordinates (Angstroms)
 Number     Number       Type             X           Y           Z
 ---------------------------------------------------------------------
      1          6           0        1.214603    1.483649   -0.345735
      2          6           0        1.083296    0.096972   -0.473825
      3          6           0        2.195261   -0.737917   -0.328769
      4          6           0        3.429030   -0.149718   -0.054677
      5          6           0        3.591999    1.228305    0.078673
      6          6           0        2.466329    2.043902   -0.070381
      7          1           0        0.345479    2.124718   -0.459970
      8          1           0        0.112424   -0.340903   -0.687646
      9          1           0        2.121970   -1.814574   -0.422876
     10          1           0        4.572829    1.635559    0.292063
     11          1           0        2.571277    3.120485    0.029626
     12          7           0        4.613472   -1.023366    0.101003
     13          8           0        5.689434   -0.480475    0.342273
     14          8           0        4.443448   -2.234480   -0.021193
     15          6           0       -2.356624    2.368844    0.190526
     16          6           0       -2.691322    1.803277   -1.044235
     17          6           0       -3.178268    0.494803   -1.117222
     18          6           0       -3.318624   -0.222727    0.069682
     19          6           0       -2.993798    0.312914    1.315021
     20          6           0       -2.508662    1.623172    1.364143
     21          1           0       -1.979055    3.385992    0.237955
     22          1           0       -2.574276    2.380027   -1.957309
     23          1           0       -3.445006    0.032387   -2.059793
     24          1           0       -3.121317   -0.286775    2.208067
     25          1           0       -2.249530    2.059823    2.324472
     26          7           0       -3.833173   -1.608894    0.005046
     27          8           0       -3.947674   -2.220138    1.065191
     28          8           0       -4.112234   -2.057880   -1.104537
 ---------------------------------------------------------------------

 SCF Done:  E(RHF) =  -868.336677721     A.U. after   16 cycles
 E2 =    -0.2602478705D+01 EUMP2 =    -0.87093915642567D+03

 The electronic state is 1-A.
 Alpha  occ. eigenvalues --  -20.61717 -20.61707 -20.60843 -20.60831 -15.86777
 Alpha  occ. eigenvalues --  -15.85894 -11.32420 -11.31305 -11.28995 -11.28920
 Alpha  occ. eigenvalues --  -11.28778 -11.28090 -11.27997 -11.27908 -11.27840
 Alpha  occ. eigenvalues --  -11.27582 -11.26956 -11.26833  -1.60790  -1.59915
 Alpha  occ. eigenvalues --   -1.40332  -1.39466  -1.20619  -1.19484  -1.09981
 Alpha  occ. eigenvalues --   -1.08871  -1.06008  -1.04891  -0.96760  -0.95699
 Alpha  occ. eigenvalues --   -0.87395  -0.86287  -0.83548  -0.82531  -0.78537
 Alpha  occ. eigenvalues --   -0.77566  -0.72978  -0.72134  -0.72106  -0.71748
 Alpha  occ. eigenvalues --   -0.71240  -0.70605  -0.66234  -0.65965  -0.65133
 Alpha  occ. eigenvalues --   -0.64913  -0.63305  -0.62241  -0.56559  -0.55577
 Alpha  occ. eigenvalues --   -0.54227  -0.54060  -0.53221  -0.52939  -0.49762
 Alpha  occ. eigenvalues --   -0.49722  -0.48876  -0.48862  -0.45673  -0.44861
 Alpha  occ. eigenvalues --   -0.38633  -0.37763  -0.37325  -0.36491
 Alpha virt. eigenvalues --    0.03904   0.04962   0.09951   0.11143   0.15246
 Alpha virt. eigenvalues --    0.16464   0.19815   0.21646   0.26153   0.26413
 Alpha virt. eigenvalues --    0.26928   0.28992   0.30017   0.31203   0.32138

 Mulliken charges:
               1
     1  C   -0.172000
     2  C   -0.223444
     3  C   -0.171223
     4  C    0.158386
     5  C   -0.170825
     6  C   -0.220789
     7  H    0.222022
     8  H    0.226824
     9  H    0.278285
    10  H    0.275260
    11  H    0.219735
    12  N    0.487915
    13  O   -0.460927
    14  O   -0.458719
    15  C   -0.184838
    16  C   -0.221352
    17  C   -0.175514
    18  C    0.156971
    19  C   -0.170686
    20  C   -0.214108
    21  H    0.226856
    22  H    0.227838
    23  H    0.280114
    24  H    0.280878
    25  H    0.229122
    26  N    0.487269
    27  O   -0.455678
    28  O   -0.457372
 Sum of Mulliken charges =  -0.00000

 Dipole moment (field-independent basis, Debye):
    X=             -2.7070    Y=              7.7761    Z=             -0.2157  Tot=              8.2366
 Quadrupole moment (field-independent basis, Debye-Ang):
   XX=           -144.2316   YY=           -105.6041   ZZ=           -100.1600
   XY=             -2.9678   XZ=             -1.5170   YZ=              0.6582

 Normal termination of Gaussian 16 at Thu May  6 22:38:44 2021.
