 Gaussian 16, Revision A.03,
 Gaussian 16:  EM64L-G16RevA.03 25-Dec-2016

 -------------
 #p 6-31g* mp2
 -------------

 ------------------------------------------------------
 Input file generated by CHIRIPA (05-May-2021 14:55:25)
 ------------------------------------------------------
 Symbolic Z-matrix:
 Charge =  0 Multiplicity = 1

                         Standard orientation:
 ---------------------------------------------------------------------
 Center     Atomic      Atomic             Coordinates (Angstroms)
 Number     Number       Type             X           Y           Z
 ---------------------------------------------------------------------
      1          6           0       -3.387423   -2.258855    0.092214
      2          6           0       -4.231903   -1.466075   -0.691925
      3          6           0       -4.095991   -0.074659   -0.698071
      4          6           0       -3.100431    0.493219    0.095444
      5          6           0       -2.243648   -0.269685    0.887397
      6          6           0       -2.397736   -1.659187    0.877987
      7          1           0       -3.500062   -3.338997    0.090946
      8          1           0       -5.001386   -1.929048   -1.303149
      9          1           0       -4.736165    0.562876   -1.295687
     10          1           0       -1.485857    0.220663    1.486337
     11          1           0       -1.740476   -2.272377    1.487949
     12          7           0       -2.946927    1.965236    0.097171
     13          8           0       -2.062014    2.441195    0.805005
     14          8           0       -3.714430    2.615171   -0.609341
     15          6           0        4.749728   -0.341781    0.027532
     16          6           0        5.463775    0.978100   -0.265784
     17          6           0        6.961170    0.920356    0.037973
     18          1           0        4.901277   -0.606665    1.082906
     19          1           0        5.214497   -1.141703   -0.565351
     20          1           0        4.996901    1.775548    0.326434
     21          1           0        5.310347    1.239970   -1.320536
     22          1           0        7.446564    0.144698   -0.563149
     23          1           0        7.131336    0.683318    1.093179
     24          1           0        7.451878    1.874322   -0.178856
     25          6           0        3.252143   -0.299789   -0.271139
     26          6           0        2.538095   -1.619670    0.022177
     27          6           0        1.040701   -1.561926   -0.281580
     28          1           0        2.787375    0.500134    0.321743
     29          1           0        3.100593   -0.034904   -1.326513
     30          1           0        2.691523   -1.881540    1.076928
     31          1           0        3.004970   -2.417117   -0.570042
     32          1           0        0.870535   -1.324887   -1.336785
     33          1           0        0.555307   -0.786267    0.319542
     34          1           0        0.549993   -2.515892   -0.064751
 ---------------------------------------------------------------------

 SCF Done:  E(RHF) =  -669.534324135     A.U. after   15 cycles
 E2 =    -0.2092377391D+01 EUMP2 =    -0.67162670152605D+03

 The electronic state is 1-A.
 Alpha  occ. eigenvalues --  -20.60748 -20.60743 -15.85801 -11.31151 -11.27712
 Alpha  occ. eigenvalues --  -11.27703 -11.27446 -11.26731 -11.26707 -11.21879
 Alpha  occ. eigenvalues --  -11.21573 -11.21498 -11.21492 -11.21420 -11.21044
 Alpha  occ. eigenvalues --   -1.59823  -1.39378  -1.19324  -1.08720  -1.08547
 Alpha  occ. eigenvalues --   -1.04737  -1.03683  -0.96150  -0.95558  -0.87176
 Alpha  occ. eigenvalues --   -0.86126  -0.82396  -0.79756  -0.78335  -0.77437
 Alpha  occ. eigenvalues --   -0.72021  -0.71145  -0.70444  -0.65190  -0.64972
 Alpha  occ. eigenvalues --   -0.64746  -0.62129  -0.61061  -0.59531  -0.57748
 Alpha  occ. eigenvalues --   -0.55472  -0.55207  -0.53288  -0.52956  -0.52599
 Alpha  occ. eigenvalues --   -0.52457  -0.50077  -0.48778  -0.48775  -0.48060
 Alpha  occ. eigenvalues --   -0.46777  -0.45883  -0.45792  -0.44785  -0.43936
 Alpha  occ. eigenvalues --   -0.37298  -0.36234
 Alpha virt. eigenvalues --    0.05079   0.11249   0.16550   0.20639   0.22887
 Alpha virt. eigenvalues --    0.24114   0.26130   0.26800   0.27015   0.28012
 Alpha virt. eigenvalues --    0.29203   0.29922   0.31436   0.31700   0.32133

 Mulliken charges:
               1
     1  C   -0.172554
     2  C   -0.218240
     3  C   -0.171630
     4  C    0.157709
     5  C   -0.170133
     6  C   -0.211660
     7  H    0.225212
     8  H    0.223174
     9  H    0.275316
    10  H    0.274249
    11  H    0.224171
    12  N    0.488206
    13  O   -0.461002
    14  O   -0.460418
    15  C   -0.298363
    16  C   -0.300156
    17  C   -0.475832
    18  H    0.149010
    19  H    0.148886
    20  H    0.154245
    21  H    0.152785
    22  H    0.154561
    23  H    0.154894
    24  H    0.161223
    25  C   -0.299322
    26  C   -0.300512
    27  C   -0.474459
    28  H    0.152972
    29  H    0.151410
    30  H    0.149492
    31  H    0.152061
    32  H    0.159785
    33  H    0.153046
    34  H    0.151876
 Sum of Mulliken charges =  -0.00000

 Dipole moment (field-independent basis, Debye):
    X=             -0.5065    Y=             -5.1435    Z=             -0.0502  Tot=              5.1686
 Quadrupole moment (field-independent basis, Debye-Ang):
   XX=            -89.9818   YY=           -100.5943   ZZ=            -92.2658
   XY=             15.7265   XZ=              2.4041   YZ=             -0.4906

 Normal termination of Gaussian 16 at Thu May  6 11:06:37 2021.
