 Gaussian 16, Revision A.03,
 Gaussian 16:  EM64L-G16RevA.03 25-Dec-2016

 -------------
 #p 6-31g* mp2
 -------------

 ------------------------------------------------------
 Input file generated by CHIRIPA (05-May-2021 14:55:25)
 ------------------------------------------------------
 Symbolic Z-matrix:
 Charge =  0 Multiplicity = 1

                         Standard orientation:
 ---------------------------------------------------------------------
 Center     Atomic      Atomic             Coordinates (Angstroms)
 Number     Number       Type             X           Y           Z
 ---------------------------------------------------------------------
      1          6           0       -3.205893    1.771530    0.878361
      2          6           0       -1.887056    1.408038    1.170020
      3          6           0       -1.378415    0.178065    0.742237
      4          6           0       -2.220137   -0.667877    0.021698
      5          6           0       -3.538527   -0.334229   -0.284596
      6          6           0       -4.025973    0.900771    0.153262
      7          1           0       -3.592785    2.728955    1.214586
      8          1           0       -1.247890    2.082282    1.732966
      9          1           0       -0.361299   -0.128492    0.954170
     10          1           0       -4.151651   -1.027415   -0.847615
     11          1           0       -5.050606    1.180426   -0.074697
     12          7           0       -1.692881   -1.972655   -0.436510
     13          8           0       -2.454725   -2.700146   -1.069746
     14          8           0       -0.527757   -2.243144   -0.153740
     15          6           0        2.971417   -0.098287    0.227024
     16          6           0        4.322731   -0.804467    0.111928
     17          6           0        4.343866   -2.159422    0.820055
     18          1           0        2.725123    0.037525    1.289022
     19          1           0        2.190136   -0.745689   -0.194720
     20          1           0        5.101427   -0.155343    0.532508
     21          1           0        4.565926   -0.938443   -0.949920
     22          1           0        3.587778   -2.827792    0.395539
     23          1           0        4.126321   -2.040243    1.886390
     24          1           0        5.319217   -2.646814    0.725194
     25          6           0        2.934593    1.257542   -0.475897
     26          6           0        1.583280    1.963721   -0.360802
     27          6           0        1.562145    3.318677   -1.068929
     28          1           0        3.715874    1.904944   -0.054154
     29          1           0        3.180888    1.121730   -1.537895
     30          1           0        1.340084    2.097697    0.701046
     31          1           0        0.804585    1.314598   -0.781383
     32          1           0        1.779690    3.199498   -2.135265
     33          1           0        2.318233    3.987046   -0.644413
     34          1           0        0.586793    3.806068   -0.974067
 ---------------------------------------------------------------------

 SCF Done:  E(RHF) =  -669.535044511     A.U. after   15 cycles
 E2 =    -0.2093875119D+01 EUMP2 =    -0.67162891962999D+03

 The electronic state is 1-A.
 Alpha  occ. eigenvalues --  -20.60855 -20.60846 -15.85891 -11.31168 -11.27752
 Alpha  occ. eigenvalues --  -11.27681 -11.27486 -11.26746 -11.26709 -11.21971
 Alpha  occ. eigenvalues --  -11.21436 -11.21426 -11.21320 -11.21162 -11.20585
 Alpha  occ. eigenvalues --   -1.59919  -1.39474  -1.19352  -1.08762  -1.08434
 Alpha  occ. eigenvalues --   -1.04745  -1.03511  -0.95934  -0.95608  -0.86960
 Alpha  occ. eigenvalues --   -0.86144  -0.82449  -0.79673  -0.78290  -0.77407
 Alpha  occ. eigenvalues --   -0.72110  -0.71236  -0.70460  -0.65109  -0.64986
 Alpha  occ. eigenvalues --   -0.64704  -0.62106  -0.60907  -0.59351  -0.57556
 Alpha  occ. eigenvalues --   -0.55255  -0.55195  -0.53116  -0.52859  -0.52622
 Alpha  occ. eigenvalues --   -0.52348  -0.49872  -0.48874  -0.48861  -0.47924
 Alpha  occ. eigenvalues --   -0.46684  -0.45756  -0.45610  -0.44834  -0.43756
 Alpha  occ. eigenvalues --   -0.37341  -0.36264
 Alpha virt. eigenvalues --    0.05004   0.11226   0.16449   0.20406   0.23124
 Alpha virt. eigenvalues --    0.24186   0.25139   0.26178   0.27474   0.28350
 Alpha virt. eigenvalues --    0.29432   0.30866   0.31539   0.31771   0.32352

 Mulliken charges:
               1
     1  C   -0.170839
     2  C   -0.219695
     3  C   -0.172359
     4  C    0.155227
     5  C   -0.170640
     6  C   -0.219062
     7  H    0.225533
     8  H    0.224807
     9  H    0.284303
    10  H    0.275282
    11  H    0.223252
    12  N    0.489658
    13  O   -0.459599
    14  O   -0.463395
    15  C   -0.311521
    16  C   -0.298778
    17  C   -0.477616
    18  H    0.142057
    19  H    0.170876
    20  H    0.148970
    21  H    0.153156
    22  H    0.166097
    23  H    0.152739
    24  H    0.158538
    25  C   -0.296444
    26  C   -0.305412
    27  C   -0.475058
    28  H    0.148369
    29  H    0.152687
    30  H    0.138924
    31  H    0.158932
    32  H    0.158993
    33  H    0.155582
    34  H    0.156437
 Sum of Mulliken charges =  -0.00000

 Dipole moment (field-independent basis, Debye):
    X=             -1.8560    Y=              4.4490    Z=              1.4943  Tot=              5.0468
 Quadrupole moment (field-independent basis, Debye-Ang):
   XX=            -82.8198   YY=           -102.1702   ZZ=            -93.9860
   XY=             -8.0606   XZ=             -1.7079   YZ=              0.3588

 Normal termination of Gaussian 16 at Wed May  5 17:40:11 2021.
