 Gaussian 16, Revision A.03,
 Gaussian 16:  EM64L-G16RevA.03 25-Dec-2016

 -------------
 #p 6-31g* mp2
 -------------

 ------------------------------------------------------
 Input file generated by CHIRIPA (05-May-2021 14:55:19)
 ------------------------------------------------------
 Symbolic Z-matrix:
 Charge =  0 Multiplicity = 1

                         Standard orientation:
 ---------------------------------------------------------------------
 Center     Atomic      Atomic             Coordinates (Angstroms)
 Number     Number       Type             X           Y           Z
 ---------------------------------------------------------------------
      1          6           0        1.044310    1.043875    1.003090
      2          6           0        1.409840   -0.206101    1.513451
      3          6           0        2.556538   -0.855749    1.046986
      4          6           0        3.318032   -0.223719    0.065174
      5          6           0        2.980053    1.021265   -0.463104
      6          6           0        1.829199    1.652496    0.018178
      7          1           0        0.151914    1.541384    1.371205
      8          1           0        0.802182   -0.681135    2.278394
      9          1           0        2.862644   -1.823791    1.424627
     10          1           0        3.605786    1.469808   -1.225130
     11          1           0        1.547748    2.623207   -0.380006
     12          7           0        4.534189   -0.901723   -0.436494
     13          8           0        5.188189   -0.323802   -1.301900
     14          8           0        4.810385   -1.998227    0.045204
     15          6           0       -4.145869   -0.587479   -0.348063
     16          6           0       -5.574158   -0.996245    0.013719
     17          6           0       -5.869763   -2.461061   -0.309894
     18          1           0       -3.979452   -0.768733   -1.418762
     19          1           0       -3.439284   -1.233022    0.191758
     20          1           0       -6.277827   -0.349218   -0.525560
     21          1           0       -5.737255   -0.813816    1.083642
     22          1           0       -5.190958   -3.121496    0.239335
     23          1           0       -5.734601   -2.654256   -1.379009
     24          1           0       -6.896136   -2.731885   -0.043300
     25          6           0       -3.835172    0.874135   -0.030446
     26          6           0       -2.406883    1.282901   -0.392227
     27          6           0       -2.111278    2.747718   -0.068614
     28          1           0       -4.541757    1.519678   -0.570267
     29          1           0       -4.001589    1.055390    1.040254
     30          1           0       -2.243785    1.100473   -1.462150
     31          1           0       -1.703214    0.635874    0.147051
     32          1           0       -2.246440    2.940913    1.000501
     33          1           0       -2.790083    3.408152   -0.617843
     34          1           0       -1.084905    3.018542   -0.335209
 ---------------------------------------------------------------------

 SCF Done:  E(RHF) =  -669.534292262     A.U. after   15 cycles
 E2 =    -0.2092968681D+01 EUMP2 =    -0.67162726094273D+03

 The electronic state is 1-A.
 Alpha  occ. eigenvalues --  -20.60744 -20.60739 -15.85800 -11.31160 -11.27748
 Alpha  occ. eigenvalues --  -11.27744 -11.27414 -11.26745 -11.26731 -11.22570
 Alpha  occ. eigenvalues --  -11.22369 -11.22194 -11.22137 -11.22016 -11.21503
 Alpha  occ. eigenvalues --   -1.59821  -1.39374  -1.19342  -1.09215  -1.08729
 Alpha  occ. eigenvalues --   -1.04748  -1.04348  -0.96823  -0.95559  -0.87825
 Alpha  occ. eigenvalues --   -0.86144  -0.82408  -0.80403  -0.78965  -0.77452
 Alpha  occ. eigenvalues --   -0.72018  -0.71144  -0.70519  -0.65841  -0.64998
 Alpha  occ. eigenvalues --   -0.64782  -0.62117  -0.61759  -0.60198  -0.58396
 Alpha  occ. eigenvalues --   -0.56210  -0.55041  -0.53530  -0.53227  -0.53056
 Alpha  occ. eigenvalues --   -0.52817  -0.50743  -0.48795  -0.48772  -0.48690
 Alpha  occ. eigenvalues --   -0.47434  -0.46510  -0.46417  -0.44781  -0.44579
 Alpha  occ. eigenvalues --   -0.37259  -0.36356
 Alpha virt. eigenvalues --    0.05064   0.11215   0.16486   0.19696   0.22556
 Alpha virt. eigenvalues --    0.24097   0.25048   0.26077   0.26682   0.27165
 Alpha virt. eigenvalues --    0.29198   0.30157   0.30940   0.31481   0.32219

 Mulliken charges:
               1
     1  C   -0.169130
     2  C   -0.221583
     3  C   -0.170213
     4  C    0.158180
     5  C   -0.170719
     6  C   -0.223479
     7  H    0.234361
     8  H    0.223047
     9  H    0.275488
    10  H    0.275628
    11  H    0.224152
    12  N    0.488091
    13  O   -0.460533
    14  O   -0.460560
    15  C   -0.298386
    16  C   -0.300201
    17  C   -0.476055
    18  H    0.152320
    19  H    0.148449
    20  H    0.153177
    21  H    0.151646
    22  H    0.155320
    23  H    0.156662
    24  H    0.161837
    25  C   -0.298303
    26  C   -0.303995
    27  C   -0.484842
    28  H    0.152129
    29  H    0.148143
    30  H    0.157826
    31  H    0.150231
    32  H    0.153017
    33  H    0.164542
    34  H    0.153752
 Sum of Mulliken charges =  -0.00000

 Dipole moment (field-independent basis, Debye):
    X=             -4.4674    Y=              2.3582    Z=              1.6911  Tot=              5.3272
 Quadrupole moment (field-independent basis, Debye-Ang):
   XX=           -123.1944   YY=            -94.1826   ZZ=            -92.2391
   XY=              9.2631   XZ=              5.4733   YZ=             -3.5258

 Normal termination of Gaussian 16 at Thu May  6 04:28:21 2021.
