 Gaussian 16, Revision A.03,
 Gaussian 16:  EM64L-G16RevA.03 25-Dec-2016

 -------------
 #p 6-31g* mp2
 -------------

 ------------------------------------------------------
 Input file generated by CHIRIPA (05-May-2021 14:53:15)
 ------------------------------------------------------
 Symbolic Z-matrix:
 Charge =  0 Multiplicity = 1

                         Standard orientation:
 ---------------------------------------------------------------------
 Center     Atomic      Atomic             Coordinates (Angstroms)
 Number     Number       Type             X           Y           Z
 ---------------------------------------------------------------------
      1          6           0       -3.695912    0.083988   -0.170439
      2          6           0       -3.510557   -1.432698   -0.113064
      3          6           0       -4.831445   -2.194388   -0.226537
      4          1           0       -4.371021    0.395346    0.638406
      5          1           0       -4.193902    0.350123   -1.113081
      6          1           0       -3.011819   -1.695764    0.828570
      7          1           0       -2.835659   -1.740458   -0.922022
      8          1           0       -5.330718   -1.960953   -1.172495
      9          1           0       -5.507879   -1.916005    0.588043
     10          1           0       -4.675678   -3.276848   -0.183226
     11          6           0       -2.384391    0.859264   -0.058255
     12          6           0       -2.569747    2.375950   -0.115630
     13          6           0       -1.248858    3.137640   -0.002157
     14          1           0       -1.886402    0.593129    0.884387
     15          1           0       -1.709282    0.547907   -0.867100
     16          1           0       -3.244644    2.683710    0.693328
     17          1           0       -3.068484    2.639016   -1.057263
     18          1           0       -0.572424    2.859257   -0.816737
     19          1           0       -0.749585    2.904206    0.943801
     20          1           0       -1.404625    4.220101   -0.045468
     21          6           0        2.695494    2.132775    0.004978
     22          6           0        3.322018    1.314516   -0.940771
     23          6           0        3.151592   -0.072612   -0.903634
     24          6           0        2.344146   -0.610268    0.097488
     25          6           0        1.706596    0.178491    1.053878
     26          6           0        1.891201    1.563156    0.997534
     27          1           0        2.833393    3.209372   -0.031331
     28          1           0        3.947208    1.754127   -1.712732
     29          1           0        3.624865   -0.729457   -1.623346
     30          1           0        1.089330   -0.288845    1.811503
     31          1           0        1.403401    2.196176    1.733321
     32          7           0        2.156218   -2.077454    0.146970
     33          8           0        1.439831   -2.526553    1.039011
     34          8           0        2.728865   -2.750554   -0.707224
 ---------------------------------------------------------------------

 SCF Done:  E(RHF) =  -669.534567159     A.U. after   15 cycles
 E2 =    -0.2092870648D+01 EUMP2 =    -0.67162743780651D+03

 The electronic state is 1-A.
 Alpha  occ. eigenvalues --  -20.60751 -20.60745 -15.85804 -11.31168 -11.27721
 Alpha  occ. eigenvalues --  -11.27711 -11.27449 -11.26756 -11.26721 -11.21954
 Alpha  occ. eigenvalues --  -11.21637 -11.21581 -11.21409 -11.21350 -11.20847
 Alpha  occ. eigenvalues --   -1.59826  -1.39379  -1.19335  -1.08733  -1.08539
 Alpha  occ. eigenvalues --   -1.04743  -1.03641  -0.96129  -0.95562  -0.87168
 Alpha  occ. eigenvalues --   -0.86125  -0.82403  -0.79734  -0.78311  -0.77444
 Alpha  occ. eigenvalues --   -0.72022  -0.71148  -0.70432  -0.65195  -0.64984
 Alpha  occ. eigenvalues --   -0.64767  -0.62123  -0.61026  -0.59511  -0.57715
 Alpha  occ. eigenvalues --   -0.55467  -0.55207  -0.53196  -0.52912  -0.52801
 Alpha  occ. eigenvalues --   -0.52375  -0.50070  -0.48782  -0.48777  -0.48013
 Alpha  occ. eigenvalues --   -0.46754  -0.45857  -0.45757  -0.44783  -0.43895
 Alpha  occ. eigenvalues --   -0.37284  -0.36280
 Alpha virt. eigenvalues --    0.05056   0.11273   0.16477   0.20480   0.22885
 Alpha virt. eigenvalues --    0.24222   0.25517   0.26646   0.27063   0.28704
 Alpha virt. eigenvalues --    0.28889   0.29984   0.31428   0.31977   0.32016

 Mulliken charges:
               1
     1  C   -0.298816
     2  C   -0.300267
     3  C   -0.476173
     4  H    0.148772
     5  H    0.149351
     6  H    0.155788
     7  H    0.154979
     8  H    0.153929
     9  H    0.153795
    10  H    0.163528
    11  C   -0.297185
    12  C   -0.299681
    13  C   -0.475497
    14  H    0.144931
    15  H    0.152155
    16  H    0.152181
    17  H    0.153647
    18  H    0.158409
    19  H    0.144688
    20  H    0.158689
    21  C   -0.172049
    22  C   -0.219002
    23  C   -0.171638
    24  C    0.158181
    25  C   -0.170969
    26  C   -0.212353
    27  H    0.226185
    28  H    0.223292
    29  H    0.275304
    30  H    0.274849
    31  H    0.223967
    32  N    0.488107
    33  O   -0.460389
    34  O   -0.460707
 Sum of Mulliken charges =  -0.00000

 Dipole moment (field-independent basis, Debye):
    X=              0.6356    Y=              5.0905    Z=             -0.2230  Tot=              5.1349
 Quadrupole moment (field-independent basis, Debye-Ang):
   XX=            -91.1999   YY=           -102.3011   ZZ=            -90.8980
   XY=             11.2058   XZ=             -3.2012   YZ=              0.9588

 Normal termination of Gaussian 16 at Thu May  6 17:10:02 2021.
