 Gaussian 16, Revision A.03,
 Gaussian 16:  EM64L-G16RevA.03 25-Dec-2016

 -------------
 #p 6-31g* mp2
 -------------

 ------------------------------------------------------
 Input file generated by CHIRIPA (05-May-2021 14:55:24)
 ------------------------------------------------------
 Symbolic Z-matrix:
 Charge =  0 Multiplicity = 1

                         Standard orientation:
 ---------------------------------------------------------------------
 Center     Atomic      Atomic             Coordinates (Angstroms)
 Number     Number       Type             X           Y           Z
 ---------------------------------------------------------------------
      1          6           0       -1.736621    1.434640    1.934049
      2          6           0       -3.122858    1.356788    1.764321
      3          6           0       -3.674654    0.487747    0.818363
      4          6           0       -2.806889   -0.292457    0.055765
      5          6           0       -1.421589   -0.237513    0.201423
      6          6           0       -0.891900    0.638644    1.153434
      7          1           0       -1.316559    2.112496    2.671243
      8          1           0       -3.781297    1.973779    2.369156
      9          1           0       -4.744163    0.407516    0.666277
     10          1           0       -0.790708   -0.865098   -0.416269
     11          1           0        0.185054    0.697013    1.283079
     12          7           0       -3.379349   -1.216239   -0.948882
     13          8           0       -2.593332   -1.893014   -1.608269
     14          8           0       -4.603220   -1.246032   -1.057916
     15          6           0        2.844097    0.589764   -0.427401
     16          6           0        3.088157    1.755322   -1.386512
     17          6           0        1.822495    2.566709   -1.664976
     18          1           0        2.070773   -0.067336   -0.848277
     19          1           0        2.442155    0.979903    0.517918
     20          1           0        3.490820    1.363234   -2.329245
     21          1           0        3.861127    2.409621   -0.963393
     22          1           0        1.421075    2.985186   -0.736352
     23          1           0        1.048665    1.932854   -2.109964
     24          1           0        2.019732    3.394817   -2.352867
     25          6           0        4.100007   -0.230834   -0.139237
     26          6           0        3.855946   -1.396393    0.819872
     27          6           0        5.121609   -2.207780    1.098337
     28          1           0        4.501949   -0.620973   -1.084557
     29          1           0        4.873331    0.426266    0.281638
     30          1           0        3.082977   -2.050690    0.396754
     31          1           0        3.453284   -1.004305    1.762606
     32          1           0        5.895439   -1.573924    1.543326
     33          1           0        5.523029   -2.626256    0.169714
     34          1           0        4.924372   -3.035887    1.786229
 ---------------------------------------------------------------------

 SCF Done:  E(RHF) =  -669.535552267     A.U. after   15 cycles
 E2 =    -0.2092073650D+01 EUMP2 =    -0.67162762591771D+03

 The electronic state is 1-A.
 Alpha  occ. eigenvalues --  -20.60716 -20.60710 -15.85767 -11.31106 -11.27670
 Alpha  occ. eigenvalues --  -11.27652 -11.27398 -11.26691 -11.26606 -11.22368
 Alpha  occ. eigenvalues --  -11.22249 -11.22231 -11.22047 -11.21635 -11.21526
 Alpha  occ. eigenvalues --   -1.59791  -1.39346  -1.19269  -1.09165  -1.08671
 Alpha  occ. eigenvalues --   -1.04663  -1.04144  -0.96602  -0.95513  -0.87612
 Alpha  occ. eigenvalues --   -0.86069  -0.82349  -0.80220  -0.79046  -0.77374
 Alpha  occ. eigenvalues --   -0.71986  -0.71113  -0.70387  -0.65811  -0.64919
 Alpha  occ. eigenvalues --   -0.64655  -0.62031  -0.61527  -0.59964  -0.58220
 Alpha  occ. eigenvalues --   -0.55890  -0.55179  -0.53250  -0.53086  -0.52984
 Alpha  occ. eigenvalues --   -0.52721  -0.50534  -0.48751  -0.48744  -0.48515
 Alpha  occ. eigenvalues --   -0.47250  -0.46504  -0.46460  -0.44757  -0.44443
 Alpha  occ. eigenvalues --   -0.37253  -0.36253
 Alpha virt. eigenvalues --    0.05122   0.11347   0.16587   0.19696   0.22760
 Alpha virt. eigenvalues --    0.23810   0.24116   0.25099   0.27376   0.28540
 Alpha virt. eigenvalues --    0.29961   0.30528   0.31020   0.31455   0.31761

 Mulliken charges:
               1
     1  C   -0.172899
     2  C   -0.218302
     3  C   -0.171291
     4  C    0.159125
     5  C   -0.175785
     6  C   -0.222058
     7  H    0.225152
     8  H    0.222965
     9  H    0.275195
    10  H    0.275872
    11  H    0.233226
    12  N    0.488201
    13  O   -0.461034
    14  O   -0.460642
    15  C   -0.304522
    16  C   -0.299660
    17  C   -0.477063
    18  H    0.149254
    19  H    0.142144
    20  H    0.156728
    21  H    0.153415
    22  H    0.150981
    23  H    0.158844
    24  H    0.163933
    25  C   -0.297645
    26  C   -0.300995
    27  C   -0.476044
    28  H    0.154227
    29  H    0.151505
    30  H    0.153264
    31  H    0.147908
    32  H    0.155762
    33  H    0.157826
    34  H    0.162412
 Sum of Mulliken charges =  -0.00000

 Dipole moment (field-independent basis, Debye):
    X=              2.2335    Y=              3.2499    Z=              3.4360  Tot=              5.2304
 Quadrupole moment (field-independent basis, Debye-Ang):
   XX=           -101.8074   YY=            -96.8550   ZZ=            -94.0509
   XY=            -10.8409   XZ=            -11.5995   YZ=              0.1595

 Normal termination of Gaussian 16 at Thu May  6 12:40:55 2021.
