 Gaussian 16, Revision A.03,
 Gaussian 16:  EM64L-G16RevA.03 25-Dec-2016

 -------------
 #p 6-31g* mp2
 -------------

 ------------------------------------------------------
 Input file generated by CHIRIPA (05-May-2021 14:51:09)
 ------------------------------------------------------
 Symbolic Z-matrix:
 Charge =  0 Multiplicity = 1

                         Standard orientation:
 ---------------------------------------------------------------------
 Center     Atomic      Atomic             Coordinates (Angstroms)
 Number     Number       Type             X           Y           Z
 ---------------------------------------------------------------------
      1          6           0        3.681982   -0.726289   -0.064979
      2          6           0        4.999857   -1.500682   -0.026177
      3          6           0        4.800320   -2.994605    0.231059
      4          1           0        3.152404   -0.868360    0.887023
      5          1           0        3.037972   -1.151203   -0.847343
      6          1           0        5.641738   -1.073547    0.754951
      7          1           0        5.526449   -1.356595   -0.978309
      8          1           0        4.180921   -3.441236   -0.553458
      9          1           0        4.296865   -3.156580    1.189651
     10          1           0        5.755192   -3.528942    0.254804
     11          6           0        3.865019    0.768549   -0.321267
     12          6           0        2.547143    1.542942   -0.360069
     13          6           0        2.746681    3.036866   -0.617305
     14          1           0        4.509029    1.193463    0.461098
     15          1           0        4.394597    0.910620   -1.273269
     16          1           0        2.020552    1.398855    0.592064
     17          1           0        1.905263    1.115807   -1.141197
     18          1           0        3.250136    3.198840   -1.575897
     19          1           0        3.366080    3.483497    0.167212
     20          1           0        1.791809    3.571202   -0.641050
     21          6           0       -3.012114   -0.005988    0.134026
     22          6           0       -2.347724    0.969224    1.106411
     23          6           0       -0.824418    0.988204    0.976135
     24          1           0       -2.615150   -1.015399    0.308537
     25          1           0       -2.734442    0.265699   -0.893826
     26          1           0       -2.627683    0.696614    2.132044
     27          1           0       -2.746457    1.976397    0.929694
     28          1           0       -0.527968    1.281875   -0.036028
     29          1           0       -0.408519   -0.005180    1.173153
     30          1           0       -0.369996    1.692032    1.680400
     31          6           0       -4.534887   -0.036272    0.252220
     32          6           0       -5.199276   -1.011484   -0.720166
     33          6           0       -6.722582   -1.030465   -0.589890
     34          1           0       -4.812559   -0.307960    1.280072
     35          1           0       -4.931851    0.973140    0.077709
     36          1           0       -4.800544   -2.018657   -0.543449
     37          1           0       -4.919318   -0.738874   -1.745799
     38          1           0       -7.138482   -0.037080   -0.786907
     39          1           0       -7.019033   -1.324135    0.422275
     40          1           0       -7.177005   -1.734292   -1.294154
 ---------------------------------------------------------------------

 SCF Done:  E(RHF) =  -470.732553716     A.U. after   11 cycles
 E2 =    -0.1583077855D+01 EUMP2 =    -0.47231563157078D+03

 The electronic state is 1-A.
 Alpha  occ. eigenvalues --  -11.21596 -11.21564 -11.21559 -11.21430 -11.21394
 Alpha  occ. eigenvalues --  -11.21338 -11.21335 -11.21268 -11.21068 -11.21047
 Alpha  occ. eigenvalues --  -11.21012 -11.21001  -1.08422  -1.08355  -1.03546
 Alpha  occ. eigenvalues --   -1.03433  -0.95995  -0.95896  -0.87030  -0.86904
 Alpha  occ. eigenvalues --   -0.79753  -0.79383  -0.78279  -0.78097  -0.65049
 Alpha  occ. eigenvalues --   -0.64993  -0.60921  -0.60872  -0.59391  -0.59244
 Alpha  occ. eigenvalues --   -0.57612  -0.57507  -0.55238  -0.55213  -0.52726
 Alpha  occ. eigenvalues --   -0.52595  -0.52423  -0.52302  -0.49914  -0.49855
 Alpha  occ. eigenvalues --   -0.48082  -0.47659  -0.46622  -0.46542  -0.45895
 Alpha  occ. eigenvalues --   -0.45715  -0.45626  -0.45515  -0.43762  -0.43673
 Alpha virt. eigenvalues --    0.22092   0.23033   0.23623   0.24874   0.25851
 Alpha virt. eigenvalues --    0.26406   0.26883   0.27559   0.27819   0.29268
 Alpha virt. eigenvalues --    0.30155   0.30942   0.31718   0.31775   0.32277

 Mulliken charges:
               1
     1  C   -0.298253
     2  C   -0.299528
     3  C   -0.475648
     4  H    0.149423
     5  H    0.149369
     6  H    0.151813
     7  H    0.151883
     8  H    0.155078
     9  H    0.154971
    10  H    0.160125
    11  C   -0.297773
    12  C   -0.304541
    13  C   -0.476522
    14  H    0.148882
    15  H    0.148870
    16  H    0.162269
    17  H    0.150656
    18  H    0.154650
    19  H    0.154716
    20  H    0.160005
    21  C   -0.298338
    22  C   -0.301007
    23  C   -0.477150
    24  H    0.149647
    25  H    0.149243
    26  H    0.151410
    27  H    0.151582
    28  H    0.160267
    29  H    0.155180
    30  H    0.158805
    31  C   -0.298239
    32  C   -0.299604
    33  C   -0.475691
    34  H    0.149518
    35  H    0.149593
    36  H    0.151931
    37  H    0.151842
    38  H    0.155161
    39  H    0.155179
    40  H    0.160223
 Sum of Mulliken charges =  -0.00000

 Dipole moment (field-independent basis, Debye):
    X=             -0.0133    Y=              0.0002    Z=              0.0103  Tot=              0.0168
 Quadrupole moment (field-independent basis, Debye-Ang):
   XX=            -86.2937   YY=            -85.5192   ZZ=            -83.3306
   XY=             -0.1712   XZ=              0.1663   YZ=             -0.1467

 Normal termination of Gaussian 16 at Wed May  5 19:45:31 2021.
