 Gaussian 16, Revision A.03,
 Gaussian 16:  EM64L-G16RevA.03 25-Dec-2016

 -------------
 #p 6-31g* mp2
 -------------

 ------------------------------------------------------
 Input file generated by CHIRIPA (05-May-2021 14:51:10)
 ------------------------------------------------------
 Symbolic Z-matrix:
 Charge =  0 Multiplicity = 1

                         Standard orientation:
 ---------------------------------------------------------------------
 Center     Atomic      Atomic             Coordinates (Angstroms)
 Number     Number       Type             X           Y           Z
 ---------------------------------------------------------------------
      1          6           0       -4.618273    0.032618    0.258737
      2          6           0       -5.376055    1.075834   -0.563122
      3          6           0       -6.850058    1.180834   -0.170584
      4          1           0       -5.102874   -0.945468    0.134418
      5          1           0       -4.697562    0.287506    1.324636
      6          1           0       -5.294197    0.819821   -1.627252
      7          1           0       -4.889481    2.051513   -0.436983
      8          1           0       -6.949097    1.459264    0.883583
      9          1           0       -7.356113    0.220574   -0.313449
     10          1           0       -7.372732    1.932334   -0.770517
     11          6           0       -3.143442   -0.084010   -0.122049
     12          6           0       -2.385660   -1.127226    0.699810
     13          6           0       -0.911658   -1.232226    0.307273
     14          1           0       -3.064154   -0.338898   -1.187948
     15          1           0       -2.658842    0.894076    0.002271
     16          1           0       -2.872235   -2.102905    0.573672
     17          1           0       -2.467519   -0.871213    1.763940
     18          1           0       -0.405603   -0.271966    0.450137
     19          1           0       -0.812618   -1.510656   -0.746895
     20          1           0       -0.388984   -1.983725    0.907206
     21          6           0        4.374792    0.566990   -0.283892
     22          6           0        4.170722    1.897605    0.441231
     23          6           0        5.166404    2.970480   -0.000754
     24          1           0        5.399726    0.213451   -0.106510
     25          1           0        4.283281    0.729688   -1.366736
     26          1           0        4.261219    1.732191    1.522464
     27          1           0        3.146094    2.247924    0.262259
     28          1           0        5.072374    3.164571   -1.074108
     29          1           0        6.193834    2.645909    0.193257
     30          1           0        5.002524    3.913423    0.530153
     31          6           0        3.386924   -0.515599    0.147204
     32          6           0        3.590994   -1.846214   -0.577919
     33          6           0        2.595312   -2.919088   -0.135934
     34          1           0        3.478435   -0.678297    1.230047
     35          1           0        2.361990   -0.162058   -0.030179
     36          1           0        4.615622   -2.196532   -0.398947
     37          1           0        3.500497   -1.680800   -1.659153
     38          1           0        1.567881   -2.594518   -0.329946
     39          1           0        2.689341   -3.113180    0.937419
     40          1           0        2.759192   -3.862031   -0.666841
 ---------------------------------------------------------------------

 SCF Done:  E(RHF) =  -470.732675326     A.U. after   11 cycles
 E2 =    -0.1583089461D+01 EUMP2 =    -0.47231576478766D+03

 The electronic state is 1-A.
 Alpha  occ. eigenvalues --  -11.21626 -11.21619 -11.21570 -11.21500 -11.21430
 Alpha  occ. eigenvalues --  -11.21370 -11.21333 -11.21261 -11.21110 -11.21084
 Alpha  occ. eigenvalues --  -11.21047 -11.20875  -1.08458  -1.08355  -1.03573
 Alpha  occ. eigenvalues --   -1.03443  -0.96041  -0.95881  -0.87086  -0.86882
 Alpha  occ. eigenvalues --   -0.79707  -0.79457  -0.78284  -0.78148  -0.65087
 Alpha  occ. eigenvalues --   -0.64990  -0.60977  -0.60855  -0.59452  -0.59227
 Alpha  occ. eigenvalues --   -0.57675  -0.57465  -0.55410  -0.55107  -0.52865
 Alpha  occ. eigenvalues --   -0.52597  -0.52456  -0.52179  -0.50062  -0.49710
 Alpha  occ. eigenvalues --   -0.47954  -0.47824  -0.46667  -0.46539  -0.45883
 Alpha  occ. eigenvalues --   -0.45733  -0.45684  -0.45565  -0.43749  -0.43697
 Alpha virt. eigenvalues --    0.22063   0.22953   0.23718   0.24669   0.25611
 Alpha virt. eigenvalues --    0.26554   0.27072   0.27389   0.27834   0.29285
 Alpha virt. eigenvalues --    0.30619   0.31074   0.31386   0.31831   0.32398

 Mulliken charges:
               1
     1  C   -0.298314
     2  C   -0.299633
     3  C   -0.475719
     4  H    0.149750
     5  H    0.149631
     6  H    0.151907
     7  H    0.151922
     8  H    0.155229
     9  H    0.155225
    10  H    0.160297
    11  C   -0.298661
    12  C   -0.300312
    13  C   -0.480276
    14  H    0.149465
    15  H    0.149491
    16  H    0.152295
    17  H    0.152224
    18  H    0.156851
    19  H    0.154412
    20  H    0.164759
    21  C   -0.298109
    22  C   -0.299460
    23  C   -0.475635
    24  H    0.149510
    25  H    0.149311
    26  H    0.151793
    27  H    0.151367
    28  H    0.155143
    29  H    0.155179
    30  H    0.160015
    31  C   -0.301899
    32  C   -0.298798
    33  C   -0.484631
    34  H    0.148888
    35  H    0.154140
    36  H    0.151218
    37  H    0.151172
    38  H    0.168024
    39  H    0.153355
    40  H    0.158873
 Sum of Mulliken charges =  -0.00000

 Dipole moment (field-independent basis, Debye):
    X=             -0.0622    Y=              0.0000    Z=              0.0091  Tot=              0.0629
 Quadrupole moment (field-independent basis, Debye-Ang):
   XX=            -86.1656   YY=            -85.1022   ZZ=            -83.8439
   XY=             -0.2735   XZ=              0.9610   YZ=              0.4239

 Normal termination of Gaussian 16 at Thu May  6 05:21:37 2021.
