 Gaussian 16, Revision A.03,
 Gaussian 16:  EM64L-G16RevA.03 25-Dec-2016

 -------------
 #p 6-31g* mp2
 -------------

 ------------------------------------------------------
 Input file generated by CHIRIPA (05-May-2021 14:55:24)
 ------------------------------------------------------
 Symbolic Z-matrix:
 Charge =  0 Multiplicity = 1

                         Standard orientation:
 ---------------------------------------------------------------------
 Center     Atomic      Atomic             Coordinates (Angstroms)
 Number     Number       Type             X           Y           Z
 ---------------------------------------------------------------------
      1          6           0        2.386185    2.462816    0.531342
      2          6           0        2.823376    1.989240   -0.710072
      3          6           0        3.083609    0.628734   -0.899418
      4          6           0        2.895203   -0.234065    0.179178
      5          6           0        2.460659    0.207229    1.428066
      6          6           0        2.206539    1.571870    1.594575
      7          1           0        2.186405    3.521296    0.669561
      8          1           0        2.963763    2.678860   -1.537575
      9          1           0        3.422984    0.235158   -1.849860
     10          1           0        2.329894   -0.504458    2.234180
     11          1           0        1.867107    1.936831    2.559787
     12          7           0        3.167464   -1.676561   -0.009186
     13          8           0        2.993729   -2.416223    0.956916
     14          8           0        3.549443   -2.040212   -1.119360
     15          6           0       -3.115236    0.403952   -0.632601
     16          6           0       -1.711755   -0.191952   -0.518048
     17          6           0       -0.656040    0.636847   -1.250410
     18          1           0       -3.385143    0.488779   -1.694156
     19          1           0       -3.105972    1.426229   -0.229789
     20          1           0       -1.723980   -1.213300   -0.919688
     21          1           0       -1.445234   -0.275547    0.543363
     22          1           0       -0.614569    1.652970   -0.844978
     23          1           0       -0.894898    0.709889   -2.316343
     24          1           0        0.339801    0.192819   -1.155538
     25          6           0       -4.181611   -0.413361    0.094430
     26          6           0       -5.585094    0.182542   -0.020122
     27          6           0       -6.640808   -0.646255    0.712240
     28          1           0       -4.190876   -1.435639   -0.308381
     29          1           0       -3.911706   -0.498187    1.155985
     30          1           0       -5.851614    0.266138   -1.081534
     31          1           0       -5.572868    1.203891    0.381518
     32          1           0       -6.401950   -0.719298    1.778173
     33          1           0       -6.682279   -1.662378    0.306807
     34          1           0       -7.636649   -0.202229    0.617368
 ---------------------------------------------------------------------

 SCF Done:  E(RHF) =  -669.534143740     A.U. after   15 cycles
 E2 =    -0.2093680704D+01 EUMP2 =    -0.67162782444378D+03

 The electronic state is 1-A.
 Alpha  occ. eigenvalues --  -20.60812 -20.60807 -15.85866 -11.31230 -11.27834
 Alpha  occ. eigenvalues --  -11.27776 -11.27563 -11.26857 -11.26805 -11.21647
 Alpha  occ. eigenvalues --  -11.21554 -11.21431 -11.21370 -11.21100 -11.20949
 Alpha  occ. eigenvalues --   -1.59890  -1.39441  -1.19439  -1.08818  -1.08445
 Alpha  occ. eigenvalues --   -1.04833  -1.03530  -0.95988  -0.95649  -0.87009
 Alpha  occ. eigenvalues --   -0.86227  -0.82477  -0.79602  -0.78262  -0.77523
 Alpha  occ. eigenvalues --   -0.72083  -0.71225  -0.70531  -0.65083  -0.65076
 Alpha  occ. eigenvalues --   -0.64826  -0.62172  -0.60940  -0.59441  -0.57650
 Alpha  occ. eigenvalues --   -0.55331  -0.55323  -0.53689  -0.52916  -0.52447
 Alpha  occ. eigenvalues --   -0.51988  -0.49907  -0.48844  -0.48837  -0.47917
 Alpha  occ. eigenvalues --   -0.46635  -0.45804  -0.45735  -0.44843  -0.43777
 Alpha  occ. eigenvalues --   -0.37371  -0.36374
 Alpha virt. eigenvalues --    0.04989   0.11178   0.16456   0.21355   0.22819
 Alpha virt. eigenvalues --    0.24269   0.26605   0.27207   0.27483   0.27956
 Alpha virt. eigenvalues --    0.28271   0.30839   0.31341   0.31850   0.31991

 Mulliken charges:
               1
     1  C   -0.170710
     2  C   -0.210003
     3  C   -0.178771
     4  C    0.161468
     5  C   -0.171645
     6  C   -0.216719
     7  H    0.225840
     8  H    0.224149
     9  H    0.275884
    10  H    0.275963
    11  H    0.223701
    12  N    0.487837
    13  O   -0.460354
    14  O   -0.460380
    15  C   -0.298123
    16  C   -0.299308
    17  C   -0.478574
    18  H    0.149677
    19  H    0.146092
    20  H    0.155498
    21  H    0.149512
    22  H    0.149016
    23  H    0.152151
    24  H    0.167317
    25  C   -0.298174
    26  C   -0.299472
    27  C   -0.475677
    28  H    0.151513
    29  H    0.148799
    30  H    0.152066
    31  H    0.150349
    32  H    0.154880
    33  H    0.156238
    34  H    0.159959
 Sum of Mulliken charges =  -0.00000

 Dipole moment (field-independent basis, Debye):
    X=             -0.8466    Y=              5.0805    Z=              0.6794  Tot=              5.1952
 Quadrupole moment (field-independent basis, Debye-Ang):
   XX=           -101.5999   YY=            -97.5098   ZZ=            -89.5780
   XY=             15.2794   XZ=              0.8906   YZ=              0.5936

 Normal termination of Gaussian 16 at Thu May  6 12:41:33 2021.
