 Gaussian 16, Revision A.03,
 Gaussian 16:  EM64L-G16RevA.03 25-Dec-2016

 -------------
 #p 6-31g* mp2
 -------------

 ------------------------------------------------------
 Input file generated by CHIRIPA (05-May-2021 14:53:15)
 ------------------------------------------------------
 Symbolic Z-matrix:
 Charge =  0 Multiplicity = 1

                         Standard orientation:
 ---------------------------------------------------------------------
 Center     Atomic      Atomic             Coordinates (Angstroms)
 Number     Number       Type             X           Y           Z
 ---------------------------------------------------------------------
      1          6           0       -2.880040    0.524603   -0.685948
      2          6           0       -2.738664    1.972453   -0.215068
      3          6           0       -1.642544    2.732732   -0.962256
      4          1           0       -1.919338    0.007872   -0.555618
      5          1           0       -3.095853    0.516173   -1.763328
      6          1           0       -2.524551    1.978193    0.861380
      7          1           0       -3.699867    2.485745   -0.346355
      8          1           0       -1.853880    2.756709   -2.036204
      9          1           0       -0.671887    2.246273   -0.821607
     10          1           0       -1.558665    3.765514   -0.609856
     11          6           0       -3.971839   -0.248465    0.051662
     12          6           0       -4.113215   -1.696315   -0.419218
     13          6           0       -5.209335   -2.456595    0.327970
     14          1           0       -3.756025   -0.240036    1.129042
     15          1           0       -4.932541    0.268266   -0.078668
     16          1           0       -3.152012   -2.209607   -0.287931
     17          1           0       -4.327328   -1.702055   -1.495666
     18          1           0       -6.179992   -1.970135    0.187321
     19          1           0       -4.997998   -2.480571    1.401918
     20          1           0       -5.293214   -3.489376   -0.024430
     21          6           0        1.216714    1.436636    1.607701
     22          6           0        1.800871    1.890513    0.420572
     23          6           0        2.611500    1.043471   -0.340972
     24          6           0        2.817643   -0.257183    0.116295
     25          6           0        2.249648   -0.738781    1.294740
     26          6           0        1.442569    0.125748    2.040234
     27          1           0        0.588376    2.101430    2.193052
     28          1           0        1.627215    2.908065    0.082225
     29          1           0        3.076099    1.368916   -1.263821
     30          1           0        2.441156   -1.758404    1.606366
     31          1           0        0.990201   -0.229457    2.961775
     32          7           0        3.673941   -1.163165   -0.681422
     33          8           0        3.840018   -2.304588   -0.256911
     34          8           0        4.162816   -0.714696   -1.716079
 ---------------------------------------------------------------------

 SCF Done:  E(RHF) =  -669.535054731     A.U. after   15 cycles
 E2 =    -0.2092569345D+01 EUMP2 =    -0.67162762407627D+03

 The electronic state is 1-A.
 Alpha  occ. eigenvalues --  -20.60825 -20.60819 -15.85879 -11.31278 -11.27848
 Alpha  occ. eigenvalues --  -11.27836 -11.27593 -11.26875 -11.26836 -11.22185
 Alpha  occ. eigenvalues --  -11.21871 -11.21784 -11.21722 -11.21624 -11.21316
 Alpha  occ. eigenvalues --   -1.59899  -1.39452  -1.19460  -1.08871  -1.08809
 Alpha  occ. eigenvalues --   -1.04870  -1.03948  -0.96403  -0.95669  -0.87433
 Alpha  occ. eigenvalues --   -0.86252  -0.82501  -0.80022  -0.78628  -0.77543
 Alpha  occ. eigenvalues --   -0.72096  -0.71223  -0.70550  -0.65489  -0.65105
 Alpha  occ. eigenvalues --   -0.64860  -0.62225  -0.61344  -0.59779  -0.58008
 Alpha  occ. eigenvalues --   -0.55729  -0.55351  -0.53270  -0.53127  -0.52942
 Alpha  occ. eigenvalues --   -0.52726  -0.50319  -0.48857  -0.48849  -0.48326
 Alpha  occ. eigenvalues --   -0.47046  -0.46173  -0.46088  -0.44850  -0.44201
 Alpha  occ. eigenvalues --   -0.37401  -0.36424
 Alpha virt. eigenvalues --    0.04975   0.11101   0.16399   0.20665   0.22656
 Alpha virt. eigenvalues --    0.24024   0.26132   0.26503   0.26976   0.28126
 Alpha virt. eigenvalues --    0.28629   0.30270   0.31220   0.31515   0.31955

 Mulliken charges:
               1
     1  C   -0.299866
     2  C   -0.296894
     3  C   -0.486758
     4  H    0.152887
     5  H    0.151754
     6  H    0.144387
     7  H    0.153809
     8  H    0.158768
     9  H    0.161440
    10  H    0.154405
    11  C   -0.298005
    12  C   -0.300164
    13  C   -0.475795
    14  H    0.146448
    15  H    0.150192
    16  H    0.152965
    17  H    0.153630
    18  H    0.155474
    19  H    0.153893
    20  H    0.162001
    21  C   -0.170246
    22  C   -0.220103
    23  C   -0.172191
    24  C    0.158731
    25  C   -0.170951
    26  C   -0.218916
    27  H    0.227254
    28  H    0.227675
    29  H    0.276448
    30  H    0.275965
    31  H    0.223820
    32  N    0.488104
    33  O   -0.460231
    34  O   -0.459927
 Sum of Mulliken charges =  -0.00000

 Dipole moment (field-independent basis, Debye):
    X=             -2.9885    Y=              3.1140    Z=              2.7732  Tot=              5.1301
 Quadrupole moment (field-independent basis, Debye-Ang):
   XX=           -112.4184   YY=            -94.6580   ZZ=            -91.9144
   XY=             10.0252   XZ=              8.0462   YZ=             -3.0317

 Normal termination of Gaussian 16 at Thu May  6 05:51:09 2021.
