 Gaussian 16, Revision A.03,
 Gaussian 16:  EM64L-G16RevA.03 25-Dec-2016

 -------------
 #p 6-31g* mp2
 -------------

 ------------------------------------------------------
 Input file generated by CHIRIPA (05-May-2021 14:53:18)
 ------------------------------------------------------
 Symbolic Z-matrix:
 Charge =  0 Multiplicity = 1

                         Standard orientation:
 ---------------------------------------------------------------------
 Center     Atomic      Atomic             Coordinates (Angstroms)
 Number     Number       Type             X           Y           Z
 ---------------------------------------------------------------------
      1          6           0       -4.053042   -0.069983   -0.110441
      2          6           0       -5.266384    0.860321   -0.092540
      3          6           0       -6.177582    0.666843   -1.305008
      4          1           0       -3.480649    0.102056   -1.032240
      5          1           0       -4.399326   -1.112150   -0.147448
      6          1           0       -4.917926    1.900379   -0.054181
      7          1           0       -5.835850    0.686182    0.829415
      8          1           0       -6.553243   -0.360736   -1.344518
      9          1           0       -5.630103    0.860360   -2.233134
     10          1           0       -7.038534    1.341772   -1.271951
     11          6           0       -3.132619    0.111560    1.095209
     12          6           0       -1.919277   -0.818744    1.077309
     13          6           0       -1.008078   -0.625266    2.289777
     14          1           0       -2.786334    1.153727    1.132217
     15          1           0       -3.705011   -0.060479    2.017009
     16          1           0       -1.349811   -0.644605    0.155354
     17          1           0       -2.267735   -1.858802    1.038950
     18          1           0       -1.555557   -0.818783    3.217903
     19          1           0       -0.632418    0.402313    2.329287
     20          1           0       -0.147126   -1.300195    2.256720
     21          6           0        4.107235    2.035155    0.298571
     22          6           0        4.558092    0.764443    0.670780
     23          6           0        3.845639   -0.379156    0.297771
     24          6           0        2.681187   -0.214562   -0.450729
     25          6           0        2.206310    1.037896   -0.836901
     26          6           0        2.934849    2.167592   -0.452758
     27          1           0        4.666934    2.918130    0.592657
     28          1           0        5.468247    0.658571    1.254265
     29          1           0        4.172021   -1.374883    0.572397
     30          1           0        1.295490    1.111622   -1.418612
     31          1           0        2.582333    3.153188   -0.743239
     32          7           0        1.918429   -1.417881   -0.851511
     33          8           0        0.895529   -1.246014   -1.510885
     34          8           0        2.357923   -2.510122   -0.498680
 ---------------------------------------------------------------------

 SCF Done:  E(RHF) =  -669.536271686     A.U. after   15 cycles
 E2 =    -0.2091645189D+01 EUMP2 =    -0.67162791687493D+03

 The electronic state is 1-A.
 Alpha  occ. eigenvalues --  -20.60950 -20.60945 -15.85969 -11.31281 -11.27847
 Alpha  occ. eigenvalues --  -11.27836 -11.27576 -11.26850 -11.26839 -11.21227
 Alpha  occ. eigenvalues --  -11.20874 -11.20816 -11.20734 -11.20714 -11.20553
 Alpha  occ. eigenvalues --   -1.60001  -1.39560  -1.19446  -1.08852  -1.07888
 Alpha  occ. eigenvalues --   -1.04843  -1.03003  -0.95697  -0.95496  -0.86513
 Alpha  occ. eigenvalues --   -0.86244  -0.82534  -0.79053  -0.77689  -0.77568
 Alpha  occ. eigenvalues --   -0.72195  -0.71311  -0.70558  -0.65106  -0.64848
 Alpha  occ. eigenvalues --   -0.64525  -0.62193  -0.60405  -0.58850  -0.57080
 Alpha  occ. eigenvalues --   -0.55348  -0.54805  -0.53170  -0.52937  -0.52193
 Alpha  occ. eigenvalues --   -0.51911  -0.49453  -0.48962  -0.48948  -0.47387
 Alpha  occ. eigenvalues --   -0.46132  -0.45379  -0.45200  -0.44638  -0.43257
 Alpha  occ. eigenvalues --   -0.37418  -0.36441
 Alpha virt. eigenvalues --    0.04908   0.11195   0.16371   0.21264   0.23297
 Alpha virt. eigenvalues --    0.24625   0.26923   0.27364   0.27801   0.28335
 Alpha virt. eigenvalues --    0.28605   0.30790   0.31741   0.32100   0.32281

 Mulliken charges:
               1
     1  C   -0.298097
     2  C   -0.299013
     3  C   -0.475323
     4  H    0.152059
     5  H    0.151213
     6  H    0.148903
     7  H    0.150884
     8  H    0.155922
     9  H    0.155097
    10  H    0.158272
    11  C   -0.297631
    12  C   -0.307688
    13  C   -0.477390
    14  H    0.143528
    15  H    0.147010
    16  H    0.168992
    17  H    0.154712
    18  H    0.153191
    19  H    0.148700
    20  H    0.161390
    21  C   -0.170505
    22  C   -0.218383
    23  C   -0.170784
    24  C    0.159393
    25  C   -0.170891
    26  C   -0.218538
    27  H    0.225977
    28  H    0.223840
    29  H    0.275791
    30  H    0.275205
    31  H    0.223691
    32  N    0.488482
    33  O   -0.459232
    34  O   -0.458778
 Sum of Mulliken charges =  -0.00000

 Dipole moment (field-independent basis, Debye):
    X=              2.8616    Y=              4.1309    Z=              1.2976  Tot=              5.1901
 Quadrupole moment (field-independent basis, Debye-Ang):
   XX=            -79.0744   YY=            -94.7338   ZZ=            -96.3577
   XY=              9.4433   XZ=              3.8109   YZ=             -4.1751

 Normal termination of Gaussian 16 at Thu May  6 06:01:26 2021.
