 Gaussian 16, Revision A.03,
 Gaussian 16:  EM64L-G16RevA.03 25-Dec-2016

 -------------
 #p 6-31g* mp2
 -------------

 ------------------------------------------------------
 Input file generated by CHIRIPA (05-May-2021 14:55:25)
 ------------------------------------------------------
 Symbolic Z-matrix:
 Charge =  0 Multiplicity = 1

                         Standard orientation:
 ---------------------------------------------------------------------
 Center     Atomic      Atomic             Coordinates (Angstroms)
 Number     Number       Type             X           Y           Z
 ---------------------------------------------------------------------
      1          6           0       -0.594498   -1.093330    2.146792
      2          6           0       -1.393696   -1.907681    1.337696
      3          6           0       -2.180931   -1.349567    0.326105
      4          6           0       -2.144655    0.032879    0.150557
      5          6           0       -1.358791    0.870740    0.940302
      6          6           0       -0.579622    0.290841    1.945867
      7          1           0        0.013913   -1.535348    2.930280
      8          1           0       -1.407233   -2.982957    1.491459
      9          1           0       -2.808818   -1.956624   -0.314722
     10          1           0       -1.366206    1.939351    0.763011
     11          1           0        0.040084    0.925727    2.572707
     12          7           0       -2.973796    0.635260   -0.917179
     13          8           0       -2.924184    1.855964   -1.051564
     14          8           0       -3.657590   -0.124703   -1.599470
     15          6           0        2.206837   -0.530333   -0.687669
     16          6           0        3.027352   -1.815876   -0.577592
     17          6           0        2.286907   -3.038154   -1.121256
     18          1           0        1.260623   -0.659175   -0.144508
     19          1           0        1.942273   -0.361503   -1.740712
     20          1           0        3.291464   -1.981495    0.474754
     21          1           0        3.971807   -1.683890   -1.120918
     22          1           0        2.036906   -2.898591   -2.177960
     23          1           0        1.352699   -3.197886   -0.573222
     24          1           0        2.891648   -3.946073   -1.032749
     25          6           0        2.933650    0.700319   -0.148255
     26          6           0        2.113134    1.985862   -0.258334
     27          6           0        2.853580    3.208140    0.285331
     28          1           0        3.198213    0.531489    0.904787
     29          1           0        3.879864    0.829161   -0.691417
     30          1           0        1.168681    1.853877    0.284992
     31          1           0        1.849022    2.151481   -1.310679
     32          1           0        3.787788    3.367872   -0.262703
     33          1           0        3.103580    3.068577    1.342035
     34          1           0        2.248840    4.116059    0.196823
 ---------------------------------------------------------------------

 SCF Done:  E(RHF) =  -669.533597017     A.U. after   15 cycles
 E2 =    -0.2096198932D+01 EUMP2 =    -0.67162979594911D+03

 The electronic state is 1-A.
 Alpha  occ. eigenvalues --  -20.60862 -20.60857 -15.85919 -11.31345 -11.27935
 Alpha  occ. eigenvalues --  -11.27911 -11.27667 -11.26960 -11.26914 -11.21879
 Alpha  occ. eigenvalues --  -11.21833 -11.21667 -11.21411 -11.21402 -11.21380
 Alpha  occ. eigenvalues --   -1.59936  -1.39487  -1.19550  -1.08935  -1.08663
 Alpha  occ. eigenvalues --   -1.04966  -1.03817  -0.96261  -0.95740  -0.87280
 Alpha  occ. eigenvalues --   -0.86336  -0.82581  -0.79891  -0.78498  -0.77599
 Alpha  occ. eigenvalues --   -0.72136  -0.71259  -0.70636  -0.65414  -0.65171
 Alpha  occ. eigenvalues --   -0.64928  -0.62343  -0.61199  -0.59622  -0.57871
 Alpha  occ. eigenvalues --   -0.55592  -0.55433  -0.53436  -0.53029  -0.52915
 Alpha  occ. eigenvalues --   -0.52672  -0.50221  -0.48901  -0.48887  -0.48214
 Alpha  occ. eigenvalues --   -0.46964  -0.45997  -0.45825  -0.44875  -0.44037
 Alpha  occ. eigenvalues --   -0.37486  -0.36425
 Alpha virt. eigenvalues --    0.04896   0.10984   0.16237   0.20430   0.23140
 Alpha virt. eigenvalues --    0.23488   0.26398   0.26863   0.27506   0.28011
 Alpha virt. eigenvalues --    0.28444   0.30113   0.31313   0.31642   0.32072

 Mulliken charges:
               1
     1  C   -0.173189
     2  C   -0.217778
     3  C   -0.171086
     4  C    0.159096
     5  C   -0.168898
     6  C   -0.218066
     7  H    0.226825
     8  H    0.224921
     9  H    0.276793
    10  H    0.277348
    11  H    0.225300
    12  N    0.488177
    13  O   -0.459710
    14  O   -0.459921
    15  C   -0.308245
    16  C   -0.298333
    17  C   -0.475950
    18  H    0.161785
    19  H    0.151393
    20  H    0.146119
    21  H    0.153049
    22  H    0.158441
    23  H    0.150234
    24  H    0.159425
    25  C   -0.296269
    26  C   -0.305125
    27  C   -0.475959
    28  H    0.142126
    29  H    0.151205
    30  H    0.148922
    31  H    0.157745
    32  H    0.157890
    33  H    0.150009
    34  H    0.161723
 Sum of Mulliken charges =  -0.00000

 Dipole moment (field-independent basis, Debye):
    X=              2.7514    Y=             -2.1089    Z=              3.7058  Tot=              5.0745
 Quadrupole moment (field-independent basis, Debye-Ang):
   XX=           -107.7228   YY=            -91.9865   ZZ=            -93.1044
   XY=              6.2250   XZ=             -7.9367   YZ=              0.4078

 Normal termination of Gaussian 16 at Thu May  6 14:22:56 2021.
