 Gaussian 16, Revision A.03,
 Gaussian 16:  EM64L-G16RevA.03 25-Dec-2016

 -------------
 #p 6-31g* mp2
 -------------

 ------------------------------------------------------
 Input file generated by CHIRIPA (05-May-2021 14:53:17)
 ------------------------------------------------------
 Symbolic Z-matrix:
 Charge =  0 Multiplicity = 1

                         Standard orientation:
 ---------------------------------------------------------------------
 Center     Atomic      Atomic             Coordinates (Angstroms)
 Number     Number       Type             X           Y           Z
 ---------------------------------------------------------------------
      1          6           0       -3.727757   -0.193604    0.035770
      2          6           0       -4.718300   -0.895190   -0.894061
      3          6           0       -5.090907   -2.297297   -0.411304
      4          1           0       -2.819941   -0.806094    0.123360
      5          1           0       -4.161800   -0.132192    1.043357
      6          1           0       -4.283088   -0.954026   -1.899916
      7          1           0       -5.623787   -0.280866   -0.979599
      8          1           0       -5.548787   -2.253643    0.582196
      9          1           0       -4.200471   -2.930628   -0.343351
     10          1           0       -5.799932   -2.780590   -1.090695
     11          6           0       -3.345597    1.209066   -0.433481
     12          6           0       -2.355054    1.910652    0.496350
     13          6           0       -1.982447    3.312759    0.013593
     14          1           0       -2.911554    1.147654   -1.441067
     15          1           0       -4.253412    1.821556   -0.521071
     16          1           0       -1.449567    1.296329    0.581888
     17          1           0       -2.790265    1.969489    1.502206
     18          1           0       -2.872883    3.946090   -0.054360
     19          1           0       -1.524567    3.269105   -0.979906
     20          1           0       -1.273422    3.796052    0.692984
     21          6           0        4.771929    0.624129   -0.979644
     22          6           0        3.912572    1.427053   -0.222451
     23          6           0        2.796478    0.872209    0.410818
     24          6           0        2.568816   -0.495352    0.265083
     25          6           0        3.406482   -1.321580   -0.482547
     26          6           0        4.516591   -0.745211   -1.107050
     27          1           0        5.636612    1.063506   -1.468178
     28          1           0        4.108398    2.490801   -0.121767
     29          1           0        2.114842    1.470638    1.002993
     30          1           0        3.185217   -2.378806   -0.564596
     31          1           0        5.182264   -1.371200   -1.694470
     32          7           0        1.390425   -1.094134    0.930857
     33          8           0        1.211853   -2.301633    0.786999
     34          8           0        0.667688   -0.344623    1.583942
 ---------------------------------------------------------------------

 SCF Done:  E(RHF) =  -669.536309625     A.U. after   15 cycles
 E2 =    -0.2091193244D+01 EUMP2 =    -0.67162750286935D+03

 The electronic state is 1-A.
 Alpha  occ. eigenvalues --  -20.61008 -20.61003 -15.86026 -11.31319 -11.27881
 Alpha  occ. eigenvalues --  -11.27875 -11.27613 -11.26882 -11.26871 -11.20823
 Alpha  occ. eigenvalues --  -11.20622 -11.20566 -11.20533 -11.20382 -11.20300
 Alpha  occ. eigenvalues --   -1.60063  -1.39620  -1.19487  -1.08897  -1.07568
 Alpha  occ. eigenvalues --   -1.04878  -1.02745  -0.95742  -0.95231  -0.86280
 Alpha  occ. eigenvalues --   -0.86246  -0.82577  -0.78784  -0.77640  -0.77337
 Alpha  occ. eigenvalues --   -0.72248  -0.71373  -0.70595  -0.65143  -0.64880
 Alpha  occ. eigenvalues --   -0.64199  -0.62225  -0.60147  -0.58596  -0.56826
 Alpha  occ. eigenvalues --   -0.55384  -0.54530  -0.53212  -0.52968  -0.51955
 Alpha  occ. eigenvalues --   -0.51646  -0.49180  -0.49008  -0.49006  -0.47117
 Alpha  occ. eigenvalues --   -0.45863  -0.45172  -0.44900  -0.44552  -0.42987
 Alpha  occ. eigenvalues --   -0.37464  -0.36478
 Alpha virt. eigenvalues --    0.04846   0.11172   0.16314   0.21203   0.23642
 Alpha virt. eigenvalues --    0.24834   0.27100   0.27481   0.27871   0.28710
 Alpha virt. eigenvalues --    0.28832   0.30808   0.31888   0.32162   0.32573

 Mulliken charges:
               1
     1  C   -0.300356
     2  C   -0.298910
     3  C   -0.475774
     4  H    0.161652
     5  H    0.149372
     6  H    0.149135
     7  H    0.148594
     8  H    0.154737
     9  H    0.159178
    10  H    0.156581
    11  C   -0.297554
    12  C   -0.308658
    13  C   -0.475206
    14  H    0.144989
    15  H    0.145379
    16  H    0.172113
    17  H    0.151714
    18  H    0.153199
    19  H    0.150240
    20  H    0.154722
    21  C   -0.170517
    22  C   -0.218532
    23  C   -0.170955
    24  C    0.157924
    25  C   -0.170870
    26  C   -0.218588
    27  H    0.226152
    28  H    0.224216
    29  H    0.276450
    30  H    0.275782
    31  H    0.223899
    32  N    0.488762
    33  O   -0.458807
    34  O   -0.460060
 Sum of Mulliken charges =  -0.00000

 Dipole moment (field-independent basis, Debye):
    X=              4.3994    Y=              1.9363    Z=             -2.2377  Tot=              5.3020
 Quadrupole moment (field-independent basis, Debye-Ang):
   XX=            -73.9163   YY=            -94.4261   ZZ=            -95.9318
   XY=              1.8118   XZ=             -6.4148   YZ=              4.0913

 Normal termination of Gaussian 16 at Thu May  6 02:48:04 2021.
