 Gaussian 16, Revision A.03,
 Gaussian 16:  EM64L-G16RevA.03 25-Dec-2016

 -------------
 #p 6-31g* mp2
 -------------

 ------------------------------------------------------
 Input file generated by CHIRIPA (05-May-2021 14:57:23)
 ------------------------------------------------------
 Symbolic Z-matrix:
 Charge =  0 Multiplicity = 1

                         Standard orientation:
 ---------------------------------------------------------------------
 Center     Atomic      Atomic             Coordinates (Angstroms)
 Number     Number       Type             X           Y           Z
 ---------------------------------------------------------------------
      1          6           0       -3.511586    2.561781    0.044045
      2          6           0       -4.848040    2.148998    0.039335
      3          6           0       -5.171058    0.789319    0.000830
      4          6           0       -4.127767   -0.134654   -0.032453
      5          6           0       -2.786518    0.245251   -0.028745
      6          6           0       -2.486897    1.610267    0.010050
      7          1           0       -3.269746    3.620085    0.074069
      8          1           0       -5.645896    2.885732    0.065681
      9          1           0       -6.197130    0.442084   -0.003686
     10          1           0       -2.012974   -0.512594   -0.055580
     11          1           0       -1.448091    1.927940    0.013617
     12          7           0       -4.457346   -1.576910   -0.073370
     13          8           0       -3.519802   -2.371149   -0.102209
     14          8           0       -5.646975   -1.885802   -0.075826
     15          6           0        1.598678   -0.561659    0.202084
     16          6           0        2.509063   -1.623600    0.201087
     17          6           0        3.882515   -1.381274    0.103835
     18          6           0        4.312699   -0.058711    0.008658
     19          6           0        3.430502    1.020648    0.007013
     20          6           0        2.061487    0.754754    0.105215
     21          1           0        0.533470   -0.759058    0.278002
     22          1           0        2.152500   -2.646960    0.276194
     23          1           0        4.609225   -2.184579    0.100736
     24          1           0        3.816080    2.030076   -0.069159
     25          1           0        1.356767    1.581443    0.105745
     26          7           0        5.764363    0.210304   -0.094801
     27          8           0        6.117913    1.384524   -0.177553
     28          8           0        6.521139   -0.758155   -0.091182
 ---------------------------------------------------------------------

 SCF Done:  E(RHF) =  -868.336471238     A.U. after   16 cycles
 E2 =    -0.2600096102D+01 EUMP2 =    -0.87093656733981D+03

 The electronic state is 1-A.
 Alpha  occ. eigenvalues --  -20.61582 -20.61557 -20.61059 -20.61049 -15.86630
 Alpha  occ. eigenvalues --  -15.86114 -11.32081 -11.31573 -11.28795 -11.28587
 Alpha  occ. eigenvalues --  -11.28377 -11.28204 -11.28106 -11.28013 -11.27797
 Alpha  occ. eigenvalues --  -11.27597 -11.27346 -11.27128  -1.60642  -1.60130
 Alpha  occ. eigenvalues --   -1.40197  -1.39681  -1.20255  -1.19768  -1.09621
 Alpha  occ. eigenvalues --   -1.09164  -1.05695  -1.05186  -0.96450  -0.95978
 Alpha  occ. eigenvalues --   -0.87082  -0.86594  -0.83299  -0.82806  -0.78350
 Alpha  occ. eigenvalues --   -0.77820  -0.72849  -0.72332  -0.71963  -0.71453
 Alpha  occ. eigenvalues --   -0.71408  -0.70889  -0.65916  -0.65742  -0.65432
 Alpha  occ. eigenvalues --   -0.65212  -0.63069  -0.62520  -0.56175  -0.55742
 Alpha  occ. eigenvalues --   -0.53979  -0.53803  -0.53503  -0.53277  -0.49614
 Alpha  occ. eigenvalues --   -0.49594  -0.49099  -0.49079  -0.45584  -0.45065
 Alpha  occ. eigenvalues --   -0.38201  -0.37771  -0.37285  -0.36775
 Alpha virt. eigenvalues --    0.04229   0.04721   0.10374   0.10870   0.15710
 Alpha virt. eigenvalues --    0.16158   0.16523   0.22324   0.23278   0.24748
 Alpha virt. eigenvalues --    0.27856   0.28836   0.30682   0.31297   0.33411

 Mulliken charges:
               1
     1  C   -0.170524
     2  C   -0.217982
     3  C   -0.168944
     4  C    0.161364
     5  C   -0.178350
     6  C   -0.220004
     7  H    0.228685
     8  H    0.227112
     9  H    0.278559
    10  H    0.273446
    11  H    0.218061
    12  N    0.487992
    13  O   -0.462867
    14  O   -0.456385
    15  C   -0.173482
    16  C   -0.219803
    17  C   -0.169822
    18  C    0.159163
    19  C   -0.170214
    20  C   -0.221967
    21  H    0.226383
    22  H    0.230231
    23  H    0.278060
    24  H    0.276008
    25  H    0.216052
    26  N    0.487903
    27  O   -0.460261
    28  O   -0.458412
 Sum of Mulliken charges =  -0.00000

 Dipole moment (field-independent basis, Debye):
    X=             -4.0795    Y=              4.0751    Z=              0.5071  Tot=              5.7884
 Quadrupole moment (field-independent basis, Debye-Ang):
   XX=           -151.8235   YY=           -101.1239   ZZ=           -106.6295
   XY=            -28.0931   XZ=              0.8897   YZ=             -0.4487

 Normal termination of Gaussian 16 at Thu May  6 11:20:21 2021.
