 Gaussian 16, Revision A.03,
 Gaussian 16:  EM64L-G16RevA.03 25-Dec-2016

 -------------
 #p 6-31g* mp2
 -------------

 ------------------------------------------------------
 Input file generated by CHIRIPA (05-May-2021 14:57:26)
 ------------------------------------------------------
 Symbolic Z-matrix:
 Charge =  0 Multiplicity = 1

                         Standard orientation:
 ---------------------------------------------------------------------
 Center     Atomic      Atomic             Coordinates (Angstroms)
 Number     Number       Type             X           Y           Z
 ---------------------------------------------------------------------
      1          6           0       -6.343406    0.243102    0.328356
      2          6           0       -5.930538   -1.023768   -0.097206
      3          6           0       -4.579326   -1.284523   -0.343741
      4          6           0       -3.663813   -0.250603   -0.153646
      5          6           0       -4.044035    1.022051    0.269524
      6          6           0       -5.400499    1.260175    0.510042
      7          1           0       -7.395101    0.436872    0.517533
      8          1           0       -6.660599   -1.815544   -0.239145
      9          1           0       -4.232229   -2.256079   -0.673927
     10          1           0       -3.292953    1.791271    0.402171
     11          1           0       -5.718259    2.245008    0.840462
     12          7           0       -2.230565   -0.514674   -0.411457
     13          8           0       -1.443686    0.413149   -0.236515
     14          8           0       -1.921203   -1.644474   -0.783589
     15          6           0        5.828946   -1.419235    0.093858
     16          6           0        5.886631   -0.256584   -0.681665
     17          6           0        4.823722    0.651583   -0.679813
     18          6           0        3.713550    0.364307    0.112828
     19          6           0        3.626290   -0.785411    0.896296
     20          6           0        4.700949   -1.679480    0.878979
     21          1           0        6.659203   -2.119246    0.086413
     22          1           0        6.761384   -0.051887   -1.292363
     23          1           0        4.842097    1.559310   -1.270672
     24          1           0        2.740961   -0.962188    1.494929
     25          1           0        4.653394   -2.581609    1.482259
     26          7           0        2.582076    1.318280    0.122974
     27          8           0        1.615268    1.042162    0.829853
     28          8           0        2.683460    2.324060   -0.576143
 ---------------------------------------------------------------------

 SCF Done:  E(RHF) =  -868.335986336     A.U. after   16 cycles
 E2 =    -0.2599977271D+01 EUMP2 =    -0.87093596360735D+03

 The electronic state is 1-A.
 Alpha  occ. eigenvalues --  -20.59953 -20.59822 -20.59608 -20.59472 -15.84931
 Alpha  occ. eigenvalues --  -15.84591 -11.30542 -11.30236 -11.27178 -11.27096
 Alpha  occ. eigenvalues --  -11.26952 -11.26870 -11.26814 -11.26672 -11.26242
 Alpha  occ. eigenvalues --  -11.26195 -11.25955 -11.25921  -1.58973  -1.58600
 Alpha  occ. eigenvalues --   -1.38512  -1.38148  -1.18745  -1.18442  -1.08102
 Alpha  occ. eigenvalues --   -1.07792  -1.04181  -1.03891  -0.94892  -0.94576
 Alpha  occ. eigenvalues --   -0.85569  -0.85279  -0.81716  -0.81406  -0.76721
 Alpha  occ. eigenvalues --   -0.76407  -0.71201  -0.70753  -0.70309  -0.69911
 Alpha  occ. eigenvalues --   -0.69850  -0.69565  -0.64389  -0.64191  -0.64094
 Alpha  occ. eigenvalues --   -0.63910  -0.61520  -0.61237  -0.54689  -0.54406
 Alpha  occ. eigenvalues --   -0.52505  -0.52277  -0.52201  -0.51996  -0.47984
 Alpha  occ. eigenvalues --   -0.47903  -0.47575  -0.47534  -0.43879  -0.43438
 Alpha  occ. eigenvalues --   -0.36750  -0.36445  -0.35798  -0.35504
 Alpha virt. eigenvalues --    0.05801   0.06162   0.11852   0.12146   0.17243
 Alpha virt. eigenvalues --    0.17587   0.21957   0.22201   0.27853   0.28089
 Alpha virt. eigenvalues --    0.28888   0.29130   0.31486   0.31717   0.33185

 Mulliken charges:
               1
     1  C   -0.171692
     2  C   -0.218783
     3  C   -0.171888
     4  C    0.158239
     5  C   -0.171371
     6  C   -0.218901
     7  H    0.223351
     8  H    0.220838
     9  H    0.273424
    10  H    0.280993
    11  H    0.222641
    12  N    0.486406
    13  O   -0.443942
    14  O   -0.469477
    15  C   -0.171820
    16  C   -0.218732
    17  C   -0.171498
    18  C    0.160121
    19  C   -0.168668
    20  C   -0.218648
    21  H    0.222268
    22  H    0.220180
    23  H    0.273715
    24  H    0.277988
    25  H    0.221105
    26  N    0.488485
    27  O   -0.447292
    28  O   -0.467044
 Sum of Mulliken charges =  -0.00000

 Dipole moment (field-independent basis, Debye):
    X=             -1.1302    Y=             -2.2723    Z=              0.9641  Tot=              2.7148
 Quadrupole moment (field-independent basis, Debye-Ang):
   XX=            -40.7167   YY=           -102.5167   ZZ=           -104.1714
   XY=            -10.9637   XZ=             -3.8285   YZ=             -1.5949

 Normal termination of Gaussian 16 at Thu May  6 03:36:52 2021.
