 Gaussian 16, Revision A.03,
 Gaussian 16:  EM64L-G16RevA.03 25-Dec-2016

 -------------
 #p 6-31g* mp2
 -------------

 ------------------------------------------------------
 Input file generated by CHIRIPA (05-May-2021 14:53:18)
 ------------------------------------------------------
 Symbolic Z-matrix:
 Charge =  0 Multiplicity = 1

                         Standard orientation:
 ---------------------------------------------------------------------
 Center     Atomic      Atomic             Coordinates (Angstroms)
 Number     Number       Type             X           Y           Z
 ---------------------------------------------------------------------
      1          6           0       -3.606716   -0.454880    0.322669
      2          6           0       -2.579649   -0.907012   -0.715934
      3          6           0       -1.244494   -1.311156   -0.089976
      4          1           0       -3.195900    0.390557    0.891362
      5          1           0       -3.770008   -1.267183    1.044398
      6          1           0       -2.419374   -0.094598   -1.436290
      7          1           0       -2.993034   -1.751347   -1.282350
      8          1           0       -1.383730   -2.137653    0.614380
      9          1           0       -0.806810   -0.471491    0.459565
     10          1           0       -0.525080   -1.630903   -0.850282
     11          6           0       -4.946606   -0.047650   -0.287731
     12          6           0       -5.973673    0.404482    0.750872
     13          6           0       -7.308828    0.808626    0.124914
     14          1           0       -4.783314    0.764653   -1.009460
     15          1           0       -5.357422   -0.893087   -0.856424
     16          1           0       -5.560288    1.248817    1.317287
     17          1           0       -6.133948   -0.407931    1.471227
     18          1           0       -7.746512   -0.031039   -0.424627
     19          1           0       -7.169593    1.635123   -0.579442
     20          1           0       -8.028242    1.128373    0.885220
     21          6           0        3.032207    2.695728   -0.166438
     22          6           0        4.207127    2.167654    0.378742
     23          6           0        4.389096    0.784397    0.468384
     24          6           0        3.371009   -0.045335    0.001124
     25          6           0        2.189091    0.450392   -0.547162
     26          6           0        2.028709    1.836925   -0.626839
     27          1           0        2.899234    3.771548   -0.232204
     28          1           0        4.988147    2.832214    0.737087
     29          1           0        5.288695    0.348750    0.885937
     30          1           0        1.428343   -0.237331   -0.896044
     31          1           0        1.115204    2.244223   -1.050706
     32          7           0        3.552224   -1.511462    0.090748
     33          8           0        2.640249   -2.221134   -0.327945
     34          8           0        4.602805   -1.923178    0.577993
 ---------------------------------------------------------------------

 SCF Done:  E(RHF) =  -669.535294850     A.U. after   15 cycles
 E2 =    -0.2091641701D+01 EUMP2 =    -0.67162693655043D+03

 The electronic state is 1-A.
 Alpha  occ. eigenvalues --  -20.60736 -20.60729 -15.85782 -11.31124 -11.27719
 Alpha  occ. eigenvalues --  -11.27638 -11.27468 -11.26731 -11.26716 -11.21792
 Alpha  occ. eigenvalues --  -11.21747 -11.21574 -11.21514 -11.21204 -11.21167
 Alpha  occ. eigenvalues --   -1.59806  -1.39360  -1.19311  -1.08713  -1.08599
 Alpha  occ. eigenvalues --   -1.04715  -1.03690  -0.96140  -0.95542  -0.87157
 Alpha  occ. eigenvalues --   -0.86106  -0.82380  -0.79756  -0.78410  -0.77420
 Alpha  occ. eigenvalues --   -0.72005  -0.71125  -0.70432  -0.65243  -0.64965
 Alpha  occ. eigenvalues --   -0.64730  -0.62128  -0.61066  -0.59476  -0.57739
 Alpha  occ. eigenvalues --   -0.55474  -0.55183  -0.53073  -0.53030  -0.52562
 Alpha  occ. eigenvalues --   -0.52514  -0.50056  -0.48759  -0.48757  -0.48059
 Alpha  occ. eigenvalues --   -0.46788  -0.45947  -0.45882  -0.44770  -0.43919
 Alpha  occ. eigenvalues --   -0.37301  -0.36307
 Alpha virt. eigenvalues --    0.05086   0.11315   0.16560   0.20848   0.22804
 Alpha virt. eigenvalues --    0.24021   0.26406   0.26767   0.27340   0.27793
 Alpha virt. eigenvalues --    0.29414   0.29743   0.31390   0.31618   0.31776

 Mulliken charges:
               1
     1  C   -0.298336
     2  C   -0.300146
     3  C   -0.484952
     4  H    0.147515
     5  H    0.152223
     6  H    0.145291
     7  H    0.155546
     8  H    0.164371
     9  H    0.149457
    10  H    0.169621
    11  C   -0.298111
    12  C   -0.299673
    13  C   -0.475724
    14  H    0.147595
    15  H    0.151020
    16  H    0.150995
    17  H    0.153152
    18  H    0.155950
    19  H    0.154397
    20  H    0.160631
    21  C   -0.170280
    22  C   -0.219165
    23  C   -0.170081
    24  C    0.155242
    25  C   -0.173028
    26  C   -0.223538
    27  H    0.225284
    28  H    0.223183
    29  H    0.275427
    30  H    0.287322
    31  H    0.223389
    32  N    0.487884
    33  O   -0.461971
    34  O   -0.460488
 Sum of Mulliken charges =  -0.00000

 Dipole moment (field-independent basis, Debye):
    X=             -0.6953    Y=              5.0362    Z=             -0.2852  Tot=              5.0919
 Quadrupole moment (field-independent basis, Debye-Ang):
   XX=            -96.0703   YY=            -94.6931   ZZ=            -94.7842
   XY=             19.2267   XZ=              0.6972   YZ=              0.3426

 Normal termination of Gaussian 16 at Wed May  5 20:27:55 2021.
