 Gaussian 16, Revision A.03,
 Gaussian 16:  EM64L-G16RevA.03 25-Dec-2016

 -------------
 #p 6-31g* mp2
 -------------

 ------------------------------------------------------
 Input file generated by CHIRIPA (05-May-2021 14:55:24)
 ------------------------------------------------------
 Symbolic Z-matrix:
 Charge =  0 Multiplicity = 1

                         Standard orientation:
 ---------------------------------------------------------------------
 Center     Atomic      Atomic             Coordinates (Angstroms)
 Number     Number       Type             X           Y           Z
 ---------------------------------------------------------------------
      1          6           0       -1.854264    1.680832   -0.425300
      2          6           0       -1.543018    0.398322    0.038181
      3          6           0       -2.547745   -0.559235    0.205984
      4          6           0       -3.858926   -0.198589   -0.100655
      5          6           0       -4.200741    1.070862   -0.564278
      6          6           0       -3.179795    2.012424   -0.724523
      7          1           0       -1.067468    2.418472   -0.552717
      8          1           0       -0.514470    0.138003    0.271349
      9          1           0       -2.334771   -1.559475    0.563167
     10          1           0       -5.235286    1.300859   -0.788412
     11          1           0       -3.424446    3.007666   -1.084639
     12          7           0       -4.931171   -1.203845    0.072989
     13          8           0       -6.078525   -0.861209   -0.204167
     14          8           0       -4.603939   -2.315367    0.482960
     15          6           0        4.248961    0.254050    0.733782
     16          6           0        2.942898    0.882946    0.247291
     17          6           0        2.024638    1.301721    1.395865
     18          1           0        4.017503   -0.620220    1.357501
     19          1           0        4.773589    0.970025    1.381501
     20          1           0        2.421555    0.166515   -0.400432
     21          1           0        3.177496    1.755708   -0.375499
     22          1           0        2.521861    2.035237    2.038767
     23          1           0        1.761625    0.437016    2.013693
     24          1           0        1.096856    1.748855    1.025527
     25          6           0        5.177491   -0.169798   -0.402842
     26          6           0        6.483554   -0.798694    0.083650
     27          6           0        7.401812   -1.217468   -1.064924
     28          1           0        4.652862   -0.885773   -1.050560
     29          1           0        5.408948    0.704472   -1.026560
     30          1           0        6.248955   -1.671454    0.706440
     31          1           0        7.004897   -0.082263    0.731373
     32          1           0        7.664827   -0.352764   -1.682752
     33          1           0        6.904590   -1.950986   -1.707827
     34          1           0        8.329595   -1.664603   -0.694586
 ---------------------------------------------------------------------

 SCF Done:  E(RHF) =  -669.535099306     A.U. after   15 cycles
 E2 =    -0.2091530016D+01 EUMP2 =    -0.67162662932183D+03

 The electronic state is 1-A.
 Alpha  occ. eigenvalues --  -20.60725 -20.60720 -15.85776 -11.31134 -11.27698
 Alpha  occ. eigenvalues --  -11.27681 -11.27437 -11.26723 -11.26645 -11.22688
 Alpha  occ. eigenvalues --  -11.22334 -11.22190 -11.22105 -11.21999 -11.21480
 Alpha  occ. eigenvalues --   -1.59800  -1.39354  -1.19300  -1.09204  -1.08701
 Alpha  occ. eigenvalues --   -1.04704  -1.04336  -0.96794  -0.95538  -0.87815
 Alpha  occ. eigenvalues --   -0.86097  -0.82368  -0.80412  -0.78958  -0.77418
 Alpha  occ. eigenvalues --   -0.71997  -0.71122  -0.70428  -0.65849  -0.64959
 Alpha  occ. eigenvalues --   -0.64756  -0.62158  -0.61668  -0.60151  -0.58369
 Alpha  occ. eigenvalues --   -0.56068  -0.55203  -0.53560  -0.53229  -0.53017
 Alpha  occ. eigenvalues --   -0.52695  -0.50707  -0.48759  -0.48752  -0.48710
 Alpha  occ. eigenvalues --   -0.47439  -0.46508  -0.46401  -0.44761  -0.44573
 Alpha  occ. eigenvalues --   -0.37281  -0.36297
 Alpha virt. eigenvalues --    0.05108   0.11309   0.16597   0.19408   0.22510
 Alpha virt. eigenvalues --    0.23901   0.25449   0.26027   0.26774   0.26880
 Alpha virt. eigenvalues --    0.28892   0.30095   0.30800   0.31410   0.31836

 Mulliken charges:
               1
     1  C   -0.174733
     2  C   -0.223556
     3  C   -0.172748
     4  C    0.158857
     5  C   -0.171371
     6  C   -0.218333
     7  H    0.225959
     8  H    0.234766
     9  H    0.275463
    10  H    0.275357
    11  H    0.223204
    12  N    0.488049
    13  O   -0.460582
    14  O   -0.460562
    15  C   -0.298649
    16  C   -0.303279
    17  C   -0.482978
    18  H    0.151401
    19  H    0.152065
    20  H    0.149845
    21  H    0.154053
    22  H    0.163409
    23  H    0.157578
    24  H    0.152118
    25  C   -0.298952
    26  C   -0.300326
    27  C   -0.476157
    28  H    0.150301
    29  H    0.150379
    30  H    0.153061
    31  H    0.152779
    32  H    0.155588
    33  H    0.155993
    34  H    0.162003
 Sum of Mulliken charges =  -0.00000

 Dipole moment (field-independent basis, Debye):
    X=              4.0413    Y=              3.5338    Z=             -0.5760  Tot=              5.3992
 Quadrupole moment (field-independent basis, Debye-Ang):
   XX=           -121.4082   YY=            -93.5648   ZZ=            -95.3666
   XY=            -16.4370   XZ=              3.9169   YZ=             -1.6868

 Normal termination of Gaussian 16 at Thu May  6 09:31:42 2021.
