 Gaussian 16, Revision A.03,
 Gaussian 16:  EM64L-G16RevA.03 25-Dec-2016

 -------------
 #p 6-31g* mp2
 -------------

 ------------------------------------------------------
 Input file generated by CHIRIPA (05-May-2021 14:57:23)
 ------------------------------------------------------
 Symbolic Z-matrix:
 Charge =  0 Multiplicity = 1

                         Standard orientation:
 ---------------------------------------------------------------------
 Center     Atomic      Atomic             Coordinates (Angstroms)
 Number     Number       Type             X           Y           Z
 ---------------------------------------------------------------------
      1          6           0        4.118863    2.507134    0.025748
      2          6           0        5.223516    1.657539    0.145959
      3          6           0        5.060505    0.269853    0.097969
      4          6           0        3.772840   -0.236401   -0.072079
      5          6           0        2.652497    0.583999   -0.194822
      6          6           0        2.839135    1.968602   -0.143959
      7          1           0        4.254671    3.583925    0.064144
      8          1           0        6.218538    2.072968    0.277845
      9          1           0        5.898263   -0.410882    0.188407
     10          1           0        1.672928    0.140350   -0.325353
     11          1           0        1.979421    2.625998   -0.237591
     12          7           0        3.587760   -1.703850   -0.124404
     13          8           0        2.442926   -2.124931   -0.275010
     14          8           0        4.591034   -2.405170   -0.013821
     15          6           0       -6.284494    0.366768   -0.203499
     16          6           0       -5.780776   -0.932346   -0.080644
     17          6           0       -4.407836   -1.150437    0.067755
     18          6           0       -3.563475   -0.041437    0.089263
     19          6           0       -4.034879    1.264953   -0.030795
     20          6           0       -5.411477    1.459344   -0.178227
     21          1           0       -7.352447    0.526982   -0.318404
     22          1           0       -6.456418   -1.782745   -0.099931
     23          1           0       -3.990994   -2.145533    0.164934
     24          1           0       -3.336564    2.092754   -0.007991
     25          1           0       -5.799854    2.469368   -0.273421
     26          7           0       -2.108068   -0.259776    0.245855
     27          8           0       -1.385121    0.734071    0.261784
     28          8           0       -1.717826   -1.420623    0.349697
 ---------------------------------------------------------------------

 SCF Done:  E(RHF) =  -868.339230619     A.U. after   16 cycles
 E2 =    -0.2599146155D+01 EUMP2 =    -0.87093837677448D+03

 The electronic state is 1-A.
 Alpha  occ. eigenvalues --  -20.61170 -20.61094 -20.59550 -20.59485 -15.86140
 Alpha  occ. eigenvalues --  -15.84567 -11.31404 -11.29921 -11.27990 -11.27920
 Alpha  occ. eigenvalues --  -11.27682 -11.26966 -11.26922 -11.26621 -11.26372
 Alpha  occ. eigenvalues --  -11.26303 -11.25659 -11.25468  -1.60175  -1.58605
 Alpha  occ. eigenvalues --   -1.39734  -1.38149  -1.19563  -1.18132  -1.08979
 Alpha  occ. eigenvalues --   -1.07556  -1.04950  -1.03511  -0.95831  -0.94369
 Alpha  occ. eigenvalues --   -0.86353  -0.84927  -0.82668  -0.81181  -0.77729
 Alpha  occ. eigenvalues --   -0.76201  -0.72359  -0.71479  -0.70784  -0.70672
 Alpha  occ. eigenvalues --   -0.69934  -0.69253  -0.65219  -0.64953  -0.63781
 Alpha  occ. eigenvalues --   -0.63526  -0.62298  -0.60818  -0.55457  -0.54091
 Alpha  occ. eigenvalues --   -0.53284  -0.53041  -0.51889  -0.51598  -0.49146
 Alpha  occ. eigenvalues --   -0.49075  -0.47573  -0.47521  -0.45158  -0.43556
 Alpha  occ. eigenvalues --   -0.37537  -0.36547  -0.36182  -0.35124
 Alpha virt. eigenvalues --    0.04801   0.06295   0.11109   0.12512   0.16312
 Alpha virt. eigenvalues --    0.17752   0.21242   0.22618   0.27167   0.28066
 Alpha virt. eigenvalues --    0.28582   0.29577   0.30836   0.32094   0.32378

 Mulliken charges:
               1
     1  C   -0.171812
     2  C   -0.219984
     3  C   -0.172117
     4  C    0.156303
     5  C   -0.175031
     6  C   -0.221884
     7  H    0.220366
     8  H    0.218312
     9  H    0.271733
    10  H    0.296802
    11  H    0.225995
    12  N    0.486753
    13  O   -0.451931
    14  O   -0.467827
    15  C   -0.170347
    16  C   -0.218580
    17  C   -0.170184
    18  C    0.158410
    19  C   -0.170792
    20  C   -0.218484
    21  H    0.226405
    22  H    0.225085
    23  H    0.278816
    24  H    0.272556
    25  H    0.223233
    26  N    0.489122
    27  O   -0.473497
    28  O   -0.447421
 Sum of Mulliken charges =  -0.00000

 Dipole moment (field-independent basis, Debye):
    X=             -5.0698    Y=              5.7012    Z=             -0.3696  Tot=              7.6383
 Quadrupole moment (field-independent basis, Debye-Ang):
   XX=            -60.6277   YY=           -103.2416   ZZ=           -106.6883
   XY=             17.2081   XZ=              2.8324   YZ=             -0.6949

 Normal termination of Gaussian 16 at Wed May  5 17:49:03 2021.
