 Gaussian 16, Revision A.03,
 Gaussian 16:  EM64L-G16RevA.03 25-Dec-2016

 -------------
 #p 6-31g* mp2
 -------------

 ------------------------------------------------------
 Input file generated by CHIRIPA (05-May-2021 14:51:14)
 ------------------------------------------------------
 Symbolic Z-matrix:
 Charge =  0 Multiplicity = 1

                         Standard orientation:
 ---------------------------------------------------------------------
 Center     Atomic      Atomic             Coordinates (Angstroms)
 Number     Number       Type             X           Y           Z
 ---------------------------------------------------------------------
      1          6           0        1.875673   -1.341644   -0.067431
      2          6           0        1.426074   -2.022685    1.225638
      3          6           0        0.223601   -2.944627    1.021000
      4          1           0        1.036813   -0.765970   -0.481990
      5          1           0        2.124731   -2.110977   -0.811401
      6          1           0        1.179259   -1.252304    1.967401
      7          1           0        2.266158   -2.596649    1.637268
      8          1           0        0.461551   -3.733978    0.300650
      9          1           0       -0.631523   -2.381995    0.632659
     10          1           0       -0.081061   -3.421057    1.958046
     11          6           0        3.076850   -0.416761    0.120969
     12          6           0        3.526449    0.264279   -1.172100
     13          6           0        4.728922    1.186221   -0.967462
     14          1           0        2.827792    0.352572    0.864939
     15          1           0        3.915710   -0.992435    0.535528
     16          1           0        2.686365    0.838244   -1.583730
     17          1           0        3.773264   -0.506101   -1.913863
     18          1           0        5.584046    0.623590   -0.579120
     19          1           0        4.490972    1.975573   -0.247112
     20          1           0        5.033584    1.662652   -1.904508
     21          6           0       -2.324548    1.516850    0.365431
     22          6           0       -0.840255    1.883944    0.375361
     23          6           0       -0.552619    3.161909    1.163944
     24          1           0       -2.898980    2.350171   -0.061825
     25          1           0       -2.672155    1.396002    1.400786
     26          1           0       -0.495215    2.002707   -0.659752
     27          1           0       -0.269269    1.049575    0.802468
     28          1           0       -0.869645    3.051170    2.205977
     29          1           0       -1.096875    4.009718    0.735449
     30          1           0        0.514325    3.405747    1.158020
     31          6           0       -2.627975    0.241555   -0.418969
     32          6           0       -4.112268   -0.125538   -0.428899
     33          6           0       -4.399904   -1.403504   -1.217482
     34          1           0       -2.280368    0.362403   -1.454325
     35          1           0       -2.053543   -0.591766    0.008286
     36          1           0       -4.683253    0.708831   -0.856005
     37          1           0       -4.457308   -0.244302    0.606214
     38          1           0       -3.855648   -2.251313   -0.788987
     39          1           0       -4.082878   -1.292764   -2.259515
     40          1           0       -5.466847   -1.647342   -1.211558
 ---------------------------------------------------------------------

 SCF Done:  E(RHF) =  -470.733017645     A.U. after   11 cycles
 E2 =    -0.1584608818D+01 EUMP2 =    -0.47231762646257D+03

 The electronic state is 1-A.
 Alpha  occ. eigenvalues --  -11.21698 -11.21645 -11.21619 -11.21575 -11.21478
 Alpha  occ. eigenvalues --  -11.21417 -11.21364 -11.21292 -11.21156 -11.21092
 Alpha  occ. eigenvalues --  -11.21089 -11.21056  -1.08523  -1.08396  -1.03596
 Alpha  occ. eigenvalues --   -1.03528  -0.96048  -0.95967  -0.87070  -0.86980
 Alpha  occ. eigenvalues --   -0.79667  -0.79592  -0.78397  -0.78154  -0.65319
 Alpha  occ. eigenvalues --   -0.64894  -0.61011  -0.60914  -0.59415  -0.59340
 Alpha  occ. eigenvalues --   -0.57673  -0.57571  -0.55436  -0.55168  -0.52735
 Alpha  occ. eigenvalues --   -0.52672  -0.52507  -0.52366  -0.50112  -0.49810
 Alpha  occ. eigenvalues --   -0.47972  -0.47937  -0.46771  -0.46654  -0.46147
 Alpha  occ. eigenvalues --   -0.45794  -0.45689  -0.45232  -0.43850  -0.43768
 Alpha virt. eigenvalues --    0.19544   0.22138   0.23724   0.24596   0.25334
 Alpha virt. eigenvalues --    0.26114   0.26809   0.27974   0.28180   0.29611
 Alpha virt. eigenvalues --    0.30826   0.31299   0.31881   0.32168   0.32332

 Mulliken charges:
               1
     1  C   -0.303336
     2  C   -0.300564
     3  C   -0.483297
     4  H    0.155437
     5  H    0.149557
     6  H    0.151518
     7  H    0.152371
     8  H    0.155941
     9  H    0.160890
    10  H    0.160172
    11  C   -0.298520
    12  C   -0.300082
    13  C   -0.475629
    14  H    0.149684
    15  H    0.149469
    16  H    0.152606
    17  H    0.151809
    18  H    0.155135
    19  H    0.154943
    20  H    0.160128
    21  C   -0.297438
    22  C   -0.306173
    23  C   -0.475623
    24  H    0.150145
    25  H    0.149694
    26  H    0.151973
    27  H    0.157850
    28  H    0.155464
    29  H    0.155703
    30  H    0.160043
    31  C   -0.308966
    32  C   -0.299027
    33  C   -0.476285
    34  H    0.149739
    35  H    0.158802
    36  H    0.152197
    37  H    0.152067
    38  H    0.155796
    39  H    0.155328
    40  H    0.160481
 Sum of Mulliken charges =  -0.00000

 Dipole moment (field-independent basis, Debye):
    X=             -0.0366    Y=              0.0127    Z=             -0.0101  Tot=              0.0401
 Quadrupole moment (field-independent basis, Debye-Ang):
   XX=            -85.2305   YY=            -85.1768   ZZ=            -84.3196
   XY=             -1.5261   XZ=             -0.2005   YZ=             -0.7673

 Normal termination of Gaussian 16 at Wed May  5 18:26:08 2021.
