 Gaussian 16, Revision A.03,
 Gaussian 16:  EM64L-G16RevA.03 25-Dec-2016

 -------------
 #p 6-31g* mp2
 -------------

 ------------------------------------------------------
 Input file generated by CHIRIPA (05-May-2021 14:55:22)
 ------------------------------------------------------
 Symbolic Z-matrix:
 Charge =  0 Multiplicity = 1

                         Standard orientation:
 ---------------------------------------------------------------------
 Center     Atomic      Atomic             Coordinates (Angstroms)
 Number     Number       Type             X           Y           Z
 ---------------------------------------------------------------------
      1          6           0        4.554361   -1.737616   -0.099026
      2          6           0        3.740832   -1.603689    1.030910
      3          6           0        2.894607   -0.499520    1.169701
      4          6           0        2.887147    0.456074    0.154775
      5          6           0        3.685879    0.350896   -0.982878
      6          6           0        4.524341   -0.761617   -1.100548
      7          1           0        5.208713   -2.598601   -0.198639
      8          1           0        3.762069   -2.360107    1.810285
      9          1           0        2.254382   -0.370905    2.033986
     10          1           0        3.642830    1.121321   -1.743147
     11          1           0        5.155046   -0.863013   -1.979169
     12          7           0        1.995396    1.629424    0.290528
     13          8           0        2.007296    2.457466   -0.617680
     14          8           0        1.301427    1.698837    1.302568
     15          6           0       -4.504133   -0.295461    0.274143
     16          6           0       -5.802402   -0.118153   -0.513923
     17          6           0       -7.034859   -0.038225    0.387441
     18          1           0       -4.574167   -1.206840    0.883593
     19          1           0       -4.392289    0.542286    0.976329
     20          1           0       -5.911073   -0.955263   -1.215388
     21          1           0       -5.729195    0.792806   -1.121713
     22          1           0       -6.952832    0.807271    1.078100
     23          1           0       -7.135743   -0.950730    0.983893
     24          1           0       -7.951796    0.088473   -0.196541
     25          6           0       -3.263210   -0.377028   -0.613091
     26          6           0       -1.964942   -0.554338    0.174974
     27          6           0       -0.732485   -0.634266   -0.726390
     28          1           0       -3.375055   -1.214776   -1.315277
     29          1           0       -3.193177    0.534350   -1.222541
     30          1           0       -2.038149   -1.465297    0.782764
     31          1           0       -1.856271    0.282773    0.876439
     32          1           0       -0.631601    0.278241   -1.322841
     33          1           0       -0.814512   -1.479761   -1.417049
     34          1           0        0.184452   -0.760962   -0.142409
 ---------------------------------------------------------------------

 SCF Done:  E(RHF) =  -669.535559797     A.U. after   15 cycles
 E2 =    -0.2092883921D+01 EUMP2 =    -0.67162844371779D+03

 The electronic state is 1-A.
 Alpha  occ. eigenvalues --  -20.60854 -20.60849 -15.85873 -11.31218 -11.27786
 Alpha  occ. eigenvalues --  -11.27781 -11.27531 -11.26817 -11.26803 -11.21201
 Alpha  occ. eigenvalues --  -11.20964 -11.20912 -11.20821 -11.20725 -11.20546
 Alpha  occ. eigenvalues --   -1.59905  -1.39464  -1.19404  -1.08800  -1.07926
 Alpha  occ. eigenvalues --   -1.04804  -1.03044  -0.95638  -0.95523  -0.86559
 Alpha  occ. eigenvalues --   -0.86199  -0.82472  -0.79121  -0.77733  -0.77521
 Alpha  occ. eigenvalues --   -0.72108  -0.71237  -0.70509  -0.65058  -0.64806
 Alpha  occ. eigenvalues --   -0.64545  -0.62152  -0.60422  -0.58917  -0.57145
 Alpha  occ. eigenvalues --   -0.55304  -0.54795  -0.53253  -0.52894  -0.52136
 Alpha  occ. eigenvalues --   -0.51937  -0.49453  -0.48866  -0.48865  -0.47441
 Alpha  occ. eigenvalues --   -0.46129  -0.45288  -0.45196  -0.44826  -0.43323
 Alpha  occ. eigenvalues --   -0.37334  -0.36392
 Alpha virt. eigenvalues --    0.04998   0.11160   0.16490   0.21366   0.23370
 Alpha virt. eigenvalues --    0.24714   0.27156   0.27254   0.27953   0.28109
 Alpha virt. eigenvalues --    0.28566   0.30907   0.31770   0.31905   0.32306

 Mulliken charges:
               1
     1  C   -0.170833
     2  C   -0.217696
     3  C   -0.174157
     4  C    0.160100
     5  C   -0.170811
     6  C   -0.218140
     7  H    0.225778
     8  H    0.223778
     9  H    0.275842
    10  H    0.275747
    11  H    0.223692
    12  N    0.492128
    13  O   -0.459868
    14  O   -0.460241
    15  C   -0.298341
    16  C   -0.299404
    17  C   -0.475516
    18  H    0.147313
    19  H    0.152178
    20  H    0.150263
    21  H    0.152809
    22  H    0.155903
    23  H    0.153915
    24  H    0.159089
    25  C   -0.298716
    26  C   -0.300484
    27  C   -0.482066
    28  H    0.146020
    29  H    0.152534
    30  H    0.145902
    31  H    0.165280
    32  H    0.162222
    33  H    0.149995
    34  H    0.155788
 Sum of Mulliken charges =  -0.00000

 Dipole moment (field-independent basis, Debye):
    X=              3.2680    Y=             -4.0004    Z=             -0.4516  Tot=              5.1853
 Quadrupole moment (field-independent basis, Debye-Ang):
   XX=            -77.9152   YY=            -97.6296   ZZ=            -91.5023
   XY=            -10.2435   XZ=             -2.2190   YZ=             -2.6964

 Normal termination of Gaussian 16 at Thu May  6 04:37:56 2021.
