 Gaussian 16, Revision A.03,
 Gaussian 16:  EM64L-G16RevA.03 25-Dec-2016

 -------------
 #p 6-31g* mp2
 -------------

 ------------------------------------------------------
 Input file generated by CHIRIPA (05-May-2021 14:57:26)
 ------------------------------------------------------
 Symbolic Z-matrix:
 Charge =  0 Multiplicity = 1

                         Standard orientation:
 ---------------------------------------------------------------------
 Center     Atomic      Atomic             Coordinates (Angstroms)
 Number     Number       Type             X           Y           Z
 ---------------------------------------------------------------------
      1          6           0       -2.516154    2.549849    0.267288
      2          6           0       -3.115775    1.579796    1.077209
      3          6           0       -2.985489    0.221477    0.772997
      4          6           0       -2.245181   -0.132896   -0.353791
      5          6           0       -1.635903    0.809988   -1.180253
      6          6           0       -1.779430    2.162532   -0.856876
      7          1           0       -2.622506    3.602781    0.511051
      8          1           0       -3.688506    1.877676    1.950874
      9          1           0       -3.439231   -0.550333    1.382790
     10          1           0       -1.071109    0.482328   -2.044582
     11          1           0       -1.312660    2.913705   -1.487677
     12          7           0       -2.100244   -1.567831   -0.685991
     13          8           0       -1.442853   -1.854100   -1.684251
     14          8           0       -2.646777   -2.379092    0.058182
     15          6           0        3.062817    0.570522   -1.999100
     16          6           0        2.401732   -0.648556   -1.816511
     17          6           0        1.957558   -1.032302   -0.547654
     18          6           0        2.192332   -0.168769    0.521216
     19          6           0        2.848033    1.052251    0.371372
     20          6           0        3.283469    1.415545   -0.906502
     21          1           0        3.404467    0.860681   -2.988280
     22          1           0        2.228989   -1.306810   -2.663213
     23          1           0        1.443161   -1.970401   -0.377999
     24          1           0        3.005679    1.687367    1.234618
     25          1           0        3.796603    2.362889   -1.045337
     26          7           0        1.726730   -0.564198    1.869271
     27          8           0        1.945851    0.214359    2.794728
     28          8           0        1.151487   -1.645205    1.974893
 ---------------------------------------------------------------------

 SCF Done:  E(RHF) =  -868.339263680     A.U. after   16 cycles
 E2 =    -0.2601295987D+01 EUMP2 =    -0.87094055966714D+03

 The electronic state is 1-A.
 Alpha  occ. eigenvalues --  -20.60847 -20.60752 -20.60624 -20.60594 -15.85834
 Alpha  occ. eigenvalues --  -15.85659 -11.31073 -11.31007 -11.27687 -11.27655
 Alpha  occ. eigenvalues --  -11.27587 -11.27453 -11.27386 -11.27382 -11.26686
 Alpha  occ. eigenvalues --  -11.26680 -11.26587 -11.26512  -1.59858  -1.59691
 Alpha  occ. eigenvalues --   -1.39420  -1.39241  -1.19250  -1.19198  -1.08666
 Alpha  occ. eigenvalues --   -1.08615  -1.04635  -1.04572  -0.95523  -0.95434
 Alpha  occ. eigenvalues --   -0.86039  -0.85985  -0.82369  -0.82239  -0.77430
 Alpha  occ. eigenvalues --   -0.77273  -0.72073  -0.71874  -0.71211  -0.70980
 Alpha  occ. eigenvalues --   -0.70366  -0.70289  -0.64909  -0.64840  -0.64646
 Alpha  occ. eigenvalues --   -0.64562  -0.61988  -0.61885  -0.55158  -0.55120
 Alpha  occ. eigenvalues --   -0.53143  -0.52827  -0.52684  -0.52639  -0.48838
 Alpha  occ. eigenvalues --   -0.48796  -0.48646  -0.48622  -0.44850  -0.44650
 Alpha  occ. eigenvalues --   -0.37337  -0.37150  -0.36280  -0.36078
 Alpha virt. eigenvalues --    0.05040   0.05283   0.11214   0.11632   0.16536
 Alpha virt. eigenvalues --    0.16749   0.21432   0.21727   0.27336   0.27586
 Alpha virt. eigenvalues --    0.28375   0.28628   0.31031   0.31189   0.32578

 Mulliken charges:
               1
     1  C   -0.169994
     2  C   -0.217576
     3  C   -0.166373
     4  C    0.156998
     5  C   -0.170161
     6  C   -0.218977
     7  H    0.225150
     8  H    0.225276
     9  H    0.278843
    10  H    0.271186
    11  H    0.220217
    12  N    0.489832
    13  O   -0.472215
    14  O   -0.451781
    15  C   -0.174772
    16  C   -0.222365
    17  C   -0.171678
    18  C    0.157095
    19  C   -0.171965
    20  C   -0.220969
    21  H    0.224135
    22  H    0.230966
    23  H    0.288033
    24  H    0.273306
    25  H    0.220592
    26  N    0.487594
    27  O   -0.463940
    28  O   -0.456459
 Sum of Mulliken charges =  -0.00000

 Dipole moment (field-independent basis, Debye):
    X=              0.9383    Y=              6.2113    Z=             -3.4285  Tot=              7.1565
 Quadrupole moment (field-independent basis, Debye-Ang):
   XX=            -94.2932   YY=           -103.3412   ZZ=           -107.7756
   XY=             -6.3303   XZ=            -14.4596   YZ=              0.3865

 Normal termination of Gaussian 16 at Wed May  5 22:49:34 2021.
