 Gaussian 16, Revision A.03,
 Gaussian 16:  EM64L-G16RevA.03 25-Dec-2016

 -------------
 #p 6-31g* mp2
 -------------

 ------------------------------------------------------
 Input file generated by CHIRIPA (05-May-2021 14:51:12)
 ------------------------------------------------------
 Symbolic Z-matrix:
 Charge =  0 Multiplicity = 1

                         Standard orientation:
 ---------------------------------------------------------------------
 Center     Atomic      Atomic             Coordinates (Angstroms)
 Number     Number       Type             X           Y           Z
 ---------------------------------------------------------------------
      1          6           0        3.577292   -0.305586   -0.205592
      2          6           0        4.778449   -1.198927    0.106097
      3          6           0        5.443442   -1.755921   -1.153004
      4          1           0        2.842562   -0.879504   -0.786742
      5          1           0        3.903417    0.524800   -0.847073
      6          1           0        4.450430   -2.026614    0.747934
      7          1           0        5.510320   -0.622873    0.686736
      8          1           0        5.798041   -0.941981   -1.793599
      9          1           0        4.732129   -2.353697   -1.732054
     10          1           0        6.299683   -2.391701   -0.907046
     11          6           0        2.901875    0.258820    1.043001
     12          6           0        1.700719    1.152161    0.731312
     13          6           0        1.035725    1.709155    1.990413
     14          1           0        2.575750   -0.571566    1.684482
     15          1           0        3.636606    0.832738    1.624150
     16          1           0        0.968847    0.576107    0.150673
     17          1           0        2.028738    1.979848    0.089475
     18          1           0        1.747039    2.306931    2.569462
     19          1           0        0.681126    0.895215    2.631008
     20          1           0        0.179484    2.344935    1.744455
     21          6           0       -2.880851    0.696140   -0.372428
     22          6           0       -1.922732    0.953722   -1.535890
     23          6           0       -1.212602    2.303580   -1.429148
     24          1           0       -3.626311    1.502230   -0.334305
     25          1           0       -2.320940    0.743282    0.571856
     26          1           0       -2.484023    0.904737   -2.477786
     27          1           0       -1.179582    0.146824   -1.571364
     28          1           0       -0.628215    2.359430   -0.505041
     29          1           0       -1.940068    3.121649   -1.416613
     30          1           0       -0.532593    2.467152   -2.270986
     31          6           0       -3.598316   -0.649374   -0.464981
     32          6           0       -4.556435   -0.906956    0.698481
     33          6           0       -5.266566   -2.256814    0.591739
     34          1           0       -4.158227   -0.696517   -1.409264
     35          1           0       -2.852856   -1.455463   -0.503103
     36          1           0       -5.299586   -0.100058    0.733955
     37          1           0       -3.995144   -0.857970    1.640377
     38          1           0       -4.539099   -3.074883    0.579204
     39          1           0       -5.850952   -2.312664   -0.332367
     40          1           0       -5.946575   -2.420386    1.433578
 ---------------------------------------------------------------------

 SCF Done:  E(RHF) =  -470.732359674     A.U. after   11 cycles
 E2 =    -0.1584011774D+01 EUMP2 =    -0.47231637144805D+03

 The electronic state is 1-A.
 Alpha  occ. eigenvalues --  -11.21633 -11.21625 -11.21601 -11.21578 -11.21438
 Alpha  occ. eigenvalues --  -11.21399 -11.21378 -11.21338 -11.21151 -11.21089
 Alpha  occ. eigenvalues --  -11.21074 -11.20932  -1.08487  -1.08405  -1.03633
 Alpha  occ. eigenvalues --   -1.03460  -0.96073  -0.95915  -0.87045  -0.86971
 Alpha  occ. eigenvalues --   -0.79668  -0.79554  -0.78295  -0.78226  -0.65201
 Alpha  occ. eigenvalues --   -0.64978  -0.61171  -0.60828  -0.59428  -0.59279
 Alpha  occ. eigenvalues --   -0.57797  -0.57451  -0.55315  -0.55167  -0.52753
 Alpha  occ. eigenvalues --   -0.52642  -0.52531  -0.52274  -0.49966  -0.49865
 Alpha  occ. eigenvalues --   -0.47952  -0.47874  -0.46695  -0.46565  -0.45868
 Alpha  occ. eigenvalues --   -0.45774  -0.45675  -0.45666  -0.43832  -0.43760
 Alpha virt. eigenvalues --    0.20463   0.23205   0.23517   0.24734   0.26016
 Alpha virt. eigenvalues --    0.26457   0.26834   0.27703   0.28307   0.29253
 Alpha virt. eigenvalues --    0.30564   0.30958   0.31607   0.31952   0.32148

 Mulliken charges:
               1
     1  C   -0.298238
     2  C   -0.299705
     3  C   -0.475724
     4  H    0.149311
     5  H    0.149798
     6  H    0.151882
     7  H    0.152053
     8  H    0.155277
     9  H    0.155188
    10  H    0.160337
    11  C   -0.297725
    12  C   -0.305416
    13  C   -0.480935
    14  H    0.149261
    15  H    0.149802
    16  H    0.156491
    17  H    0.153586
    18  H    0.156323
    19  H    0.155274
    20  H    0.163223
    21  C   -0.300414
    22  C   -0.300735
    23  C   -0.484284
    24  H    0.149773
    25  H    0.151085
    26  H    0.152114
    27  H    0.151527
    28  H    0.167356
    29  H    0.154056
    30  H    0.159711
    31  C   -0.298111
    32  C   -0.299662
    33  C   -0.475686
    34  H    0.149634
    35  H    0.149097
    36  H    0.152027
    37  H    0.151948
    38  H    0.155017
    39  H    0.155208
    40  H    0.160275
 Sum of Mulliken charges =  -0.00000

 Dipole moment (field-independent basis, Debye):
    X=              0.0346    Y=              0.0125    Z=              0.0179  Tot=              0.0409
 Quadrupole moment (field-independent basis, Debye-Ang):
   XX=            -84.5202   YY=            -85.0519   ZZ=            -85.2350
   XY=             -0.0365   XZ=              0.8555   YZ=             -0.5380

 Normal termination of Gaussian 16 at Thu May  6 00:44:16 2021.
