 Gaussian 16, Revision A.03,
 Gaussian 16:  EM64L-G16RevA.03 25-Dec-2016

 -------------
 #p 6-31g* mp2
 -------------

 ------------------------------------------------------
 Input file generated by CHIRIPA (05-May-2021 14:57:22)
 ------------------------------------------------------
 Symbolic Z-matrix:
 Charge =  0 Multiplicity = 1

                         Standard orientation:
 ---------------------------------------------------------------------
 Center     Atomic      Atomic             Coordinates (Angstroms)
 Number     Number       Type             X           Y           Z
 ---------------------------------------------------------------------
      1          6           0       -1.253431   -2.109876    1.180394
      2          6           0       -1.744893   -1.108078    2.023831
      3          6           0       -2.514538   -0.060713    1.508834
      4          6           0       -2.774664   -0.046282    0.139375
      5          6           0       -2.299188   -1.029715   -0.726692
      6          6           0       -1.531656   -2.067572   -0.189760
      7          1           0       -0.656373   -2.919801    1.588976
      8          1           0       -1.530399   -1.138368    3.088312
      9          1           0       -2.907524    0.727802    2.139091
     10          1           0       -2.529649   -0.972507   -1.783590
     11          1           0       -1.151292   -2.844224   -0.847164
     12          7           0       -3.588334    1.057483   -0.417440
     13          8           0       -3.803454    1.047391   -1.627505
     14          8           0       -3.995561    1.911807    0.366737
     15          6           0        2.324613   -2.185958   -0.892930
     16          6           0        1.580772   -1.183864   -1.524618
     17          6           0        1.747595    0.157077   -1.166011
     18          6           0        2.671106    0.461587   -0.167166
     19          6           0        3.427067   -0.514139    0.480731
     20          6           0        3.243765   -1.848492    0.105968
     21          1           0        2.188620   -3.225074   -1.177781
     22          1           0        0.866231   -1.443011   -2.300710
     23          1           0        1.184848    0.952882   -1.638691
     24          1           0        4.131819   -0.224900    1.250851
     25          1           0        3.822815   -2.624634    0.598258
     26          7           0        2.856436    1.877694    0.221027
     27          8           0        3.676415    2.119875    1.103989
     28          8           0        2.178211    2.718644   -0.365019
 ---------------------------------------------------------------------

 SCF Done:  E(RHF) =  -868.335628095     A.U. after   16 cycles
 E2 =    -0.2602769089D+01 EUMP2 =    -0.87093839718374D+03

 The electronic state is 1-A.
 Alpha  occ. eigenvalues --  -20.61048 -20.61027 -20.60976 -20.60950 -15.86097
 Alpha  occ. eigenvalues --  -15.86025 -11.31620 -11.31520 -11.28198 -11.28145
 Alpha  occ. eigenvalues --  -11.28144 -11.28036 -11.28027 -11.27853 -11.27309
 Alpha  occ. eigenvalues --  -11.27294 -11.27241 -11.27086  -1.60113  -1.60037
 Alpha  occ. eigenvalues --   -1.39661  -1.39589  -1.19822  -1.19689  -1.09219
 Alpha  occ. eigenvalues --   -1.09058  -1.05274  -1.05100  -0.96007  -0.95880
 Alpha  occ. eigenvalues --   -0.86691  -0.86487  -0.82845  -0.82711  -0.77867
 Alpha  occ. eigenvalues --   -0.77725  -0.72312  -0.72240  -0.71440  -0.71362
 Alpha  occ. eigenvalues --   -0.70963  -0.70802  -0.65494  -0.65406  -0.65329
 Alpha  occ. eigenvalues --   -0.65060  -0.62658  -0.62406  -0.55800  -0.55623
 Alpha  occ. eigenvalues --   -0.53980  -0.53376  -0.53237  -0.53010  -0.49088
 Alpha  occ. eigenvalues --   -0.49056  -0.49011  -0.48987  -0.45031  -0.44967
 Alpha  occ. eigenvalues --   -0.38209  -0.37464  -0.37242  -0.36084
 Alpha virt. eigenvalues --    0.04540   0.04922   0.10228   0.11476   0.15866
 Alpha virt. eigenvalues --    0.16499   0.19403   0.21869   0.25420   0.26893
 Alpha virt. eigenvalues --    0.28206   0.28547   0.30424   0.30548   0.32256

 Mulliken charges:
               1
     1  C   -0.167430
     2  C   -0.218067
     3  C   -0.169237
     4  C    0.160068
     5  C   -0.176705
     6  C   -0.212211
     7  H    0.223161
     8  H    0.225575
     9  H    0.278771
    10  H    0.272272
    11  H    0.213624
    12  N    0.488326
    13  O   -0.461843
    14  O   -0.456327
    15  C   -0.176782
    16  C   -0.211606
    17  C   -0.168868
    18  C    0.159270
    19  C   -0.171852
    20  C   -0.219722
    21  H    0.220992
    22  H    0.218810
    23  H    0.279842
    24  H    0.276275
    25  H    0.222802
    26  N    0.487559
    27  O   -0.460501
    28  O   -0.456195
 Sum of Mulliken charges =  -0.00000

 Dipole moment (field-independent basis, Debye):
    X=              2.1749    Y=             -8.6110    Z=              0.7428  Tot=              8.9125
 Quadrupole moment (field-independent basis, Debye-Ang):
   XX=           -123.0104   YY=           -109.4274   ZZ=            -97.8231
   XY=             -4.3011   XZ=             -6.7036   YZ=              0.3692

 Normal termination of Gaussian 16 at Fri May  7 03:18:37 2021.
