 Gaussian 16, Revision A.03,
 Gaussian 16:  EM64L-G16RevA.03 25-Dec-2016

 -------------
 #p 6-31g* mp2
 -------------

 ------------------------------------------------------
 Input file generated by CHIRIPA (05-May-2021 14:51:10)
 ------------------------------------------------------
 Symbolic Z-matrix:
 Charge =  0 Multiplicity = 1

                         Standard orientation:
 ---------------------------------------------------------------------
 Center     Atomic      Atomic             Coordinates (Angstroms)
 Number     Number       Type             X           Y           Z
 ---------------------------------------------------------------------
      1          6           0       -2.315770    1.183578    0.361710
      2          6           0       -1.266148    2.246950    0.036871
      3          6           0       -0.990544    3.184233    1.213024
      4          1           0       -3.248652    1.678695    0.664259
      5          1           0       -1.977976    0.597396    1.227551
      6          1           0       -1.605180    2.830055   -0.828959
      7          1           0       -0.335715    1.749245   -0.265124
      8          1           0       -0.628313    2.620066    2.078533
      9          1           0       -1.904991    3.707017    1.511496
     10          1           0       -0.237252    3.936466    0.958949
     11          6           0       -2.602147    0.238967   -0.804234
     12          6           0       -3.651769   -0.824404   -0.479395
     13          6           0       -3.927373   -1.761687   -1.655549
     14          1           0       -2.939941    0.825150   -1.670075
     15          1           0       -1.669265   -0.256150   -1.106783
     16          1           0       -4.582202   -0.326700   -0.177400
     17          1           0       -3.312737   -1.407510    0.386435
     18          1           0       -3.012926   -2.284472   -1.954020
     19          1           0       -4.289604   -1.197521   -2.521058
     20          1           0       -4.680666   -2.513921   -1.401473
     21          6           0        1.856451   -0.678945    0.689633
     22          6           0        1.332626   -2.055698    1.099685
     23          6           0        0.127167   -1.974499    2.036739
     24          1           0        2.128702   -0.113732    1.591498
     25          1           0        1.048172   -0.117439    0.200973
     26          1           0        2.142045   -2.614957    1.586189
     27          1           0        1.061769   -2.617771    0.196730
     28          1           0       -0.698605   -1.439495    1.556665
     29          1           0        0.387808   -1.436665    2.954019
     30          1           0       -0.231040   -2.969919    2.317254
     31          6           0        3.061466   -0.743600   -0.247110
     32          6           0        3.585292    0.633153   -0.657161
     33          6           0        4.790750    0.551954   -1.594215
     34          1           0        3.869746   -1.305106    0.241552
     35          1           0        2.789215   -1.308813   -1.148974
     36          1           0        3.856148    1.195224    0.245795
     37          1           0        2.775872    1.192411   -1.143665
     38          1           0        4.530108    0.014119   -2.511494
     39          1           0        5.616522    0.016949   -1.114141
     40          1           0        5.148957    1.547373   -1.874729
 ---------------------------------------------------------------------

 SCF Done:  E(RHF) =  -470.732748652     A.U. after   11 cycles
 E2 =    -0.1584888572D+01 EUMP2 =    -0.47231763722409D+03

 The electronic state is 1-A.
 Alpha  occ. eigenvalues --  -11.21675 -11.21642 -11.21627 -11.21582 -11.21459
 Alpha  occ. eigenvalues --  -11.21436 -11.21399 -11.21356 -11.21143 -11.21097
 Alpha  occ. eigenvalues --  -11.21093 -11.21043  -1.08524  -1.08426  -1.03589
 Alpha  occ. eigenvalues --   -1.03535  -0.96053  -0.95976  -0.87059  -0.87003
 Alpha  occ. eigenvalues --   -0.79656  -0.79607  -0.78347  -0.78240  -0.65436
 Alpha  occ. eigenvalues --   -0.64833  -0.60971  -0.60950  -0.59401  -0.59353
 Alpha  occ. eigenvalues --   -0.57672  -0.57588  -0.55452  -0.55168  -0.52732
 Alpha  occ. eigenvalues --   -0.52683  -0.52506  -0.52366  -0.50018  -0.49936
 Alpha  occ. eigenvalues --   -0.48016  -0.47908  -0.46789  -0.46668  -0.46142
 Alpha  occ. eigenvalues --   -0.45825  -0.45623  -0.45274  -0.43840  -0.43792
 Alpha virt. eigenvalues --    0.19208   0.22618   0.23692   0.24815   0.25283
 Alpha virt. eigenvalues --    0.25761   0.26907   0.27834   0.29047   0.29588
 Alpha virt. eigenvalues --    0.31123   0.31495   0.31648   0.31824   0.32238

 Mulliken charges:
               1
     1  C   -0.303615
     2  C   -0.305299
     3  C   -0.475522
     4  H    0.150351
     5  H    0.154291
     6  H    0.151895
     7  H    0.156751
     8  H    0.155930
     9  H    0.154990
    10  H    0.160215
    11  C   -0.300024
    12  C   -0.301938
    13  C   -0.475535
    14  H    0.150204
    15  H    0.149154
    16  H    0.152394
    17  H    0.153857
    18  H    0.154941
    19  H    0.155201
    20  H    0.160506
    21  C   -0.307969
    22  C   -0.298647
    23  C   -0.484268
    24  H    0.149785
    25  H    0.158342
    26  H    0.152492
    27  H    0.151577
    28  H    0.162924
    29  H    0.155239
    30  H    0.160824
    31  C   -0.297738
    32  C   -0.300736
    33  C   -0.475733
    34  H    0.149881
    35  H    0.149511
    36  H    0.152228
    37  H    0.152449
    38  H    0.155287
    39  H    0.155327
    40  H    0.160478
 Sum of Mulliken charges =  -0.00000

 Dipole moment (field-independent basis, Debye):
    X=              0.0094    Y=             -0.0008    Z=              0.0126  Tot=              0.0157
 Quadrupole moment (field-independent basis, Debye-Ang):
   XX=            -84.6013   YY=            -85.0000   ZZ=            -85.0473
   XY=             -0.7654   XZ=              1.1012   YZ=             -0.6967

 Normal termination of Gaussian 16 at Wed May  5 23:01:09 2021.
