 Gaussian 16, Revision A.03,
 Gaussian 16:  EM64L-G16RevA.03 25-Dec-2016

 -------------
 #p 6-31g* mp2
 -------------

 ------------------------------------------------------
 Input file generated by CHIRIPA (05-May-2021 14:57:24)
 ------------------------------------------------------
 Symbolic Z-matrix:
 Charge =  0 Multiplicity = 1

                         Standard orientation:
 ---------------------------------------------------------------------
 Center     Atomic      Atomic             Coordinates (Angstroms)
 Number     Number       Type             X           Y           Z
 ---------------------------------------------------------------------
      1          6           0        0.691457   -1.621560   -0.299504
      2          6           0        0.887325   -0.423778   -0.994827
      3          6           0        2.090338    0.278296   -0.874838
      4          6           0        3.080542   -0.248655   -0.047124
      5          6           0        2.915489   -1.439483    0.658550
      6          6           0        1.704378   -2.124703    0.523515
      7          1           0       -0.246217   -2.160402   -0.398558
      8          1           0        0.102434   -0.030658   -1.634708
      9          1           0        2.268527    1.207831   -1.401746
     10          1           0        3.716419   -1.806360    1.288891
     11          1           0        1.555049   -3.054680    1.064706
     12          7           0        4.358404    0.485678    0.087867
     13          8           0        5.215145    0.000322    0.823436
     14          8           0        4.479055    1.532699   -0.544451
     15          6           0       -2.069830    2.743768    0.368487
     16          6           0       -2.048658    2.152386   -0.898928
     17          6           0       -2.489575    0.837607   -1.076399
     18          6           0       -2.947286    0.140164    0.040455
     19          6           0       -2.980698    0.701711    1.315932
     20          6           0       -2.534962    2.017823    1.469930
     21          1           0       -1.725444    3.765638    0.497234
     22          1           0       -1.687959    2.713776   -1.756122
     23          1           0       -2.484053    0.355370   -2.046365
     24          1           0       -3.345828    0.116911    2.151461
     25          1           0       -2.552544    2.474540    2.455397
     26          7           0       -3.416615   -1.252440   -0.135001
     27          8           0       -3.815160   -1.845631    0.864961
     28          8           0       -3.377043   -1.724402   -1.269163
 ---------------------------------------------------------------------

 SCF Done:  E(RHF) =  -868.337439208     A.U. after   16 cycles
 E2 =    -0.2602357669D+01 EUMP2 =    -0.87093979687718D+03

 The electronic state is 1-A.
 Alpha  occ. eigenvalues --  -20.61932 -20.61916 -20.60824 -20.60810 -15.86954
 Alpha  occ. eigenvalues --  -15.85869 -11.32178 -11.31144 -11.28777 -11.28676
 Alpha  occ. eigenvalues --  -11.28362 -11.27720 -11.27710 -11.27665 -11.27612
 Alpha  occ. eigenvalues --  -11.27301 -11.26641 -11.26624  -1.61010  -1.59897
 Alpha  occ. eigenvalues --   -1.40561  -1.39454  -1.20337  -1.19288  -1.09734
 Alpha  occ. eigenvalues --   -1.08683  -1.05731  -1.04681  -0.96601  -0.95539
 Alpha  occ. eigenvalues --   -0.87118  -0.86078  -0.83438  -0.82383  -0.78527
 Alpha  occ. eigenvalues --   -0.77468  -0.73159  -0.72390  -0.72087  -0.71412
 Alpha  occ. eigenvalues --   -0.71221  -0.70317  -0.65979  -0.65705  -0.64930
 Alpha  occ. eigenvalues --   -0.64717  -0.63072  -0.62054  -0.56156  -0.55126
 Alpha  occ. eigenvalues --   -0.54146  -0.53793  -0.52967  -0.52669  -0.49944
 Alpha  occ. eigenvalues --   -0.49907  -0.48852  -0.48835  -0.45980  -0.44881
 Alpha  occ. eigenvalues --   -0.38302  -0.37446  -0.37096  -0.36194
 Alpha virt. eigenvalues --    0.03937   0.05081   0.10228   0.11400   0.15420
 Alpha virt. eigenvalues --    0.16621   0.20049   0.21904   0.25681   0.27115
 Alpha virt. eigenvalues --    0.28071   0.28584   0.30397   0.30930   0.31842

 Mulliken charges:
               1
     1  C   -0.178639
     2  C   -0.212128
     3  C   -0.174273
     4  C    0.158217
     5  C   -0.171958
     6  C   -0.218885
     7  H    0.236054
     8  H    0.218427
     9  H    0.270607
    10  H    0.275119
    11  H    0.226362
    12  N    0.488081
    13  O   -0.460155
    14  O   -0.463076
    15  C   -0.167823
    16  C   -0.218249
    17  C   -0.184784
    18  C    0.160031
    19  C   -0.169475
    20  C   -0.216597
    21  H    0.231347
    22  H    0.225687
    23  H    0.274078
    24  H    0.277863
    25  H    0.228289
    26  N    0.484970
    27  O   -0.455892
    28  O   -0.463199
 Sum of Mulliken charges =  -0.00000

 Dipole moment (field-independent basis, Debye):
    X=             -3.1078    Y=              2.4142    Z=              0.3907  Tot=              3.9547
 Quadrupole moment (field-independent basis, Debye-Ang):
   XX=           -143.0729   YY=            -99.8978   ZZ=            -98.4479
   XY=            -23.0015   XZ=             -3.3250   YZ=             -2.1650

 Normal termination of Gaussian 16 at Thu May  6 16:20:10 2021.
