 Gaussian 16, Revision A.03,
 Gaussian 16:  EM64L-G16RevA.03 25-Dec-2016

 -------------
 #p 6-31g* mp2
 -------------

 ------------------------------------------------------
 Input file generated by CHIRIPA (05-May-2021 14:53:17)
 ------------------------------------------------------
 Symbolic Z-matrix:
 Charge =  0 Multiplicity = 1

                         Standard orientation:
 ---------------------------------------------------------------------
 Center     Atomic      Atomic             Coordinates (Angstroms)
 Number     Number       Type             X           Y           Z
 ---------------------------------------------------------------------
      1          6           0        3.342108    0.880537   -0.166099
      2          6           0        4.340479    1.830313    0.496598
      3          6           0        4.064862    3.298662    0.171358
      4          1           0        3.371926    1.028385   -1.254307
      5          1           0        2.325631    1.144170    0.157423
      6          1           0        5.354888    1.564089    0.173003
      7          1           0        4.308418    1.680052    1.583341
      8          1           0        3.064350    3.586946    0.509691
      9          1           0        4.116766    3.470324   -0.908660
     10          1           0        4.790302    3.960057    0.655252
     11          6           0        3.604546   -0.590917    0.149618
     12          6           0        2.606176   -1.540693   -0.513079
     13          6           0        2.881792   -3.009041   -0.187838
     14          1           0        4.621024   -0.854549   -0.173903
     15          1           0        3.574728   -0.738765    1.237826
     16          1           0        2.638236   -1.390431   -1.599821
     17          1           0        1.591766   -1.274468   -0.189483
     18          1           0        2.829888   -3.180704    0.892180
     19          1           0        3.882304   -3.297326   -0.526171
     20          1           0        2.156352   -3.670437   -0.671732
     21          6           0       -1.068350   -2.015261    0.209398
     22          6           0       -1.847425   -1.643157    1.309899
     23          6           0       -2.762195   -0.590759    1.208905
     24          6           0       -2.872588    0.070758   -0.013183
     25          6           0       -2.110529   -0.276433   -1.127641
     26          6           0       -1.202153   -1.331917   -1.003721
     27          1           0       -0.360218   -2.833987    0.296758
     28          1           0       -1.745632   -2.172065    2.253265
     29          1           0       -3.377818   -0.281912    2.044992
     30          1           0       -2.234338    0.269634   -2.054949
     31          1           0       -0.598423   -1.618720   -1.860049
     32          7           0       -3.837630    1.186518   -0.132237
     33          8           0       -3.916027    1.753420   -1.219947
     34          8           0       -4.497358    1.473021    0.864412
 ---------------------------------------------------------------------

 SCF Done:  E(RHF) =  -669.534528458     A.U. after   15 cycles
 E2 =    -0.2093085370D+01 EUMP2 =    -0.67162761382765D+03

 The electronic state is 1-A.
 Alpha  occ. eigenvalues --  -20.60784 -20.60778 -15.85837 -11.31214 -11.27787
 Alpha  occ. eigenvalues --  -11.27768 -11.27487 -11.26796 -11.26768 -11.22387
 Alpha  occ. eigenvalues --  -11.22151 -11.22001 -11.21928 -11.21803 -11.21279
 Alpha  occ. eigenvalues --   -1.59859  -1.39412  -1.19394  -1.09023  -1.08774
 Alpha  occ. eigenvalues --   -1.04794  -1.04143  -0.96596  -0.95615  -0.87603
 Alpha  occ. eigenvalues --   -0.86193  -0.82444  -0.80233  -0.78780  -0.77484
 Alpha  occ. eigenvalues --   -0.72055  -0.71183  -0.70520  -0.65654  -0.65036
 Alpha  occ. eigenvalues --   -0.64789  -0.62142  -0.61539  -0.60015  -0.58195
 Alpha  occ. eigenvalues --   -0.55913  -0.55211  -0.53320  -0.53185  -0.52975
 Alpha  occ. eigenvalues --   -0.52871  -0.50515  -0.48820  -0.48810  -0.48521
 Alpha  occ. eigenvalues --   -0.47250  -0.46325  -0.46214  -0.44815  -0.44373
 Alpha  occ. eigenvalues --   -0.37287  -0.36379
 Alpha virt. eigenvalues --    0.05012   0.11183   0.16443   0.19851   0.22655
 Alpha virt. eigenvalues --    0.23971   0.25845   0.26321   0.26723   0.27793
 Alpha virt. eigenvalues --    0.29534   0.30342   0.30934   0.31306   0.31933

 Mulliken charges:
               1
     1  C   -0.299563
     2  C   -0.300106
     3  C   -0.476269
     4  H    0.149564
     5  H    0.152350
     6  H    0.152121
     7  H    0.152246
     8  H    0.157253
     9  H    0.155678
    10  H    0.161444
    11  C   -0.296914
    12  C   -0.312059
    13  C   -0.479052
    14  H    0.150866
    15  H    0.149945
    16  H    0.150289
    17  H    0.159103
    18  H    0.155323
    19  H    0.162031
    20  H    0.151804
    21  C   -0.175230
    22  C   -0.220525
    23  C   -0.171052
    24  C    0.158273
    25  C   -0.171845
    26  C   -0.217329
    27  H    0.232686
    28  H    0.223752
    29  H    0.275645
    30  H    0.275845
    31  H    0.226345
    32  N    0.488063
    33  O   -0.460245
    34  O   -0.460436
 Sum of Mulliken charges =  -0.00000

 Dipole moment (field-independent basis, Debye):
    X=              3.4671    Y=             -3.8438    Z=              0.4417  Tot=              5.1952
 Quadrupole moment (field-independent basis, Debye-Ang):
   XX=           -114.0580   YY=            -97.2273   ZZ=            -89.6124
   XY=             12.0026   XZ=             -3.1775   YZ=             -0.4766

 Normal termination of Gaussian 16 at Thu May  6 09:07:02 2021.
