 Gaussian 16, Revision A.03,
 Gaussian 16:  EM64L-G16RevA.03 25-Dec-2016

 -------------
 #p 6-31g* mp2
 -------------

 ------------------------------------------------------
 Input file generated by CHIRIPA (05-May-2021 14:51:08)
 ------------------------------------------------------
 Symbolic Z-matrix:
 Charge =  0 Multiplicity = 1

                         Standard orientation:
 ---------------------------------------------------------------------
 Center     Atomic      Atomic             Coordinates (Angstroms)
 Number     Number       Type             X           Y           Z
 ---------------------------------------------------------------------
      1          6           0        2.424570    0.947504    0.296810
      2          6           0        2.123751    2.410324   -0.031292
      3          6           0        0.860607    2.923672    0.660614
      4          1           0        1.566137    0.328311    0.002464
      5          1           0        2.530901    0.837416    1.384913
      6          1           0        2.019388    2.517875   -1.118562
      7          1           0        2.983077    3.026083    0.263693
      8          1           0        0.958205    2.845295    1.748241
      9          1           0       -0.010960    2.334200    0.358132
     10          1           0        0.664377    3.971363    0.412223
     11          6           0        3.684348    0.419845   -0.387488
     12          6           0        3.985167   -1.042975   -0.059386
     13          6           0        5.248311   -1.556324   -0.751292
     14          1           0        3.578017    0.529932   -1.475591
     15          1           0        4.542780    1.039038   -0.093143
     16          1           0        3.125841   -1.658734   -0.354371
     17          1           0        4.089529   -1.150527    1.027884
     18          1           0        6.119877   -0.966851   -0.448810
     19          1           0        5.150713   -1.477946   -1.838919
     20          1           0        5.444541   -2.604015   -0.502901
     21          6           0       -2.627353   -1.151501    0.472129
     22          6           0       -1.156552   -1.179242    0.055045
     23          6           0       -0.314954   -2.119697    0.918209
     24          1           0       -2.697581   -0.846301    1.525157
     25          1           0       -3.037083   -2.169394    0.413723
     26          1           0       -0.750091   -0.161372    0.112895
     27          1           0       -1.089829   -1.484226   -0.997166
     28          1           0       -0.693430   -3.144906    0.852614
     29          1           0       -0.351763   -1.814535    1.968981
     30          1           0        0.733049   -2.124111    0.602725
     31          6           0       -3.481565   -0.215847   -0.381451
     32          6           0       -4.952366   -0.188107    0.035633
     33          6           0       -5.793963    0.752349   -0.827530
     34          1           0       -3.071835    0.802045   -0.323044
     35          1           0       -3.411336   -0.521048   -1.434478
     36          1           0       -5.019089    0.116878    1.087844
     37          1           0       -5.358826   -1.205977   -0.022215
     38          1           0       -5.757155    0.447187   -1.878303
     39          1           0       -5.415488    1.777558   -0.761936
     40          1           0       -6.841967    0.756763   -0.512047
 ---------------------------------------------------------------------

 SCF Done:  E(RHF) =  -470.732552923     A.U. after   11 cycles
 E2 =    -0.1584455792D+01 EUMP2 =    -0.47231700871497D+03

 The electronic state is 1-A.
 Alpha  occ. eigenvalues --  -11.21623 -11.21608 -11.21606 -11.21606 -11.21418
 Alpha  occ. eigenvalues --  -11.21384 -11.21358 -11.21301 -11.21118 -11.21081
 Alpha  occ. eigenvalues --  -11.21071 -11.21037  -1.08475  -1.08403  -1.03565
 Alpha  occ. eigenvalues --   -1.03523  -0.96018  -0.95959  -0.87012  -0.86997
 Alpha  occ. eigenvalues --   -0.79694  -0.79534  -0.78364  -0.78155  -0.65214
 Alpha  occ. eigenvalues --   -0.64960  -0.61076  -0.60817  -0.59374  -0.59350
 Alpha  occ. eigenvalues --   -0.57700  -0.57523  -0.55322  -0.55224  -0.52767
 Alpha  occ. eigenvalues --   -0.52620  -0.52443  -0.52380  -0.49945  -0.49920
 Alpha  occ. eigenvalues --   -0.48121  -0.47792  -0.46882  -0.46519  -0.45992
 Alpha  occ. eigenvalues --   -0.45772  -0.45739  -0.45233  -0.43808  -0.43753
 Alpha virt. eigenvalues --    0.20685   0.22362   0.23562   0.23987   0.25737
 Alpha virt. eigenvalues --    0.26181   0.26840   0.27228   0.28824   0.29180
 Alpha virt. eigenvalues --    0.30248   0.31470   0.31590   0.31919   0.32455

 Mulliken charges:
               1
     1  C   -0.308178
     2  C   -0.299216
     3  C   -0.479854
     4  H    0.161700
     5  H    0.149045
     6  H    0.151827
     7  H    0.151997
     8  H    0.155252
     9  H    0.157699
    10  H    0.160612
    11  C   -0.297667
    12  C   -0.303726
    13  C   -0.475528
    14  H    0.149259
    15  H    0.149603
    16  H    0.154968
    17  H    0.152362
    18  H    0.155373
    19  H    0.155186
    20  H    0.160392
    21  C   -0.297298
    22  C   -0.308733
    23  C   -0.481328
    24  H    0.150017
    25  H    0.149633
    26  H    0.159129
    27  H    0.151151
    28  H    0.155154
    29  H    0.155732
    30  H    0.165826
    31  C   -0.298911
    32  C   -0.299645
    33  C   -0.475770
    34  H    0.149460
    35  H    0.149547
    36  H    0.152165
    37  H    0.152003
    38  H    0.155093
    39  H    0.155368
    40  H    0.160302
 Sum of Mulliken charges =  -0.00000

 Dipole moment (field-independent basis, Debye):
    X=              0.0071    Y=             -0.0041    Z=              0.0063  Tot=              0.0103
 Quadrupole moment (field-independent basis, Debye-Ang):
   XX=            -85.7726   YY=            -84.8271   ZZ=            -84.1766
   XY=              1.2135   XZ=              0.5563   YZ=              0.8583

 Normal termination of Gaussian 16 at Thu May  6 02:07:19 2021.
