 Gaussian 16, Revision A.03,
 Gaussian 16:  EM64L-G16RevA.03 25-Dec-2016

 -------------
 #p 6-31g* mp2
 -------------

 ------------------------------------------------------
 Input file generated by CHIRIPA (05-May-2021 14:57:27)
 ------------------------------------------------------
 Symbolic Z-matrix:
 Charge =  0 Multiplicity = 1

                         Standard orientation:
 ---------------------------------------------------------------------
 Center     Atomic      Atomic             Coordinates (Angstroms)
 Number     Number       Type             X           Y           Z
 ---------------------------------------------------------------------
      1          6           0        2.701424    2.543550    0.828880
      2          6           0        2.019653    2.239746   -0.354088
      3          6           0        2.128209    0.970564   -0.930232
      4          6           0        2.930793    0.024977   -0.293825
      5          6           0        3.622464    0.297261    0.885472
      6          6           0        3.499247    1.573049    1.443800
      7          1           0        2.611400    3.532047    1.269522
      8          1           0        1.399342    2.991476   -0.833839
      9          1           0        1.611352    0.708542   -1.845448
     10          1           0        4.233324   -0.472904    1.340570
     11          1           0        4.029866    1.806176    2.362571
     12          7           0        3.053477   -1.322146   -0.894332
     13          8           0        3.766884   -2.137646   -0.314120
     14          8           0        2.433906   -1.537013   -1.933852
     15          6           0       -1.411840   -1.402469    1.863570
     16          6           0       -2.660364   -0.915200    2.263921
     17          6           0       -3.499040   -0.273320    1.347865
     18          6           0       -3.055465   -0.135293    0.033529
     19          6           0       -1.817105   -0.610017   -0.395880
     20          6           0       -0.994931   -1.248592    0.537286
     21          1           0       -0.766746   -1.899814    2.581829
     22          1           0       -2.986749   -1.033289    3.293276
     23          1           0       -4.470523    0.113396    1.630865
     24          1           0       -1.519229   -0.477405   -1.428886
     25          1           0       -0.025827   -1.626017    0.223545
     26          7           0       -3.934600    0.542489   -0.945314
     27          8           0       -3.520608    0.651517   -2.097427
     28          8           0       -5.021010    0.951873   -0.541886
 ---------------------------------------------------------------------

 SCF Done:  E(RHF) =  -868.338763420     A.U. after   16 cycles
 E2 =    -0.2600239469D+01 EUMP2 =    -0.87093900288811D+03

 The electronic state is 1-A.
 Alpha  occ. eigenvalues --  -20.61653 -20.61648 -20.60815 -20.60809 -15.86679
 Alpha  occ. eigenvalues --  -15.85863 -11.31872 -11.31156 -11.28410 -11.28396
 Alpha  occ. eigenvalues --  -11.28063 -11.27719 -11.27675 -11.27408 -11.27368
 Alpha  occ. eigenvalues --  -11.27311 -11.26729 -11.26632  -1.60737  -1.59893
 Alpha  occ. eigenvalues --   -1.40288  -1.39448  -1.20017  -1.19311  -1.09440
 Alpha  occ. eigenvalues --   -1.08718  -1.05375  -1.04691  -0.96301  -0.95567
 Alpha  occ. eigenvalues --   -0.86783  -0.86096  -0.83123  -0.82394  -0.78211
 Alpha  occ. eigenvalues --   -0.77458  -0.72880  -0.72100  -0.72071  -0.71218
 Alpha  occ. eigenvalues --   -0.71097  -0.70410  -0.65654  -0.65352  -0.64955
 Alpha  occ. eigenvalues --   -0.64678  -0.62724  -0.62030  -0.55857  -0.55193
 Alpha  occ. eigenvalues --   -0.53757  -0.53448  -0.53015  -0.52764  -0.49664
 Alpha  occ. eigenvalues --   -0.49629  -0.48842  -0.48833  -0.45709  -0.44869
 Alpha  occ. eigenvalues --   -0.37994  -0.37286  -0.37029  -0.36215
 Alpha virt. eigenvalues --    0.04259   0.05065   0.10635   0.11351   0.15827
 Alpha virt. eigenvalues --    0.16578   0.20558   0.21528   0.25918   0.27075
 Alpha virt. eigenvalues --    0.27710   0.28712   0.30645   0.30793   0.31639

 Mulliken charges:
               1
     1  C   -0.169894
     2  C   -0.216778
     3  C   -0.174114
     4  C    0.152987
     5  C   -0.172950
     6  C   -0.218498
     7  H    0.228842
     8  H    0.229545
     9  H    0.276227
    10  H    0.275564
    11  H    0.225013
    12  N    0.485737
    13  O   -0.457917
    14  O   -0.461052
    15  C   -0.171662
    16  C   -0.218765
    17  C   -0.172130
    18  C    0.158186
    19  C   -0.174639
    20  C   -0.218791
    21  H    0.226573
    22  H    0.222583
    23  H    0.274630
    24  H    0.276186
    25  H    0.229623
    26  N    0.487841
    27  O   -0.461442
    28  O   -0.460905
 Sum of Mulliken charges =  -0.00000

 Dipole moment (field-independent basis, Debye):
    X=              2.8282    Y=              2.4829    Z=              5.6012  Tot=              6.7481
 Quadrupole moment (field-independent basis, Debye-Ang):
   XX=           -123.0704   YY=           -104.3106   ZZ=           -101.1417
   XY=             19.7883   XZ=             -4.1967   YZ=             -2.5023

 Normal termination of Gaussian 16 at Fri May  7 02:04:15 2021.
