 Gaussian 16, Revision A.03,
 Gaussian 16:  EM64L-G16RevA.03 25-Dec-2016

 -------------
 #p 6-31g* mp2
 -------------

 ------------------------------------------------------
 Input file generated by CHIRIPA (05-May-2021 14:51:14)
 ------------------------------------------------------
 Symbolic Z-matrix:
 Charge =  0 Multiplicity = 1

                         Standard orientation:
 ---------------------------------------------------------------------
 Center     Atomic      Atomic             Coordinates (Angstroms)
 Number     Number       Type             X           Y           Z
 ---------------------------------------------------------------------
      1          6           0       -2.484005   -0.985929    0.580031
      2          6           0       -1.357497   -1.795308   -0.063298
      3          6           0       -0.736154   -2.810304    0.896655
      4          1           0       -2.093343   -0.464617    1.464656
      5          1           0       -3.260918   -1.674261    0.940585
      6          1           0       -0.583585   -1.105569   -0.423767
      7          1           0       -1.750839   -2.314602   -0.946604
      8          1           0       -1.491284   -3.521220    1.247337
      9          1           0       -0.317398   -2.305318    1.773145
     10          1           0        0.066913   -3.377854    0.416207
     11          6           0       -3.115136    0.033001   -0.367167
     12          6           0       -4.241644    0.842379    0.276162
     13          6           0       -4.862987    1.857376   -0.683791
     14          1           0       -2.338222    0.721333   -0.727721
     15          1           0       -3.505797   -0.488312   -1.251792
     16          1           0       -3.848301    1.361673    1.159469
     17          1           0       -5.015555    0.152641    0.636631
     18          1           0       -5.281742    1.352389   -1.560281
     19          1           0       -4.107856    2.568291   -1.034473
     20          1           0       -5.666054    2.424926   -0.203343
     21          6           0        2.680328   -0.130252   -0.554884
     22          6           0        3.103501   -1.451675    0.087571
     23          6           0        2.858734   -2.656218   -0.821803
     24          1           0        1.614956   -0.182387   -0.817961
     25          1           0        3.228887    0.003351   -1.497554
     26          1           0        2.555326   -1.582083    1.029438
     27          1           0        4.167944   -1.396318    0.349324
     28          1           0        3.418221   -2.552763   -1.757149
     29          1           0        1.796441   -2.739584   -1.073170
     30          1           0        3.168346   -3.590337   -0.342825
     31          6           0        2.918813    1.083180    0.342020
     32          6           0        2.495639    2.404603   -0.300435
     33          6           0        2.740408    3.609146    0.608939
     34          1           0        2.370253    0.949577    1.284690
     35          1           0        3.984184    1.135315    0.605097
     36          1           0        1.431197    2.349247   -0.562187
     37          1           0        3.043814    2.535011   -1.242303
     38          1           0        3.802699    3.692512    0.860306
     39          1           0        2.180919    3.505692    1.544285
     40          1           0        2.430794    4.543266    0.129961
 ---------------------------------------------------------------------

 SCF Done:  E(RHF) =  -470.732550695     A.U. after   11 cycles
 E2 =    -0.1584302711D+01 EUMP2 =    -0.47231685340601D+03

 The electronic state is 1-A.
 Alpha  occ. eigenvalues --  -11.21660 -11.21641 -11.21637 -11.21585 -11.21459
 Alpha  occ. eigenvalues --  -11.21424 -11.21399 -11.21360 -11.21104 -11.21097
 Alpha  occ. eigenvalues --  -11.21077 -11.21042  -1.08503  -1.08431  -1.03625
 Alpha  occ. eigenvalues --   -1.03498  -0.96072  -0.95949  -0.87085  -0.86968
 Alpha  occ. eigenvalues --   -0.79663  -0.79594  -0.78356  -0.78206  -0.65315
 Alpha  occ. eigenvalues --   -0.64928  -0.61222  -0.60790  -0.59373  -0.59336
 Alpha  occ. eigenvalues --   -0.57692  -0.57560  -0.55355  -0.55244  -0.52745
 Alpha  occ. eigenvalues --   -0.52655  -0.52521  -0.52328  -0.49996  -0.49904
 Alpha  occ. eigenvalues --   -0.47946  -0.47910  -0.46894  -0.46529  -0.46039
 Alpha  occ. eigenvalues --   -0.45822  -0.45752  -0.45350  -0.43823  -0.43795
 Alpha virt. eigenvalues --    0.19815   0.23002   0.23689   0.25031   0.25519
 Alpha virt. eigenvalues --    0.26250   0.26782   0.27532   0.28812   0.29453
 Alpha virt. eigenvalues --    0.30702   0.31131   0.31517   0.31870   0.32338

 Mulliken charges:
               1
     1  C   -0.297763
     2  C   -0.308228
     3  C   -0.480404
     4  H    0.149376
     5  H    0.150009
     6  H    0.158206
     7  H    0.152342
     8  H    0.155390
     9  H    0.154724
    10  H    0.166265
    11  C   -0.298254
    12  C   -0.299706
    13  C   -0.475753
    14  H    0.148856
    15  H    0.149965
    16  H    0.151935
    17  H    0.152104
    18  H    0.155286
    19  H    0.155247
    20  H    0.160404
    21  C   -0.305384
    22  C   -0.300597
    23  C   -0.479990
    24  H    0.155521
    25  H    0.149844
    26  H    0.154170
    27  H    0.151992
    28  H    0.155140
    29  H    0.159689
    30  H    0.159827
    31  C   -0.297966
    32  C   -0.299462
    33  C   -0.475707
    34  H    0.148975
    35  H    0.149961
    36  H    0.150937
    37  H    0.152269
    38  H    0.155409
    39  H    0.155029
    40  H    0.160342
 Sum of Mulliken charges =  -0.00000

 Dipole moment (field-independent basis, Debye):
    X=             -0.0061    Y=             -0.0155    Z=             -0.0036  Tot=              0.0170
 Quadrupole moment (field-independent basis, Debye-Ang):
   XX=            -83.7217   YY=            -85.7697   ZZ=            -85.1832
   XY=              0.9210   XZ=             -0.5144   YZ=              0.1034

 Normal termination of Gaussian 16 at Thu May  6 05:36:42 2021.
