 Gaussian 16, Revision A.03,
 Gaussian 16:  EM64L-G16RevA.03 25-Dec-2016

 -------------
 #p 6-31g* mp2
 -------------

 ------------------------------------------------------
 Input file generated by CHIRIPA (05-May-2021 14:53:11)
 ------------------------------------------------------
 Symbolic Z-matrix:
 Charge =  0 Multiplicity = 1

                         Standard orientation:
 ---------------------------------------------------------------------
 Center     Atomic      Atomic             Coordinates (Angstroms)
 Number     Number       Type             X           Y           Z
 ---------------------------------------------------------------------
      1          6           0       -2.762815    0.649496   -0.003862
      2          6           0       -2.204984    2.040147   -0.308656
      3          6           0       -2.909495    3.145315    0.478783
      4          1           0       -3.837735    0.634858   -0.230307
      5          1           0       -2.667475    0.451705    1.072792
      6          1           0       -2.300084    2.234701   -1.384631
      7          1           0       -1.131228    2.051420   -0.081640
      8          1           0       -2.803456    2.978629    1.555618
      9          1           0       -3.978953    3.162950    0.245224
     10          1           0       -2.495022    4.131071    0.245635
     11          6           0       -2.068668   -0.465913   -0.783445
     12          6           0       -2.626498   -1.856565   -0.478651
     13          6           0       -1.921987   -2.961733   -1.266090
     14          1           0       -2.164008   -0.268122   -1.860099
     15          1           0       -0.993748   -0.451275   -0.557000
     16          1           0       -3.700254   -1.867838   -0.705667
     17          1           0       -2.531399   -2.051118    0.597324
     18          1           0       -0.852530   -2.979368   -1.032531
     19          1           0       -2.028027   -2.795047   -2.342925
     20          1           0       -2.336461   -3.947488   -1.032942
     21          6           0        0.630868   -1.762383    1.696404
     22          6           0        0.398221   -0.395193    1.878576
     23          6           0        1.088632    0.550483    1.114651
     24          6           0        2.008765    0.091736    0.173272
     25          6           0        2.262608   -1.263582   -0.031588
     26          6           0        1.560679   -2.191457    0.743583
     27          1           0        0.090067   -2.490092    2.294207
     28          1           0       -0.323303   -0.059077    2.617814
     29          1           0        0.927983    1.614959    1.235072
     30          1           0        2.987960   -1.568184   -0.776235
     31          1           0        1.743394   -3.252602    0.599946
     32          7           0        2.745768    1.083458   -0.641414
     33          8           0        3.551255    0.653590   -1.464238
     34          8           0        2.503989    2.271860   -0.441714
 ---------------------------------------------------------------------

 SCF Done:  E(RHF) =  -669.533048543     A.U. after   15 cycles
 E2 =    -0.2098148509D+01 EUMP2 =    -0.67163119705246D+03

 The electronic state is 1-A.
 Alpha  occ. eigenvalues --  -20.60914 -20.60908 -15.85967 -11.31402 -11.27988
 Alpha  occ. eigenvalues --  -11.27933 -11.27695 -11.27002 -11.26943 -11.21941
 Alpha  occ. eigenvalues --  -11.21777 -11.21668 -11.21391 -11.21380 -11.21292
 Alpha  occ. eigenvalues --   -1.59985  -1.39536  -1.19608  -1.08988  -1.08644
 Alpha  occ. eigenvalues --   -1.05006  -1.03794  -0.96236  -0.95783  -0.87262
 Alpha  occ. eigenvalues --   -0.86380  -0.82610  -0.79863  -0.78484  -0.77656
 Alpha  occ. eigenvalues --   -0.72182  -0.71310  -0.70678  -0.65446  -0.65216
 Alpha  occ. eigenvalues --   -0.64978  -0.62387  -0.61187  -0.59595  -0.57846
 Alpha  occ. eigenvalues --   -0.55610  -0.55464  -0.53388  -0.53090  -0.52914
 Alpha  occ. eigenvalues --   -0.52633  -0.50199  -0.48947  -0.48935  -0.48163
 Alpha  occ. eigenvalues --   -0.46900  -0.46007  -0.45778  -0.44910  -0.44015
 Alpha  occ. eigenvalues --   -0.37538  -0.36495
 Alpha virt. eigenvalues --    0.04834   0.10840   0.16237   0.19817   0.23207
 Alpha virt. eigenvalues --    0.23604   0.25531   0.26812   0.27679   0.28363
 Alpha virt. eigenvalues --    0.28665   0.29689   0.31422   0.31639   0.32006

 Mulliken charges:
               1
     1  C   -0.296987
     2  C   -0.304417
     3  C   -0.475557
     4  H    0.150905
     5  H    0.138519
     6  H    0.157216
     7  H    0.152377
     8  H    0.148607
     9  H    0.156384
    10  H    0.165008
    11  C   -0.304832
    12  C   -0.296318
    13  C   -0.480103
    14  H    0.150933
    15  H    0.162603
    16  H    0.152805
    17  H    0.141253
    18  H    0.154387
    19  H    0.158148
    20  H    0.157141
    21  C   -0.169224
    22  C   -0.216760
    23  C   -0.175599
    24  C    0.161911
    25  C   -0.172256
    26  C   -0.217934
    27  H    0.227582
    28  H    0.225241
    29  H    0.277283
    30  H    0.277061
    31  H    0.225742
    32  N    0.488637
    33  O   -0.459451
    34  O   -0.460303
 Sum of Mulliken charges =  -0.00000

 Dipole moment (field-independent basis, Debye):
    X=             -2.3996    Y=             -3.4248    Z=              2.8121  Tot=              5.0393
 Quadrupole moment (field-independent basis, Debye-Ang):
   XX=           -104.6051   YY=            -93.8266   ZZ=            -92.8873
   XY=             -9.4065   XZ=              5.0147   YZ=              0.8393

 Normal termination of Gaussian 16 at Thu May  6 04:05:00 2021.
