 Gaussian 16, Revision A.03,
 Gaussian 16:  EM64L-G16RevA.03 25-Dec-2016

 -------------
 #p 6-31g* mp2
 -------------

 ------------------------------------------------------
 Input file generated by CHIRIPA (05-May-2021 14:51:08)
 ------------------------------------------------------
 Symbolic Z-matrix:
 Charge =  0 Multiplicity = 1

                         Standard orientation:
 ---------------------------------------------------------------------
 Center     Atomic      Atomic             Coordinates (Angstroms)
 Number     Number       Type             X           Y           Z
 ---------------------------------------------------------------------
      1          6           0       -2.788271   -0.342453    0.047447
      2          6           0       -2.140105   -1.660629   -0.377143
      3          6           0       -0.619613   -1.650433   -0.216538
      4          1           0       -2.360882    0.476991   -0.546520
      5          1           0       -2.530718   -0.136137    1.095538
      6          1           0       -2.399944   -1.865091   -1.423707
      7          1           0       -2.569225   -2.477055    0.217769
      8          1           0       -0.343723   -1.471146    0.827656
      9          1           0       -0.173480   -0.855705   -0.823147
     10          1           0       -0.176858   -2.602378   -0.525776
     11          6           0       -4.308057   -0.337177   -0.107318
     12          6           0       -4.956223    0.980999    0.317272
     13          6           0       -6.476715    0.970803    0.156667
     14          1           0       -4.565610   -0.543493   -1.155409
     15          1           0       -4.735446   -1.156621    0.486648
     16          1           0       -4.527103    1.797425   -0.277641
     17          1           0       -4.696383    1.185461    1.363836
     18          1           0       -6.922847    0.176075    0.763275
     19          1           0       -6.752605    0.791516   -0.887527
     20          1           0       -6.919470    1.922748    0.465905
     21          6           0        3.266997    0.966441   -0.304305
     22          6           0        3.720362    2.265143    0.363390
     23          6           0        3.149615    3.509991   -0.316607
     24          1           0        3.568758    0.979915   -1.360574
     25          1           0        2.169195    0.920552   -0.293420
     26          1           0        4.817023    2.307918    0.352484
     27          1           0        3.417654    2.248493    1.418239
     28          1           0        2.055176    3.494257   -0.293017
     29          1           0        3.462496    3.554020   -1.364828
     30          1           0        3.486439    4.427036    0.176787
     31          6           0        3.829331   -0.286811    0.364177
     32          6           0        3.375966   -1.585513   -0.303519
     33          6           0        3.946713   -2.830360    0.376478
     34          1           0        4.927134   -0.240921    0.353291
     35          1           0        3.527570   -0.300285    1.420445
     36          1           0        3.678674   -1.568863   -1.358368
     37          1           0        2.279305   -1.628288   -0.292613
     38          1           0        3.633832   -2.874390    1.424699
     39          1           0        5.041152   -2.814627    0.352888
     40          1           0        3.609889   -3.747406   -0.116916
 ---------------------------------------------------------------------

 SCF Done:  E(RHF) =  -470.733150312     A.U. after   11 cycles
 E2 =    -0.1582949528D+01 EUMP2 =    -0.47231609984009D+03

 The electronic state is 1-A.
 Alpha  occ. eigenvalues --  -11.21661 -11.21632 -11.21557 -11.21454 -11.21406
 Alpha  occ. eigenvalues --  -11.21392 -11.21328 -11.21260 -11.21172 -11.21094
 Alpha  occ. eigenvalues --  -11.21043 -11.20976  -1.08481  -1.08344  -1.03592
 Alpha  occ. eigenvalues --   -1.03440  -0.96046  -0.95904  -0.87080  -0.86912
 Alpha  occ. eigenvalues --   -0.79713  -0.79464  -0.78309  -0.78133  -0.65111
 Alpha  occ. eigenvalues --   -0.64977  -0.60981  -0.60857  -0.59432  -0.59247
 Alpha  occ. eigenvalues --   -0.57658  -0.57504  -0.55332  -0.55193  -0.52782
 Alpha  occ. eigenvalues --   -0.52599  -0.52465  -0.52322  -0.49987  -0.49843
 Alpha  occ. eigenvalues --   -0.48013  -0.47806  -0.46694  -0.46537  -0.45933
 Alpha  occ. eigenvalues --   -0.45759  -0.45683  -0.45468  -0.43802  -0.43691
 Alpha virt. eigenvalues --    0.21698   0.22962   0.24006   0.24411   0.25425
 Alpha virt. eigenvalues --    0.26647   0.27156   0.27367   0.27905   0.29366
 Alpha virt. eigenvalues --    0.30605   0.31130   0.31576   0.31801   0.32255

 Mulliken charges:
               1
     1  C   -0.298568
     2  C   -0.300656
     3  C   -0.479390
     4  H    0.149626
     5  H    0.149387
     6  H    0.152421
     7  H    0.152251
     8  H    0.155120
     9  H    0.157600
    10  H    0.161445
    11  C   -0.298364
    12  C   -0.299671
    13  C   -0.475739
    14  H    0.149710
    15  H    0.149774
    16  H    0.152028
    17  H    0.151916
    18  H    0.155221
    19  H    0.155268
    20  H    0.160377
    21  C   -0.300572
    22  C   -0.299475
    23  C   -0.475684
    24  H    0.149223
    25  H    0.151323
    26  H    0.151900
    27  H    0.151842
    28  H    0.154991
    29  H    0.154991
    30  H    0.160120
    31  C   -0.297129
    32  C   -0.312126
    33  C   -0.474924
    34  H    0.148910
    35  H    0.148936
    36  H    0.150521
    37  H    0.168892
    38  H    0.154577
    39  H    0.154592
    40  H    0.159339
 Sum of Mulliken charges =  -0.00000

 Dipole moment (field-independent basis, Debye):
    X=             -0.0689    Y=             -0.0132    Z=             -0.0079  Tot=              0.0706
 Quadrupole moment (field-independent basis, Debye-Ang):
   XX=            -85.6923   YY=            -85.7325   ZZ=            -83.6351
   XY=              0.6225   XZ=             -0.7906   YZ=              0.0368

 Normal termination of Gaussian 16 at Thu May  6 16:32:01 2021.
