 Gaussian 16, Revision A.03,
 Gaussian 16:  EM64L-G16RevA.03 25-Dec-2016

 -------------
 #p 6-31g* mp2
 -------------

 ------------------------------------------------------
 Input file generated by CHIRIPA (05-May-2021 14:53:14)
 ------------------------------------------------------
 Symbolic Z-matrix:
 Charge =  0 Multiplicity = 1

                         Standard orientation:
 ---------------------------------------------------------------------
 Center     Atomic      Atomic             Coordinates (Angstroms)
 Number     Number       Type             X           Y           Z
 ---------------------------------------------------------------------
      1          6           0       -4.436524   -0.195856    0.081160
      2          6           0       -5.420490   -0.107756   -1.085902
      3          6           0       -6.329743   -1.332898   -1.186291
      4          1           0       -3.823803   -1.100728   -0.031649
      5          1           0       -4.998935   -0.313953    1.017719
      6          1           0       -4.856436    0.011529   -2.019835
      7          1           0       -6.030809    0.797112   -0.970403
      8          1           0       -6.917637   -1.452404   -0.270485
      9          1           0       -5.736592   -2.242451   -1.325880
     10          1           0       -7.025109   -1.248943   -2.027290
     11          6           0       -3.520718    1.021578    0.194651
     12          6           0       -2.536752    0.933478    1.361713
     13          6           0       -1.627498    2.158620    1.462102
     14          1           0       -2.958306    1.139675   -0.741907
     15          1           0       -4.133438    1.926450    0.307460
     16          1           0       -1.926433    0.028610    1.246214
     17          1           0       -3.100805    0.814193    2.295646
     18          1           0       -2.220649    3.068173    1.601691
     19          1           0       -1.039604    2.278126    0.546296
     20          1           0       -0.932133    2.074665    2.303101
     21          6           0        1.096647   -1.575671    0.757632
     22          6           0        2.385693   -2.020374    1.069277
     23          6           0        3.507561   -1.333889    0.595254
     24          6           0        3.302776   -0.201401   -0.191399
     25          6           0        2.031204    0.266551   -0.519143
     26          6           0        0.923822   -0.435637   -0.034186
     27          1           0        0.230779   -2.115049    1.130112
     28          1           0        2.522926   -2.905428    1.684004
     29          1           0        4.516736   -1.656207    0.821301
     30          1           0        1.926169    1.152086   -1.134132
     31          1           0       -0.076091   -0.087975   -0.277807
     32          7           0        4.482780    0.533663   -0.699014
     33          8           0        4.275546    1.528626   -1.390201
     34          8           0        5.592559    0.100924   -0.396083
 ---------------------------------------------------------------------

 SCF Done:  E(RHF) =  -669.535037386     A.U. after   15 cycles
 E2 =    -0.2092191599D+01 EUMP2 =    -0.67162722898541D+03

 The electronic state is 1-A.
 Alpha  occ. eigenvalues --  -20.60747 -20.60742 -15.85800 -11.31169 -11.27736
 Alpha  occ. eigenvalues --  -11.27728 -11.27478 -11.26757 -11.26713 -11.22655
 Alpha  occ. eigenvalues --  -11.22320 -11.22267 -11.22192 -11.21936 -11.21637
 Alpha  occ. eigenvalues --   -1.59822  -1.39376  -1.19340  -1.09307  -1.08735
 Alpha  occ. eigenvalues --   -1.04753  -1.04340  -0.96769  -0.95571  -0.87780
 Alpha  occ. eigenvalues --   -0.86148  -0.82403  -0.80419  -0.79102  -0.77455
 Alpha  occ. eigenvalues --   -0.72019  -0.71145  -0.70455  -0.66082  -0.64993
 Alpha  occ. eigenvalues --   -0.64718  -0.62290  -0.61510  -0.60134  -0.58372
 Alpha  occ. eigenvalues --   -0.56076  -0.55237  -0.53442  -0.53179  -0.53057
 Alpha  occ. eigenvalues --   -0.52807  -0.50730  -0.48800  -0.48774  -0.48688
 Alpha  occ. eigenvalues --   -0.47490  -0.46630  -0.46571  -0.44780  -0.44595
 Alpha  occ. eigenvalues --   -0.37317  -0.36332
 Alpha virt. eigenvalues --    0.05075   0.11237   0.16527   0.18766   0.22728
 Alpha virt. eigenvalues --    0.23699   0.24987   0.25557   0.27098   0.28297
 Alpha virt. eigenvalues --    0.28846   0.30247   0.31005   0.31431   0.31937

 Mulliken charges:
               1
     1  C   -0.297513
     2  C   -0.300244
     3  C   -0.476115
     4  H    0.144718
     5  H    0.151903
     6  H    0.152535
     7  H    0.154255
     8  H    0.156137
     9  H    0.154697
    10  H    0.162757
    11  C   -0.300151
    12  C   -0.304386
    13  C   -0.475224
    14  H    0.146425
    15  H    0.155071
    16  H    0.140567
    17  H    0.157758
    18  H    0.160461
    19  H    0.149873
    20  H    0.165617
    21  C   -0.173270
    22  C   -0.218502
    23  C   -0.171157
    24  C    0.158603
    25  C   -0.172435
    26  C   -0.219595
    27  H    0.225747
    28  H    0.223372
    29  H    0.275546
    30  H    0.275377
    31  H    0.229980
    32  N    0.488068
    33  O   -0.460374
    34  O   -0.460500
 Sum of Mulliken charges =  -0.00000

 Dipole moment (field-independent basis, Debye):
    X=             -4.3433    Y=             -2.5032    Z=              1.8458  Tot=              5.3420
 Quadrupole moment (field-independent basis, Debye-Ang):
   XX=           -119.9906   YY=            -92.2334   ZZ=            -94.5760
   XY=            -11.2138   XZ=              7.7187   YZ=             -1.3427

 Normal termination of Gaussian 16 at Thu May  6 08:58:35 2021.
