 Gaussian 16, Revision A.03,
 Gaussian 16:  EM64L-G16RevA.03 25-Dec-2016

 -------------
 #p 6-31g* mp2
 -------------

 ------------------------------------------------------
 Input file generated by CHIRIPA (05-May-2021 14:51:10)
 ------------------------------------------------------
 Symbolic Z-matrix:
 Charge =  0 Multiplicity = 1

                         Standard orientation:
 ---------------------------------------------------------------------
 Center     Atomic      Atomic             Coordinates (Angstroms)
 Number     Number       Type             X           Y           Z
 ---------------------------------------------------------------------
      1          6           0        2.058518    1.399888    0.269135
      2          6           0        1.850847    2.359225   -0.903269
      3          6           0        1.437627    3.761072   -0.453971
      4          1           0        1.130827    1.340260    0.854608
      5          1           0        2.825346    1.811955    0.939635
      6          1           0        1.085629    1.944800   -1.572081
      7          1           0        2.779081    2.416429   -1.486129
      8          1           0        2.202602    4.198519    0.195686
      9          1           0        0.499528    3.724211    0.109245
     10          1           0        1.294542    4.430475   -1.307954
     11          6           0        2.471915   -0.005538   -0.164003
     12          6           0        2.679585   -0.964875    1.008401
     13          6           0        3.092806   -2.366722    0.559104
     14          1           0        1.705087   -0.417605   -0.834503
     15          1           0        3.399606    0.054090   -0.749475
     16          1           0        1.751351   -1.022079    1.591261
     17          1           0        3.444803   -0.550450    1.677213
     18          1           0        4.030904   -2.329861   -0.004113
     19          1           0        2.327831   -2.804169   -0.090554
     20          1           0        3.235891   -3.036125    1.413086
     21          6           0       -2.247370    0.046201    0.122093
     22          6           0       -3.635856    0.658557    0.309471
     23          6           0       -3.583638    2.146256    0.658499
     24          1           0       -1.663794    0.188204    1.041995
     25          1           0       -1.717792    0.591552   -0.671340
     26          1           0       -4.163174    0.111329    1.101362
     27          1           0       -4.216258    0.514911   -0.610917
     28          1           0       -3.081021    2.710416   -0.133775
     29          1           0       -3.027635    2.304542    1.588234
     30          1           0       -4.587049    2.563699    0.787998
     31          6           0       -2.283063   -1.440551   -0.227225
     32          6           0       -0.894577   -2.052907   -0.414603
     33          6           0       -0.946793   -3.540605   -0.763631
     34          1           0       -2.812641   -1.985902    0.566208
     35          1           0       -2.866639   -1.582554   -1.147127
     36          1           0       -0.314174   -1.909261    0.505785
     37          1           0       -0.367259   -1.505679   -1.206495
     38          1           0       -1.502798   -3.698892   -1.693367
     39          1           0       -1.449412   -4.104766    0.028643
     40          1           0        0.056616   -3.958049   -0.893131
 ---------------------------------------------------------------------

 SCF Done:  E(RHF) =  -470.732338463     A.U. after   11 cycles
 E2 =    -0.1585692919D+01 EUMP2 =    -0.47231803138207D+03

 The electronic state is 1-A.
 Alpha  occ. eigenvalues --  -11.21686 -11.21677 -11.21560 -11.21540 -11.21514
 Alpha  occ. eigenvalues --  -11.21450 -11.21298 -11.21217 -11.21153 -11.21141
 Alpha  occ. eigenvalues --  -11.21026 -11.21021  -1.08558  -1.08332  -1.03654
 Alpha  occ. eigenvalues --   -1.03447  -0.96078  -0.95910  -0.87106  -0.86917
 Alpha  occ. eigenvalues --   -0.79711  -0.79543  -0.78383  -0.78157  -0.65176
 Alpha  occ. eigenvalues --   -0.65000  -0.61124  -0.60885  -0.59391  -0.59266
 Alpha  occ. eigenvalues --   -0.57686  -0.57526  -0.55390  -0.55159  -0.52768
 Alpha  occ. eigenvalues --   -0.52620  -0.52542  -0.52320  -0.50016  -0.49879
 Alpha  occ. eigenvalues --   -0.48074  -0.47768  -0.46942  -0.46423  -0.46176
 Alpha  occ. eigenvalues --   -0.46041  -0.45417  -0.45215  -0.43876  -0.43713
 Alpha virt. eigenvalues --    0.19818   0.21702   0.23630   0.23698   0.25327
 Alpha virt. eigenvalues --    0.25769   0.26170   0.28426   0.29210   0.30036
 Alpha virt. eigenvalues --    0.30536   0.30845   0.31511   0.31783   0.32222

 Mulliken charges:
               1
     1  C   -0.300064
     2  C   -0.299791
     3  C   -0.476311
     4  H    0.152052
     5  H    0.148914
     6  H    0.151130
     7  H    0.151730
     8  H    0.155122
     9  H    0.156079
    10  H    0.159764
    11  C   -0.303737
    12  C   -0.300661
    13  C   -0.481021
    14  H    0.156716
    15  H    0.148737
    16  H    0.151768
    17  H    0.152070
    18  H    0.155162
    19  H    0.160266
    20  H    0.159744
    21  C   -0.301260
    22  C   -0.299643
    23  C   -0.476303
    24  H    0.150296
    25  H    0.150523
    26  H    0.152348
    27  H    0.152387
    28  H    0.155622
    29  H    0.155128
    30  H    0.160835
    31  C   -0.297702
    32  C   -0.308718
    33  C   -0.478315
    34  H    0.149896
    35  H    0.149968
    36  H    0.158507
    37  H    0.154845
    38  H    0.155543
    39  H    0.155797
    40  H    0.162580
 Sum of Mulliken charges =  -0.00000

 Dipole moment (field-independent basis, Debye):
    X=             -0.0681    Y=             -0.0310    Z=             -0.0058  Tot=              0.0750
 Quadrupole moment (field-independent basis, Debye-Ang):
   XX=            -83.9855   YY=            -86.9381   ZZ=            -83.8932
   XY=              0.7141   XZ=              0.1286   YZ=             -0.6340

 Normal termination of Gaussian 16 at Thu May  6 05:24:36 2021.
