 Gaussian 16, Revision A.03,
 Gaussian 16:  EM64L-G16RevA.03 25-Dec-2016

 -------------
 #p 6-31g* mp2
 -------------

 ------------------------------------------------------
 Input file generated by CHIRIPA (05-May-2021 14:57:24)
 ------------------------------------------------------
 Symbolic Z-matrix:
 Charge =  0 Multiplicity = 1

                         Standard orientation:
 ---------------------------------------------------------------------
 Center     Atomic      Atomic             Coordinates (Angstroms)
 Number     Number       Type             X           Y           Z
 ---------------------------------------------------------------------
      1          6           0        3.354426    2.319826    0.396054
      2          6           0        4.661929    1.838378    0.272910
      3          6           0        4.899528    0.480661    0.039033
      4          6           0        3.801269   -0.371355   -0.066730
      5          6           0        2.486936    0.077967    0.051289
      6          6           0        2.273009    1.439635    0.285046
      7          1           0        3.179048    3.376068    0.577689
      8          1           0        5.503697    2.519639    0.358673
      9          1           0        5.901487    0.081154   -0.060423
     10          1           0        1.668107   -0.625453   -0.038917
     11          1           0        1.256508    1.810726    0.380249
     12          7           0        4.040274   -1.810800   -0.314261
     13          8           0        3.055578   -2.540907   -0.403459
     14          8           0        5.207777   -2.181676   -0.414392
     15          6           0       -2.137349    2.053051   -0.185065
     16          6           0       -3.281171    2.012589   -0.989152
     17          6           0       -4.188166    0.954210   -0.880788
     18          6           0       -3.918931   -0.051399    0.046332
     19          6           0       -2.788201   -0.039389    0.861559
     20          6           0       -1.894943    1.028739    0.736100
     21          1           0       -1.438109    2.879012   -0.275884
     22          1           0       -3.471991    2.806701   -1.705404
     23          1           0       -5.081518    0.897912   -1.490848
     24          1           0       -2.624997   -0.845557    1.566452
     25          1           0       -1.007458    1.057545    1.361868
     26          7           0       -4.871855   -1.177018    0.170101
     27          8           0       -4.611852   -2.050670    0.994580
     28          8           0       -5.860717   -1.164311   -0.559714
 ---------------------------------------------------------------------

 SCF Done:  E(RHF) =  -868.336264087     A.U. after   16 cycles
 E2 =    -0.2600206891D+01 EUMP2 =    -0.87093647097817D+03

 The electronic state is 1-A.
 Alpha  occ. eigenvalues --  -20.61194 -20.61189 -20.61097 -20.61090 -15.86257
 Alpha  occ. eigenvalues --  -15.86158 -11.31783 -11.31718 -11.28431 -11.28361
 Alpha  occ. eigenvalues --  -11.28344 -11.28302 -11.28219 -11.28205 -11.27562
 Alpha  occ. eigenvalues --  -11.27496 -11.27391 -11.27365  -1.60268  -1.60167
 Alpha  occ. eigenvalues --   -1.39817  -1.39715  -1.19994  -1.19935  -1.09365
 Alpha  occ. eigenvalues --   -1.09315  -1.05445  -1.05360  -0.96161  -0.96108
 Alpha  occ. eigenvalues --   -0.86869  -0.86745  -0.83006  -0.82929  -0.78049
 Alpha  occ. eigenvalues --   -0.77895  -0.72470  -0.72375  -0.71595  -0.71492
 Alpha  occ. eigenvalues --   -0.71111  -0.71086  -0.65728  -0.65650  -0.65566
 Alpha  occ. eigenvalues --   -0.65226  -0.62900  -0.62570  -0.55945  -0.55932
 Alpha  occ. eigenvalues --   -0.53744  -0.53713  -0.53604  -0.53373  -0.49245
 Alpha  occ. eigenvalues --   -0.49215  -0.49150  -0.49114  -0.45186  -0.45077
 Alpha  occ. eigenvalues --   -0.37988  -0.37953  -0.37038  -0.36963
 Alpha virt. eigenvalues --    0.04535   0.04617   0.10558   0.10598   0.15917
 Alpha virt. eigenvalues --    0.16043   0.18089   0.22050   0.24884   0.26444
 Alpha virt. eigenvalues --    0.27951   0.28692   0.30126   0.30832   0.31891

 Mulliken charges:
               1
     1  C   -0.170725
     2  C   -0.218284
     3  C   -0.169457
     4  C    0.159232
     5  C   -0.171547
     6  C   -0.221868
     7  H    0.225135
     8  H    0.225560
     9  H    0.278030
    10  H    0.276889
    11  H    0.214737
    12  N    0.487970
    13  O   -0.458316
    14  O   -0.458591
    15  C   -0.171148
    16  C   -0.217815
    17  C   -0.169224
    18  C    0.159482
    19  C   -0.168867
    20  C   -0.224699
    21  H    0.219802
    22  H    0.225329
    23  H    0.278251
    24  H    0.279425
    25  H    0.218896
    26  N    0.487996
    27  O   -0.457550
    28  O   -0.458644
 Sum of Mulliken charges =  -0.00000

 Dipole moment (field-independent basis, Debye):
    X=              2.4624    Y=              8.8620    Z=              0.3641  Tot=              9.2050
 Quadrupole moment (field-independent basis, Debye-Ang):
   XX=           -129.4033   YY=           -109.2737   ZZ=           -103.7016
   XY=              3.6089   XZ=              7.6681   YZ=             -2.3021

 Normal termination of Gaussian 16 at Thu May  6 00:17:45 2021.
