 Gaussian 16, Revision A.03,
 Gaussian 16:  EM64L-G16RevA.03 25-Dec-2016

 -------------
 #p 6-31g* mp2
 -------------

 ------------------------------------------------------
 Input file generated by CHIRIPA (05-May-2021 14:57:23)
 ------------------------------------------------------
 Symbolic Z-matrix:
 Charge =  0 Multiplicity = 1

                         Standard orientation:
 ---------------------------------------------------------------------
 Center     Atomic      Atomic             Coordinates (Angstroms)
 Number     Number       Type             X           Y           Z
 ---------------------------------------------------------------------
      1          6           0        1.365285   -1.100131    0.434515
      2          6           0        1.735469    0.119762    1.010142
      3          6           0        3.008730    0.652514    0.787586
      4          6           0        3.890663   -0.064465   -0.019523
      5          6           0        3.551434   -1.282246   -0.607079
      6          6           0        2.272849   -1.796014   -0.370838
      7          1           0        0.374118   -1.506612    0.612717
      8          1           0        1.032705    0.662382    1.636027
      9          1           0        3.321428    1.594821    1.220825
     10          1           0        4.273713   -1.800106   -1.226396
     11          1           0        1.988096   -2.743618   -0.819177
     12          7           0        5.241426    0.489487   -0.262376
     13          8           0        6.000066   -0.161633   -0.977320
     14          8           0        5.515936    1.564306    0.266817
     15          6           0       -3.854007   -2.349784    0.210968
     16          6           0       -2.767561   -1.673375    0.775440
     17          6           0       -2.654265   -0.285275    0.653415
     18          6           0       -3.650063    0.397989   -0.042880
     19          6           0       -4.744478   -0.247448   -0.616426
     20          6           0       -4.837265   -1.635919   -0.481941
     21          1           0       -3.934052   -3.428237    0.310599
     22          1           0       -2.002455   -2.225184    1.314111
     23          1           0       -1.823731    0.263511    1.080573
     24          1           0       -5.491431    0.329886   -1.147618
     25          1           0       -5.682119   -2.158593   -0.921348
     26          7           0       -3.540978    1.867706   -0.178658
     27          8           0       -4.431568    2.446644   -0.796975
     28          8           0       -2.566954    2.412901    0.335809
 ---------------------------------------------------------------------

 SCF Done:  E(RHF) =  -868.336336890     A.U. after   16 cycles
 E2 =    -0.2600761163D+01 EUMP2 =    -0.87093709805326D+03

 The electronic state is 1-A.
 Alpha  occ. eigenvalues --  -20.61538 -20.61520 -20.60846 -20.60836 -15.86594
 Alpha  occ. eigenvalues --  -15.85900 -11.32114 -11.31361 -11.28832 -11.28652
 Alpha  occ. eigenvalues --  -11.28461 -11.27947 -11.27911 -11.27863 -11.27821
 Alpha  occ. eigenvalues --  -11.27662 -11.27037 -11.27013  -1.60600  -1.59916
 Alpha  occ. eigenvalues --   -1.40153  -1.39467  -1.20310  -1.19555  -1.09661
 Alpha  occ. eigenvalues --   -1.08965  -1.05764  -1.04964  -0.96474  -0.95779
 Alpha  occ. eigenvalues --   -0.87139  -0.86382  -0.83335  -0.82592  -0.78362
 Alpha  occ. eigenvalues --   -0.77599  -0.72810  -0.72120  -0.71924  -0.71429
 Alpha  occ. eigenvalues --   -0.71238  -0.70746  -0.65969  -0.65781  -0.65224
 Alpha  occ. eigenvalues --   -0.65005  -0.63112  -0.62297  -0.56224  -0.55597
 Alpha  occ. eigenvalues --   -0.54021  -0.53852  -0.53286  -0.53068  -0.49578
 Alpha  occ. eigenvalues --   -0.49554  -0.48888  -0.48864  -0.45524  -0.44850
 Alpha  occ. eigenvalues --   -0.38262  -0.37621  -0.37313  -0.36546
 Alpha virt. eigenvalues --    0.04183   0.04935   0.10264   0.11070   0.15470
 Alpha virt. eigenvalues --    0.16379   0.17969   0.22171   0.24703   0.25170
 Alpha virt. eigenvalues --    0.27697   0.28952   0.30403   0.31325   0.33128

 Mulliken charges:
               1
     1  C   -0.172521
     2  C   -0.220338
     3  C   -0.169085
     4  C    0.159014
     5  C   -0.170265
     6  C   -0.219601
     7  H    0.218071
     8  H    0.225743
     9  H    0.279013
    10  H    0.276211
    11  H    0.222232
    12  N    0.487907
    13  O   -0.460226
    14  O   -0.458353
    15  C   -0.169917
    16  C   -0.224230
    17  C   -0.169990
    18  C    0.158903
    19  C   -0.168529
    20  C   -0.218260
    21  H    0.228230
    22  H    0.218156
    23  H    0.271059
    24  H    0.279124
    25  H    0.227211
    26  N    0.488230
    27  O   -0.456312
    28  O   -0.461476
 Sum of Mulliken charges =  -0.00000

 Dipole moment (field-independent basis, Debye):
    X=             -5.3148    Y=             -6.9967    Z=              1.2035  Tot=              8.8684
 Quadrupole moment (field-independent basis, Debye-Ang):
   XX=           -133.8757   YY=           -106.3164   ZZ=           -103.1716
   XY=             10.8033   XZ=              3.9107   YZ=              3.1268

 Normal termination of Gaussian 16 at Fri May  7 06:26:52 2021.
