 Gaussian 16, Revision A.03,
 Gaussian 16:  EM64L-G16RevA.03 25-Dec-2016

 -------------
 #p 6-31g* mp2
 -------------

 ------------------------------------------------------
 Input file generated by CHIRIPA (05-May-2021 14:55:21)
 ------------------------------------------------------
 Symbolic Z-matrix:
 Charge =  0 Multiplicity = 1

                         Standard orientation:
 ---------------------------------------------------------------------
 Center     Atomic      Atomic             Coordinates (Angstroms)
 Number     Number       Type             X           Y           Z
 ---------------------------------------------------------------------
      1          6           0        2.030436    2.207068    0.655378
      2          6           0        2.453021    1.871256   -0.635038
      3          6           0        2.783437    0.550484   -0.952744
      4          6           0        2.679345   -0.413493    0.048856
      5          6           0        2.261470   -0.110281    1.343744
      6          6           0        1.936176    1.216973    1.638916
      7          1           0        1.775751    3.235593    0.893427
      8          1           0        2.527166    2.638097   -1.400872
      9          1           0        3.113372    0.262833   -1.943610
     10          1           0        2.197476   -0.896614    2.086040
     11          1           0        1.608283    1.474868    2.641922
     12          7           0        3.026430   -1.815166   -0.275557
     13          8           0        2.926352   -2.645935    0.624690
     14          8           0        3.391982   -2.056487   -1.423935
     15          6           0       -4.038725   -0.108713   -0.106014
     16          6           0       -3.952254   -1.617073    0.129272
     17          6           0       -5.325518   -2.287661    0.176699
     18          1           0       -4.643170    0.346176    0.690646
     19          1           0       -4.571902    0.078374   -1.048414
     20          1           0       -3.418184   -1.801296    1.070255
     21          1           0       -3.347783   -2.068398   -0.667934
     22          1           0       -5.862355   -2.133253   -0.764877
     23          1           0       -5.933157   -1.864634    0.983188
     24          1           0       -5.240280   -3.365622    0.345798
     25          6           0       -2.673956    0.575862   -0.155934
     26          6           0       -2.760428    2.084221   -0.391221
     27          6           0       -1.387164    2.754810   -0.438648
     28          1           0       -2.140779    0.388775    0.786465
     29          1           0       -2.069511    0.120972   -0.952594
     30          1           0       -3.364898    2.535546    0.405986
     31          1           0       -3.294497    2.268444   -1.332204
     32          1           0       -0.779525    2.331782   -1.245136
     33          1           0       -0.850326    2.600402    0.502928
     34          1           0       -1.472402    3.832771   -0.607747
 ---------------------------------------------------------------------

 SCF Done:  E(RHF) =  -669.534835858     A.U. after   15 cycles
 E2 =    -0.2092422956D+01 EUMP2 =    -0.67162725881389D+03

 The electronic state is 1-A.
 Alpha  occ. eigenvalues --  -20.60754 -20.60749 -15.85811 -11.31165 -11.27772
 Alpha  occ. eigenvalues --  -11.27765 -11.27487 -11.26757 -11.26735 -11.21972
 Alpha  occ. eigenvalues --  -11.21648 -11.21619 -11.21580 -11.21513 -11.21087
 Alpha  occ. eigenvalues --   -1.59831  -1.39385  -1.19358  -1.08761  -1.08633
 Alpha  occ. eigenvalues --   -1.04764  -1.03762  -0.96239  -0.95578  -0.87257
 Alpha  occ. eigenvalues --   -0.86161  -0.82419  -0.79838  -0.78430  -0.77462
 Alpha  occ. eigenvalues --   -0.72030  -0.71155  -0.70473  -0.65275  -0.65011
 Alpha  occ. eigenvalues --   -0.64766  -0.62114  -0.61165  -0.59608  -0.57847
 Alpha  occ. eigenvalues --   -0.55584  -0.55213  -0.53334  -0.52925  -0.52856
 Alpha  occ. eigenvalues --   -0.52432  -0.50176  -0.48787  -0.48783  -0.48129
 Alpha  occ. eigenvalues --   -0.46864  -0.45974  -0.45893  -0.44794  -0.44016
 Alpha  occ. eigenvalues --   -0.37231  -0.36364
 Alpha virt. eigenvalues --    0.05068   0.11169   0.16512   0.21059   0.22700
 Alpha virt. eigenvalues --    0.24135   0.26294   0.27053   0.27252   0.27485
 Alpha virt. eigenvalues --    0.28741   0.30583   0.31308   0.31554   0.31980

 Mulliken charges:
               1
     1  C   -0.164834
     2  C   -0.218562
     3  C   -0.171715
     4  C    0.158266
     5  C   -0.169911
     6  C   -0.220732
     7  H    0.227085
     8  H    0.223729
     9  H    0.275510
    10  H    0.275573
    11  H    0.223021
    12  N    0.488158
    13  O   -0.460577
    14  O   -0.460747
    15  C   -0.298614
    16  C   -0.299979
    17  C   -0.475954
    18  H    0.148733
    19  H    0.149927
    20  H    0.151919
    21  H    0.154618
    22  H    0.155261
    23  H    0.154317
    24  H    0.162030
    25  C   -0.297650
    26  C   -0.299737
    27  C   -0.477726
    28  H    0.148083
    29  H    0.152023
    30  H    0.151211
    31  H    0.153023
    32  H    0.156826
    33  H    0.151532
    34  H    0.155891
 Sum of Mulliken charges =  -0.00000

 Dipole moment (field-independent basis, Debye):
    X=             -1.2204    Y=              4.8876    Z=              1.1227  Tot=              5.1612
 Quadrupole moment (field-independent basis, Debye-Ang):
   XX=           -102.7531   YY=            -99.6587   ZZ=            -89.3098
   XY=             13.9326   XZ=              1.9358   YZ=             -1.4689

 Normal termination of Gaussian 16 at Thu May  6 04:34:20 2021.
