 Gaussian 16, Revision A.03,
 Gaussian 16:  EM64L-G16RevA.03 25-Dec-2016

 -------------
 #p 6-31g* mp2
 -------------

 ------------------------------------------------------
 Input file generated by CHIRIPA (05-May-2021 14:55:19)
 ------------------------------------------------------
 Symbolic Z-matrix:
 Charge =  0 Multiplicity = 1

                         Standard orientation:
 ---------------------------------------------------------------------
 Center     Atomic      Atomic             Coordinates (Angstroms)
 Number     Number       Type             X           Y           Z
 ---------------------------------------------------------------------
      1          6           0       -0.611932   -1.733167    0.242636
      2          6           0       -1.541046   -1.634096    1.283527
      3          6           0       -2.666428   -0.814601    1.155114
      4          6           0       -2.832146   -0.105040   -0.033309
      5          6           0       -1.924265   -0.182770   -1.088298
      6          6           0       -0.806165   -1.008465   -0.937873
      7          1           0        0.259463   -2.372178    0.350940
      8          1           0       -1.392774   -2.195755    2.201459
      9          1           0       -3.401439   -0.719395    1.945123
     10          1           0       -2.099165    0.389280   -1.991397
     11          1           0       -0.086251   -1.083464   -1.747901
     12          7           0       -4.019683    0.765805   -0.180906
     13          8           0       -4.142806    1.380662   -1.237990
     14          8           0       -4.804866    0.817026    0.763288
     15          6           0        3.396062   -0.388020    0.301801
     16          6           0        3.369918   -1.483190   -0.764927
     17          6           0        3.413336   -2.890421   -0.168597
     18          1           0        4.302346   -0.501268    0.912351
     19          1           0        2.542832   -0.526242    0.980246
     20          1           0        4.222161   -1.342125   -1.441977
     21          1           0        2.463687   -1.367205   -1.373129
     22          1           0        2.555774   -3.055674    0.491615
     23          1           0        4.324240   -3.030451    0.422376
     24          1           0        3.393737   -3.657810   -0.948718
     25          6           0        3.353186    1.024349   -0.278802
     26          6           0        3.379332    2.119518    0.787924
     27          6           0        3.335913    3.526749    0.191595
     28          1           0        4.206416    1.162570   -0.957249
     29          1           0        2.446903    1.137596   -0.889352
     30          1           0        4.285562    2.003534    1.396127
     31          1           0        2.527088    1.978454    1.464976
     32          1           0        2.425009    3.666780   -0.399377
     33          1           0        4.193475    3.692002   -0.468617
     34          1           0        3.355512    4.294138    0.971716
 ---------------------------------------------------------------------

 SCF Done:  E(RHF) =  -669.535250660     A.U. after   15 cycles
 E2 =    -0.2092715276D+01 EUMP2 =    -0.67162796593588D+03

 The electronic state is 1-A.
 Alpha  occ. eigenvalues --  -20.60785 -20.60780 -15.85839 -11.31216 -11.27787
 Alpha  occ. eigenvalues --  -11.27783 -11.27500 -11.26800 -11.26790 -11.22758
 Alpha  occ. eigenvalues --  -11.22340 -11.22249 -11.22081 -11.22015 -11.21403
 Alpha  occ. eigenvalues --   -1.59860  -1.39414  -1.19389  -1.09244  -1.08775
 Alpha  occ. eigenvalues --   -1.04794  -1.04335  -0.96772  -0.95613  -0.87790
 Alpha  occ. eigenvalues --   -0.86191  -0.82449  -0.80424  -0.78990  -0.77493
 Alpha  occ. eigenvalues --   -0.72057  -0.71184  -0.70540  -0.65931  -0.65034
 Alpha  occ. eigenvalues --   -0.64763  -0.62170  -0.61703  -0.60174  -0.58361
 Alpha  occ. eigenvalues --   -0.56171  -0.55195  -0.53470  -0.53186  -0.53110
 Alpha  occ. eigenvalues --   -0.52890  -0.50732  -0.48823  -0.48812  -0.48713
 Alpha  occ. eigenvalues --   -0.47465  -0.46535  -0.46420  -0.44817  -0.44556
 Alpha  occ. eigenvalues --   -0.37353  -0.36396
 Alpha virt. eigenvalues --    0.05018   0.11174   0.16414   0.18578   0.22878
 Alpha virt. eigenvalues --    0.23651   0.24364   0.25703   0.27066   0.28391
 Alpha virt. eigenvalues --    0.28956   0.29938   0.30903   0.31606   0.32023

 Mulliken charges:
               1
     1  C   -0.176162
     2  C   -0.221510
     3  C   -0.170565
     4  C    0.158549
     5  C   -0.171107
     6  C   -0.224497
     7  H    0.236372
     8  H    0.224008
     9  H    0.275740
    10  H    0.275834
    11  H    0.226725
    12  N    0.487932
    13  O   -0.460341
    14  O   -0.460295
    15  C   -0.299394
    16  C   -0.304090
    17  C   -0.478982
    18  H    0.152837
    19  H    0.148357
    20  H    0.158426
    21  H    0.144276
    22  H    0.145841
    23  H    0.162607
    24  H    0.163865
    25  C   -0.298295
    26  C   -0.300524
    27  C   -0.476360
    28  H    0.150983
    29  H    0.148461
    30  H    0.152472
    31  H    0.153908
    32  H    0.156928
    33  H    0.155421
    34  H    0.162579
 Sum of Mulliken charges =  -0.00000

 Dipole moment (field-independent basis, Debye):
    X=              4.3523    Y=             -2.9920    Z=              0.5453  Tot=              5.3097
 Quadrupole moment (field-independent basis, Debye-Ang):
   XX=           -116.8285   YY=            -95.4409   ZZ=            -90.7870
   XY=              8.7628   XZ=             -3.2789   YZ=             -1.0103

 Normal termination of Gaussian 16 at Thu May  6 09:14:44 2021.
