 Gaussian 16, Revision A.03,
 Gaussian 16:  EM64L-G16RevA.03 25-Dec-2016

 -------------
 #p 6-31g* mp2
 -------------

 ------------------------------------------------------
 Input file generated by CHIRIPA (05-May-2021 14:57:21)
 ------------------------------------------------------
 Symbolic Z-matrix:
 Charge =  0 Multiplicity = 1

                         Standard orientation:
 ---------------------------------------------------------------------
 Center     Atomic      Atomic             Coordinates (Angstroms)
 Number     Number       Type             X           Y           Z
 ---------------------------------------------------------------------
      1          6           0        6.565225    0.178495   -0.255929
      2          6           0        5.798271    1.183027    0.343419
      3          6           0        4.420313    1.018512    0.512876
      4          6           0        3.839411   -0.168547    0.069328
      5          6           0        4.576593   -1.187791   -0.531500
      6          6           0        5.953017   -1.001627   -0.690709
      7          1           0        7.635060    0.314703   -0.383587
      8          1           0        6.271032    2.100569    0.682033
      9          1           0        3.802781    1.779948    0.973621
     10          1           0        4.077005   -2.091455   -0.858945
     11          1           0        6.546151   -1.783463   -1.156511
     12          7           0        2.381441   -0.354171    0.243300
     13          8           0        1.893572   -1.409247   -0.155995
     14          8           0        1.754160    0.558927    0.775660
     15          6           0       -3.098928    2.449043   -0.291389
     16          6           0       -2.269087    1.366148    0.017192
     17          6           0       -2.801601    0.081231    0.158488
     18          6           0       -4.174520   -0.085474   -0.016415
     19          6           0       -5.027331    0.973403   -0.324285
     20          6           0       -4.472978    2.249567   -0.460844
     21          1           0       -2.676777    3.443798   -0.399313
     22          1           0       -1.201619    1.518102    0.149354
     23          1           0       -2.182124   -0.774792    0.397010
     24          1           0       -6.087617    0.790705   -0.450113
     25          1           0       -5.119850    3.088705   -0.700532
     26          7           0       -4.749827   -1.441124    0.130662
     27          8           0       -5.962596   -1.561630   -0.028425
     28          8           0       -3.977092   -2.357510    0.402242
 ---------------------------------------------------------------------

 SCF Done:  E(RHF) =  -868.340374580     A.U. after   16 cycles
 E2 =    -0.2598340382D+01 EUMP2 =    -0.87093871496134D+03

 The electronic state is 1-A.
 Alpha  occ. eigenvalues --  -20.61656 -20.61615 -20.59803 -20.59780 -15.86647
 Alpha  occ. eigenvalues --  -15.84837 -11.31756 -11.30053 -11.28312 -11.28269
 Alpha  occ. eigenvalues --  -11.27987 -11.27259 -11.27230 -11.26679 -11.26438
 Alpha  occ. eigenvalues --  -11.26349 -11.25712 -11.25371  -1.60690  -1.58874
 Alpha  occ. eigenvalues --   -1.40249  -1.38429  -1.19903  -1.18208  -1.09347
 Alpha  occ. eigenvalues --   -1.07649  -1.05267  -1.03552  -0.96225  -0.94505
 Alpha  occ. eigenvalues --   -0.86677  -0.84973  -0.83065  -0.81312  -0.78141
 Alpha  occ. eigenvalues --   -0.76366  -0.72880  -0.71982  -0.71062  -0.71008
 Alpha  occ. eigenvalues --   -0.70195  -0.69342  -0.65560  -0.65267  -0.63850
 Alpha  occ. eigenvalues --   -0.63525  -0.62616  -0.60866  -0.55777  -0.54123
 Alpha  occ. eigenvalues --   -0.53609  -0.53355  -0.51946  -0.51613  -0.49649
 Alpha  occ. eigenvalues --   -0.49613  -0.47824  -0.47803  -0.45703  -0.43866
 Alpha  occ. eigenvalues --   -0.37867  -0.36857  -0.36235  -0.35159
 Alpha virt. eigenvalues --    0.04365   0.06110   0.10801   0.12476   0.15903
 Alpha virt. eigenvalues --    0.17631   0.20961   0.22683   0.26896   0.27791
 Alpha virt. eigenvalues --    0.28774   0.29456   0.30566   0.31945   0.32292

 Mulliken charges:
               1
     1  C   -0.169813
     2  C   -0.218528
     3  C   -0.170712
     4  C    0.157710
     5  C   -0.170056
     6  C   -0.218571
     7  H    0.227620
     8  H    0.224613
     9  H    0.274020
    10  H    0.277790
    11  H    0.225837
    12  N    0.490280
    13  O   -0.455593
    14  O   -0.471025
    15  C   -0.172637
    16  C   -0.227220
    17  C   -0.173668
    18  C    0.157502
    19  C   -0.173357
    20  C   -0.218986
    21  H    0.221340
    22  H    0.244334
    23  H    0.285491
    24  H    0.271551
    25  H    0.218399
    26  N    0.487845
    27  O   -0.465134
    28  O   -0.459035
 Sum of Mulliken charges =  -0.00000

 Dipole moment (field-independent basis, Debye):
    X=              7.7983    Y=              5.2689    Z=             -1.1275  Tot=              9.4788
 Quadrupole moment (field-independent basis, Debye-Ang):
   XX=            -79.5027   YY=           -102.0388   ZZ=           -105.4040
   XY=            -20.6086   XZ=              0.6329   YZ=              2.0568

 Normal termination of Gaussian 16 at Wed May  5 17:45:08 2021.
