 Gaussian 16, Revision A.03,
 Gaussian 16:  EM64L-G16RevA.03 25-Dec-2016

 -------------
 #p 6-31g* mp2
 -------------

 ------------------------------------------------------
 Input file generated by CHIRIPA (05-May-2021 14:51:08)
 ------------------------------------------------------
 Symbolic Z-matrix:
 Charge =  0 Multiplicity = 1

                         Standard orientation:
 ---------------------------------------------------------------------
 Center     Atomic      Atomic             Coordinates (Angstroms)
 Number     Number       Type             X           Y           Z
 ---------------------------------------------------------------------
      1          6           0       -3.313374    1.297706    0.144749
      2          6           0       -2.146685    2.165110   -0.328993
      3          6           0       -2.373035    3.654461   -0.067476
      4          1           0       -4.233185    1.624330   -0.359444
      5          1           0       -3.470787    1.462405    1.219686
      6          1           0       -1.990632    1.997783   -1.402429
      7          1           0       -1.229511    1.836257    0.176243
      8          1           0       -2.506897    3.841662    1.002868
      9          1           0       -3.272342    4.004106   -0.584773
     10          1           0       -1.526880    4.256032   -0.413879
     11          6           0       -3.101903   -0.193674   -0.109802
     12          6           0       -4.268593   -1.061078    0.363940
     13          6           0       -4.042243   -2.550430    0.102423
     14          1           0       -2.944491   -0.358373   -1.184739
     15          1           0       -2.182093   -0.520298    0.394391
     16          1           0       -5.185767   -0.732225   -0.141295
     17          1           0       -4.424646   -0.893751    1.437376
     18          1           0       -3.142936   -2.900074    0.619720
     19          1           0       -3.908381   -2.737630   -0.967921
     20          1           0       -4.888398   -3.152000    0.448826
     21          6           0        2.810408   -1.185272   -0.174402
     22          6           0        1.302660   -1.018450    0.017561
     23          6           0        0.521575   -2.293863   -0.300275
     24          1           0        3.010109   -1.490604   -1.210664
     25          1           0        3.166287   -2.003652    0.466689
     26          1           0        0.949965   -0.199714   -0.622669
     27          1           0        1.106539   -0.713292    1.053434
     28          1           0        0.845307   -3.115273    0.347092
     29          1           0        0.687842   -2.598778   -1.338535
     30          1           0       -0.554111   -2.152233   -0.156392
     31          6           0        3.604870    0.081240    0.139455
     32          6           0        5.112619   -0.085583   -0.052508
     33          6           0        5.893703    1.189831    0.265328
     34          1           0        3.248991    0.899620   -0.501636
     35          1           0        3.405169    0.386573    1.175717
     36          1           0        5.308738   -0.390740   -1.088381
     37          1           0        5.465313   -0.904318    0.587723
     38          1           0        5.727436    1.494746    1.303588
     39          1           0        5.569972    2.011241   -0.382039
     40          1           0        6.969389    1.048201    0.121445
 ---------------------------------------------------------------------

 SCF Done:  E(RHF) =  -470.733117139     A.U. after   11 cycles
 E2 =    -0.1583451175D+01 EUMP2 =    -0.47231656831354D+03

 The electronic state is 1-A.
 Alpha  occ. eigenvalues --  -11.21614 -11.21597 -11.21592 -11.21583 -11.21407
 Alpha  occ. eigenvalues --  -11.21397 -11.21347 -11.21337 -11.21083 -11.21069
 Alpha  occ. eigenvalues --  -11.21068 -11.20977  -1.08453  -1.08406  -1.03544
 Alpha  occ. eigenvalues --   -1.03505  -0.95993  -0.95952  -0.87012  -0.86967
 Alpha  occ. eigenvalues --   -0.79646  -0.79527  -0.78302  -0.78198  -0.65083
 Alpha  occ. eigenvalues --   -0.65048  -0.60952  -0.60897  -0.59471  -0.59234
 Alpha  occ. eigenvalues --   -0.57655  -0.57524  -0.55274  -0.55241  -0.52731
 Alpha  occ. eigenvalues --   -0.52631  -0.52481  -0.52317  -0.49935  -0.49891
 Alpha  occ. eigenvalues --   -0.48070  -0.47747  -0.46636  -0.46593  -0.45838
 Alpha  occ. eigenvalues --   -0.45761  -0.45703  -0.45617  -0.43792  -0.43722
 Alpha virt. eigenvalues --    0.21199   0.23110   0.23385   0.24219   0.26081
 Alpha virt. eigenvalues --    0.26474   0.26982   0.27250   0.27928   0.29463
 Alpha virt. eigenvalues --    0.30493   0.31309   0.31576   0.31816   0.32423

 Mulliken charges:
               1
     1  C   -0.297632
     2  C   -0.301969
     3  C   -0.475657
     4  H    0.149656
     5  H    0.149395
     6  H    0.151438
     7  H    0.154865
     8  H    0.155199
     9  H    0.155120
    10  H    0.160216
    11  C   -0.304348
    12  C   -0.299592
    13  C   -0.478116
    14  H    0.149589
    15  H    0.156047
    16  H    0.152056
    17  H    0.151767
    18  H    0.157099
    19  H    0.155631
    20  H    0.160550
    21  C   -0.298280
    22  C   -0.301271
    23  C   -0.484153
    24  H    0.149788
    25  H    0.149507
    26  H    0.154539
    27  H    0.150417
    28  H    0.154316
    29  H    0.155068
    30  H    0.168957
    31  C   -0.298277
    32  C   -0.299630
    33  C   -0.475697
    34  H    0.149589
    35  H    0.149378
    36  H    0.151969
    37  H    0.151914
    38  H    0.155120
    39  H    0.155187
    40  H    0.160245
 Sum of Mulliken charges =  -0.00000

 Dipole moment (field-independent basis, Debye):
    X=             -0.0251    Y=              0.0032    Z=             -0.0048  Tot=              0.0258
 Quadrupole moment (field-independent basis, Debye-Ang):
   XX=            -85.0948   YY=            -86.6797   ZZ=            -83.0087
   XY=             -0.5766   XZ=              0.3432   YZ=             -0.6702

 Normal termination of Gaussian 16 at Thu May  6 16:33:07 2021.
