 Gaussian 16, Revision A.03,
 Gaussian 16:  EM64L-G16RevA.03 25-Dec-2016

 -------------
 #p 6-31g* mp2
 -------------

 ------------------------------------------------------
 Input file generated by CHIRIPA (05-May-2021 14:51:12)
 ------------------------------------------------------
 Symbolic Z-matrix:
 Charge =  0 Multiplicity = 1

                         Standard orientation:
 ---------------------------------------------------------------------
 Center     Atomic      Atomic             Coordinates (Angstroms)
 Number     Number       Type             X           Y           Z
 ---------------------------------------------------------------------
      1          6           0       -4.258620   -0.077425   -0.440694
      2          6           0       -5.762412   -0.300998   -0.277573
      3          6           0       -6.577976    0.309985   -1.417463
      4          1           0       -4.058951    1.001309   -0.499083
      5          1           0       -3.932668   -0.507885   -1.397697
      6          1           0       -6.085180    0.128537    0.679474
      7          1           0       -5.958504   -1.379319   -0.219373
      8          1           0       -6.284300   -0.125807   -2.377900
      9          1           0       -6.411696    1.390615   -1.473947
     10          1           0       -7.650232    0.138412   -1.280756
     11          6           0       -3.429914   -0.682464    0.691076
     12          6           0       -1.926122   -0.458891    0.527954
     13          6           0       -1.110558   -1.069874    1.667845
     14          1           0       -3.755866   -0.252004    1.648079
     15          1           0       -3.629583   -1.761198    0.749465
     16          1           0       -1.730030    0.619430    0.469755
     17          1           0       -1.603354   -0.888426   -0.429092
     18          1           0       -1.276838   -2.150505    1.724329
     19          1           0       -1.404234   -0.634082    2.628282
     20          1           0       -0.038301   -0.898301    1.531137
     21          6           0        3.498568    1.055141   -0.035562
     22          6           0        2.026781    0.934891    0.361134
     23          6           0        1.348901    2.294099    0.536708
     24          1           0        4.031613    1.636245    0.729374
     25          1           0        3.573456    1.626826   -0.970957
     26          1           0        1.954591    0.362416    1.294770
     27          1           0        1.497217    0.353843   -0.404739
     28          1           0        1.391361    2.868869   -0.394117
     29          1           0        1.851334    2.877491    1.315049
     30          1           0        0.297468    2.184704    0.820224
     31          6           0        4.189966   -0.295252   -0.214819
     32          6           0        5.661753   -0.175002   -0.611515
     33          6           0        6.339633   -1.534210   -0.787091
     34          1           0        4.115078   -0.866936    0.720576
     35          1           0        3.656921   -0.876355   -0.979755
     36          1           0        6.191316    0.406046    0.154358
     37          1           0        5.733943    0.397473   -1.545153
     38          1           0        5.837200   -2.117602   -1.565431
     39          1           0        6.297173   -2.108980    0.143736
     40          1           0        7.391066   -1.424815   -1.070605
 ---------------------------------------------------------------------

 SCF Done:  E(RHF) =  -470.732708425     A.U. after   11 cycles
 E2 =    -0.1583519275D+01 EUMP2 =    -0.47231622769965D+03

 The electronic state is 1-A.
 Alpha  occ. eigenvalues --  -11.21619 -11.21610 -11.21589 -11.21568 -11.21418
 Alpha  occ. eigenvalues --  -11.21384 -11.21358 -11.21324 -11.21080 -11.21077
 Alpha  occ. eigenvalues --  -11.21062 -11.20940  -1.08458  -1.08397  -1.03591
 Alpha  occ. eigenvalues --   -1.03457  -0.96029  -0.95907  -0.87025  -0.86948
 Alpha  occ. eigenvalues --   -0.79661  -0.79529  -0.78278  -0.78216  -0.65079
 Alpha  occ. eigenvalues --   -0.65043  -0.60956  -0.60916  -0.59692  -0.59083
 Alpha  occ. eigenvalues --   -0.57834  -0.57243  -0.55280  -0.55225  -0.52730
 Alpha  occ. eigenvalues --   -0.52609  -0.52425  -0.52360  -0.49932  -0.49886
 Alpha  occ. eigenvalues --   -0.48112  -0.47711  -0.46643  -0.46591  -0.45803
 Alpha  occ. eigenvalues --   -0.45779  -0.45691  -0.45679  -0.43837  -0.43652
 Alpha virt. eigenvalues --    0.21140   0.23066   0.23393   0.25246   0.26149
 Alpha virt. eigenvalues --    0.26276   0.26665   0.27361   0.27960   0.29152
 Alpha virt. eigenvalues --    0.30188   0.30569   0.31126   0.31782   0.32303

 Mulliken charges:
               1
     1  C   -0.298267
     2  C   -0.299614
     3  C   -0.475695
     4  H    0.149563
     5  H    0.149375
     6  H    0.151920
     7  H    0.151926
     8  H    0.155117
     9  H    0.155180
    10  H    0.160216
    11  C   -0.298140
    12  C   -0.302487
    13  C   -0.483724
    14  H    0.149418
    15  H    0.149677
    16  H    0.154528
    17  H    0.151409
    18  H    0.154485
    19  H    0.153957
    20  H    0.170145
    21  C   -0.297357
    22  C   -0.303897
    23  C   -0.479783
    24  H    0.149680
    25  H    0.149573
    26  H    0.154005
    27  H    0.154009
    28  H    0.155367
    29  H    0.155110
    30  H    0.164388
    31  C   -0.298468
    32  C   -0.299637
    33  C   -0.475725
    34  H    0.149445
    35  H    0.149612
    36  H    0.151997
    37  H    0.151970
    38  H    0.155174
    39  H    0.155252
    40  H    0.160291
 Sum of Mulliken charges =  -0.00000

 Dipole moment (field-independent basis, Debye):
    X=              0.0361    Y=              0.0109    Z=             -0.0073  Tot=              0.0384
 Quadrupole moment (field-independent basis, Debye-Ang):
   XX=            -85.7244   YY=            -84.9962   ZZ=            -84.1446
   XY=              0.7507   XZ=             -0.1709   YZ=              0.6416

 Normal termination of Gaussian 16 at Thu May  6 05:31:42 2021.
