 Gaussian 16, Revision A.03,
 Gaussian 16:  EM64L-G16RevA.03 25-Dec-2016

 -------------
 #p 6-31g* mp2
 -------------

 ------------------------------------------------------
 Input file generated by CHIRIPA (05-May-2021 14:57:25)
 ------------------------------------------------------
 Symbolic Z-matrix:
 Charge =  0 Multiplicity = 1

                         Standard orientation:
 ---------------------------------------------------------------------
 Center     Atomic      Atomic             Coordinates (Angstroms)
 Number     Number       Type             X           Y           Z
 ---------------------------------------------------------------------
      1          6           0        4.673248   -1.857559    0.638384
      2          6           0        4.049441   -1.159592    1.677724
      3          6           0        3.336051    0.014115    1.416891
      4          6           0        3.266522    0.463335    0.099068
      5          6           0        3.877225   -0.209728   -0.957965
      6          6           0        4.585304   -1.381239   -0.673830
      7          1           0        5.225364   -2.768470    0.850057
      8          1           0        4.116066   -1.527164    2.697772
      9          1           0        2.843580    0.574169    2.202531
     10          1           0        3.793177    0.181391   -1.964633
     11          1           0        5.068761   -1.921223   -1.482985
     12          7           0        2.514099    1.704724   -0.189399
     13          8           0        2.467730    2.079630   -1.358985
     14          8           0        1.984967    2.279313    0.759549
     15          6           0       -1.109282   -0.788915   -1.085088
     16          6           0       -1.425452    0.521577   -0.712038
     17          6           0       -2.686320    0.826868   -0.190925
     18          6           0       -3.611073   -0.207484   -0.055882
     19          6           0       -3.326070   -1.522991   -0.418518
     20          6           0       -2.058925   -1.805225   -0.937398
     21          1           0       -0.127372   -1.017117   -1.489034
     22          1           0       -0.689926    1.312871   -0.825616
     23          1           0       -2.957564    1.832733    0.105857
     24          1           0       -4.080135   -2.290567   -0.293501
     25          1           0       -1.816158   -2.823879   -1.226278
     26          7           0       -4.949221    0.103509    0.494614
     27          8           0       -5.746321   -0.825674    0.603628
     28          8           0       -5.175620    1.270562    0.806656
 ---------------------------------------------------------------------

 SCF Done:  E(RHF) =  -868.339369490     A.U. after   16 cycles
 E2 =    -0.2599374561D+01 EUMP2 =    -0.87093874405056D+03

 The electronic state is 1-A.
 Alpha  occ. eigenvalues --  -20.61930 -20.61909 -20.60350 -20.60335 -15.86946
 Alpha  occ. eigenvalues --  -15.85392 -11.32134 -11.30685 -11.28690 -11.28630
 Alpha  occ. eigenvalues --  -11.28346 -11.27633 -11.27588 -11.27277 -11.27142
 Alpha  occ. eigenvalues --  -11.26973 -11.26326 -11.26064  -1.61008  -1.59422
 Alpha  occ. eigenvalues --   -1.40553  -1.38976  -1.20280  -1.18838  -1.09705
 Alpha  occ. eigenvalues --   -1.08258  -1.05639  -1.04207  -0.96565  -0.95108
 Alpha  occ. eigenvalues --   -0.87042  -0.85617  -0.83390  -0.81922  -0.78471
 Alpha  occ. eigenvalues --   -0.76975  -0.73141  -0.72356  -0.71611  -0.71356
 Alpha  occ. eigenvalues --   -0.70743  -0.69970  -0.65917  -0.65619  -0.64485
 Alpha  occ. eigenvalues --   -0.64176  -0.62976  -0.61532  -0.56127  -0.54764
 Alpha  occ. eigenvalues --   -0.53986  -0.53711  -0.52572  -0.52272  -0.49924
 Alpha  occ. eigenvalues --   -0.49901  -0.48373  -0.48362  -0.45990  -0.44397
 Alpha  occ. eigenvalues --   -0.38250  -0.37239  -0.36845  -0.35805
 Alpha virt. eigenvalues --    0.03993   0.05525   0.10397   0.11831   0.15536
 Alpha virt. eigenvalues --    0.17039   0.20635   0.21899   0.26579   0.27403
 Alpha virt. eigenvalues --    0.27957   0.28577   0.30347   0.31423   0.31867

 Mulliken charges:
               1
     1  C   -0.170167
     2  C   -0.218503
     3  C   -0.169853
     4  C    0.155540
     5  C   -0.175350
     6  C   -0.219129
     7  H    0.228821
     8  H    0.227287
     9  H    0.278604
    10  H    0.275853
    11  H    0.225752
    12  N    0.485083
    13  O   -0.462884
    14  O   -0.457848
    15  C   -0.173400
    16  C   -0.224716
    17  C   -0.171983
    18  C    0.158292
    19  C   -0.172871
    20  C   -0.218692
    21  H    0.221486
    22  H    0.242560
    23  H    0.278339
    24  H    0.273102
    25  H    0.219266
    26  N    0.487961
    27  O   -0.462869
    28  O   -0.459684
 Sum of Mulliken charges =  -0.00000

 Dipole moment (field-independent basis, Debye):
    X=              7.6972    Y=             -5.3687    Z=             -0.7892  Tot=              9.4177
 Quadrupole moment (field-independent basis, Debye-Ang):
   XX=           -122.0198   YY=           -104.4017   ZZ=           -100.3451
   XY=             -9.7006   XZ=              9.6376   YZ=              1.4099

 Normal termination of Gaussian 16 at Fri May  7 12:39:04 2021.
