 Gaussian 16, Revision A.03,
 Gaussian 16:  EM64L-G16RevA.03 25-Dec-2016

 -------------
 #p 6-31g* mp2
 -------------

 ------------------------------------------------------
 Input file generated by CHIRIPA (05-May-2021 14:53:15)
 ------------------------------------------------------
 Symbolic Z-matrix:
 Charge =  0 Multiplicity = 1

                         Standard orientation:
 ---------------------------------------------------------------------
 Center     Atomic      Atomic             Coordinates (Angstroms)
 Number     Number       Type             X           Y           Z
 ---------------------------------------------------------------------
      1          6           0        2.912183    0.963190    0.116138
      2          6           0        2.338041    1.462325    1.442490
      3          6           0        2.026859    2.959218    1.425967
      4          1           0        3.826379    1.526661   -0.115573
      5          1           0        2.197867    1.181269   -0.689834
      6          1           0        3.052620    1.242127    2.245924
      7          1           0        1.425210    0.897468    1.671165
      8          1           0        1.296413    3.192238    0.644461
      9          1           0        2.933070    3.538854    1.222486
     10          1           0        1.617473    3.294758    2.383921
     11          6           0        3.228383   -0.531382    0.117058
     12          6           0        3.802525   -1.030517   -1.209294
     13          6           0        4.113706   -2.527410   -1.192771
     14          1           0        3.942698   -0.749461    0.923030
     15          1           0        2.314186   -1.094853    0.348769
     16          1           0        4.715356   -0.465660   -1.437969
     17          1           0        3.087946   -0.810319   -2.012728
     18          1           0        3.207496   -3.107046   -0.989290
     19          1           0        4.844152   -2.760430   -0.411265
     20          1           0        4.523093   -2.862950   -2.150725
     21          6           0       -2.332595    1.958784   -1.445890
     22          6           0       -1.160501    1.460468   -0.867619
     23          6           0       -1.185309    0.282585   -0.114941
     24          6           0       -2.405045   -0.374350    0.039885
     25          6           0       -3.589747    0.096916   -0.523745
     26          6           0       -3.541346    1.276621   -1.272413
     27          1           0       -2.304160    2.874499   -2.029031
     28          1           0       -0.220342    1.988143   -1.000678
     29          1           0       -0.292839   -0.125447    0.343780
     30          1           0       -4.511910   -0.451240   -0.373551
     31          1           0       -4.453175    1.661288   -1.720348
     32          7           0       -2.443797   -1.622286    0.834589
     33          8           0       -3.531079   -2.182351    0.956168
     34          8           0       -1.386156   -2.016722    1.320850
 ---------------------------------------------------------------------

 SCF Done:  E(RHF) =  -669.534810598     A.U. after   15 cycles
 E2 =    -0.2093487102D+01 EUMP2 =    -0.67162829770088D+03

 The electronic state is 1-A.
 Alpha  occ. eigenvalues --  -20.60795 -20.60789 -15.85845 -11.31194 -11.27770
 Alpha  occ. eigenvalues --  -11.27745 -11.27505 -11.26781 -11.26753 -11.22256
 Alpha  occ. eigenvalues --  -11.22093 -11.21861 -11.21798 -11.21739 -11.21114
 Alpha  occ. eigenvalues --   -1.59868  -1.39423  -1.19370  -1.08963  -1.08766
 Alpha  occ. eigenvalues --   -1.04779  -1.03974  -0.96429  -0.95605  -0.87441
 Alpha  occ. eigenvalues --   -0.86177  -0.82443  -0.80060  -0.78729  -0.77503
 Alpha  occ. eigenvalues --   -0.72066  -0.71190  -0.70504  -0.65711  -0.65000
 Alpha  occ. eigenvalues --   -0.64803  -0.62220  -0.61205  -0.59802  -0.58022
 Alpha  occ. eigenvalues --   -0.55756  -0.55269  -0.53124  -0.53093  -0.52897
 Alpha  occ. eigenvalues --   -0.52817  -0.50377  -0.48826  -0.48822  -0.48344
 Alpha  occ. eigenvalues --   -0.47098  -0.46247  -0.46160  -0.44831  -0.44242
 Alpha  occ. eigenvalues --   -0.37348  -0.36363
 Alpha virt. eigenvalues --    0.05017   0.11217   0.16458   0.18429   0.22917
 Alpha virt. eigenvalues --    0.23703   0.24896   0.25438   0.27411   0.28489
 Alpha virt. eigenvalues --    0.29863   0.30918   0.31263   0.31594   0.32093

 Mulliken charges:
               1
     1  C   -0.303737
     2  C   -0.306252
     3  C   -0.475985
     4  H    0.153885
     5  H    0.139985
     6  H    0.159495
     7  H    0.153292
     8  H    0.145688
     9  H    0.158061
    10  H    0.165813
    11  C   -0.303705
    12  C   -0.299529
    13  C   -0.476987
    14  H    0.154141
    15  H    0.156725
    16  H    0.151688
    17  H    0.149996
    18  H    0.160805
    19  H    0.156371
    20  H    0.160455
    21  C   -0.171183
    22  C   -0.226571
    23  C   -0.180511
    24  C    0.158795
    25  C   -0.170021
    26  C   -0.218732
    27  H    0.226099
    28  H    0.230741
    29  H    0.286007
    30  H    0.275640
    31  H    0.223540
    32  N    0.487497
    33  O   -0.460098
    34  O   -0.461411
 Sum of Mulliken charges =  -0.00000

 Dipole moment (field-independent basis, Debye):
    X=              0.2770    Y=              4.3088    Z=             -2.6978  Tot=              5.0912
 Quadrupole moment (field-independent basis, Debye-Ang):
   XX=            -89.0184   YY=            -99.6678   ZZ=            -95.3496
   XY=            -10.0139   XZ=              8.5177   YZ=              1.3119

 Normal termination of Gaussian 16 at Thu May  6 10:36:56 2021.
