 Gaussian 16, Revision A.03,
 Gaussian 16:  EM64L-G16RevA.03 25-Dec-2016

 -------------
 #p 6-31g* mp2
 -------------

 ------------------------------------------------------
 Input file generated by CHIRIPA (05-May-2021 14:55:23)
 ------------------------------------------------------
 Symbolic Z-matrix:
 Charge =  0 Multiplicity = 1

                         Standard orientation:
 ---------------------------------------------------------------------
 Center     Atomic      Atomic             Coordinates (Angstroms)
 Number     Number       Type             X           Y           Z
 ---------------------------------------------------------------------
      1          6           0       -0.516765   -2.330580    0.914888
      2          6           0       -1.308770   -2.505721   -0.224662
      3          6           0       -2.177649   -1.495402   -0.647569
      4          6           0       -2.229464   -0.317475    0.096134
      5          6           0       -1.453093   -0.112998    1.235751
      6          6           0       -0.591323   -1.136882    1.640179
      7          1           0        0.155440   -3.120690    1.236235
      8          1           0       -1.252945   -3.431710   -0.789882
      9          1           0       -2.802019   -1.604537   -1.526017
     10          1           0       -1.530639    0.821168    1.778649
     11          1           0        0.022581   -0.998093    2.525563
     12          7           0       -3.145545    0.759285   -0.341797
     13          8           0       -3.172707    1.787672    0.330749
     14          8           0       -3.819060    0.554474   -1.349302
     15          6           0        2.520987   -0.085882   -0.430933
     16          6           0        3.698683   -1.030544   -0.188794
     17          6           0        3.404363   -2.466127   -0.624995
     18          1           0        1.640903   -0.461486    0.108805
     19          1           0        2.262264   -0.099886   -1.498764
     20          1           0        3.955998   -1.013710    0.878034
     21          1           0        4.576118   -0.652543   -0.729017
     22          1           0        3.168812   -2.503467   -1.693510
     23          1           0        2.545170   -2.866686   -0.077328
     24          1           0        4.259594   -3.124374   -0.442919
     25          6           0        2.799929    1.352925    0.000059
     26          6           0        1.622234    2.297586   -0.242081
     27          6           0        1.916553    3.733169    0.194121
     28          1           0        3.058652    1.366928    1.067889
     29          1           0        3.680013    1.728529   -0.539680
     30          1           0        0.744799    1.919585    0.298142
     31          1           0        1.364918    2.280752   -1.308909
     32          1           0        2.775747    4.133728   -0.353546
     33          1           0        2.152104    3.770509    1.262635
     34          1           0        1.061323    4.391416    0.012044
 ---------------------------------------------------------------------

 SCF Done:  E(RHF) =  -669.534241462     A.U. after   15 cycles
 E2 =    -0.2095067931D+01 EUMP2 =    -0.67162930939239D+03

 The electronic state is 1-A.
 Alpha  occ. eigenvalues --  -20.60851 -20.60846 -15.85906 -11.31325 -11.27888
 Alpha  occ. eigenvalues --  -11.27877 -11.27621 -11.26907 -11.26897 -11.22027
 Alpha  occ. eigenvalues --  -11.21723 -11.21625 -11.21540 -11.21449 -11.21013
 Alpha  occ. eigenvalues --   -1.59924  -1.39476  -1.19505  -1.08903  -1.08634
 Alpha  occ. eigenvalues --   -1.04913  -1.03779  -0.96225  -0.95713  -0.87253
 Alpha  occ. eigenvalues --   -0.86303  -0.82541  -0.79844  -0.78442  -0.77576
 Alpha  occ. eigenvalues --   -0.72123  -0.71245  -0.70612  -0.65336  -0.65150
 Alpha  occ. eigenvalues --   -0.64898  -0.62250  -0.61202  -0.59601  -0.57821
 Alpha  occ. eigenvalues --   -0.55661  -0.55311  -0.53354  -0.52994  -0.52887
 Alpha  occ. eigenvalues --   -0.52639  -0.50205  -0.48886  -0.48875  -0.48163
 Alpha  occ. eigenvalues --   -0.46906  -0.45951  -0.45885  -0.44864  -0.43989
 Alpha  occ. eigenvalues --   -0.37383  -0.36424
 Alpha virt. eigenvalues --    0.04888   0.11018   0.16258   0.20182   0.23101
 Alpha virt. eigenvalues --    0.23729   0.26218   0.26435   0.27044   0.28133
 Alpha virt. eigenvalues --    0.28302   0.30581   0.31336   0.31686   0.32015

 Mulliken charges:
               1
     1  C   -0.168842
     2  C   -0.216775
     3  C   -0.170591
     4  C    0.160063
     5  C   -0.168785
     6  C   -0.223350
     7  H    0.227428
     8  H    0.224754
     9  H    0.276264
    10  H    0.276242
    11  H    0.224789
    12  N    0.488312
    13  O   -0.460224
    14  O   -0.459932
    15  C   -0.308689
    16  C   -0.299102
    17  C   -0.474726
    18  H    0.160261
    19  H    0.149866
    20  H    0.148178
    21  H    0.154206
    22  H    0.157532
    23  H    0.144003
    24  H    0.161077
    25  C   -0.297545
    26  C   -0.301660
    27  C   -0.476315
    28  H    0.144710
    29  H    0.150233
    30  H    0.150624
    31  H    0.154613
    32  H    0.154970
    33  H    0.152204
    34  H    0.166210
 Sum of Mulliken charges =  -0.00000

 Dipole moment (field-independent basis, Debye):
    X=              3.0612    Y=             -3.7680    Z=              1.4810  Tot=              5.0756
 Quadrupole moment (field-independent basis, Debye-Ang):
   XX=           -109.6513   YY=            -92.2285   ZZ=            -90.9492
   XY=              8.5831   XZ=             -2.3342   YZ=              1.0891

 Normal termination of Gaussian 16 at Wed May  5 20:42:07 2021.
