 Gaussian 16, Revision A.03,
 Gaussian 16:  EM64L-G16RevA.03 25-Dec-2016

 -------------
 #p 6-31g* mp2
 -------------

 ------------------------------------------------------
 Input file generated by CHIRIPA (05-May-2021 14:53:11)
 ------------------------------------------------------
 Symbolic Z-matrix:
 Charge =  0 Multiplicity = 1

                         Standard orientation:
 ---------------------------------------------------------------------
 Center     Atomic      Atomic             Coordinates (Angstroms)
 Number     Number       Type             X           Y           Z
 ---------------------------------------------------------------------
      1          6           0       -3.000875    0.230208   -0.478619
      2          6           0       -4.048407   -0.630467    0.228417
      3          6           0       -4.503141   -1.821093   -0.616224
      4          1           0       -3.413720    0.590653   -1.430766
      5          1           0       -2.132794   -0.394463   -0.730840
      6          1           0       -4.913675   -0.004048    0.480463
      7          1           0       -3.633089   -0.988747    1.179081
      8          1           0       -3.654379   -2.469542   -0.856469
      9          1           0       -4.942241   -1.479248   -1.559057
     10          1           0       -5.251950   -2.422766   -0.091691
     11          6           0       -2.536368    1.424412    0.353150
     12          6           0       -1.488837    2.285087   -0.353886
     13          6           0       -1.034102    3.475714    0.490755
     14          1           0       -3.404450    2.049083    0.605370
     15          1           0       -2.123524    1.063968    1.305297
     16          1           0       -1.904154    2.643367   -1.304551
     17          1           0       -0.623569    1.658668   -0.605932
     18          1           0       -0.595003    3.133869    1.433588
     19          1           0       -1.882865    4.124162    0.731000
     20          1           0       -0.285293    4.077386   -0.033778
     21          6           0        0.067435   -1.887288    0.708276
     22          6           0        0.351442   -1.661302   -0.642573
     23          6           0        1.509609   -0.974881   -1.019435
     24          6           0        2.365576   -0.526366   -0.014723
     25          6           0        2.110263   -0.735931    1.339598
     26          6           0        0.946202   -1.424697    1.693313
     27          1           0       -0.834547   -2.421426    0.992040
     28          1           0       -0.329210   -2.019411   -1.409721
     29          1           0        1.753876   -0.786176   -2.057771
     30          1           0        2.807843   -0.366890    2.081627
     31          1           0        0.728195   -1.598758    2.743180
     32          7           0        3.594795    0.201558   -0.401438
     33          8           0        4.332800    0.586520    0.502879
     34          8           0        3.796976    0.373359   -1.601540
 ---------------------------------------------------------------------

 SCF Done:  E(RHF) =  -669.534773500     A.U. after   15 cycles
 E2 =    -0.2094555119D+01 EUMP2 =    -0.67162932861867D+03

 The electronic state is 1-A.
 Alpha  occ. eigenvalues --  -20.60859 -20.60853 -15.85914 -11.31336 -11.27901
 Alpha  occ. eigenvalues --  -11.27893 -11.27645 -11.26924 -11.26914 -11.22370
 Alpha  occ. eigenvalues --  -11.21967 -11.21902 -11.21781 -11.21722 -11.21155
 Alpha  occ. eigenvalues --   -1.59933  -1.39485  -1.19515  -1.08988  -1.08835
 Alpha  occ. eigenvalues --   -1.04923  -1.04008  -0.96458  -0.95720  -0.87477
 Alpha  occ. eigenvalues --   -0.86322  -0.82548  -0.80094  -0.78712  -0.77585
 Alpha  occ. eigenvalues --   -0.72131  -0.71257  -0.70614  -0.65673  -0.65151
 Alpha  occ. eigenvalues --   -0.64864  -0.62266  -0.61408  -0.59848  -0.58053
 Alpha  occ. eigenvalues --   -0.55797  -0.55400  -0.53294  -0.53107  -0.53018
 Alpha  occ. eigenvalues --   -0.52861  -0.50427  -0.48898  -0.48883  -0.48401
 Alpha  occ. eigenvalues --   -0.47155  -0.46236  -0.46144  -0.44878  -0.44237
 Alpha  occ. eigenvalues --   -0.37431  -0.36457
 Alpha virt. eigenvalues --    0.04921   0.10983   0.16333   0.19077   0.22967
 Alpha virt. eigenvalues --    0.23800   0.25528   0.26026   0.27617   0.28186
 Alpha virt. eigenvalues --    0.28810   0.29967   0.31171   0.31359   0.32090

 Mulliken charges:
               1
     1  C   -0.304445
     2  C   -0.300528
     3  C   -0.474700
     4  H    0.150840
     5  H    0.149675
     6  H    0.156357
     7  H    0.145560
     8  H    0.144640
     9  H    0.159455
    10  H    0.162916
    11  C   -0.296338
    12  C   -0.303012
    13  C   -0.476076
    14  H    0.150174
    15  H    0.147302
    16  H    0.151677
    17  H    0.155490
    18  H    0.154582
    19  H    0.154526
    20  H    0.164265
    21  C   -0.169491
    22  C   -0.218977
    23  C   -0.172949
    24  C    0.158925
    25  C   -0.170652
    26  C   -0.219183
    27  H    0.228602
    28  H    0.225702
    29  H    0.276767
    30  H    0.276303
    31  H    0.224283
    32  N    0.488075
    33  O   -0.459891
    34  O   -0.459876
 Sum of Mulliken charges =  -0.00000

 Dipole moment (field-independent basis, Debye):
    X=             -4.2545    Y=             -2.5157    Z=              1.3538  Tot=              5.1247
 Quadrupole moment (field-independent basis, Debye-Ang):
   XX=           -115.1405   YY=            -93.2065   ZZ=            -90.2278
   XY=             -4.5898   XZ=              4.8361   YZ=             -0.8757

 Normal termination of Gaussian 16 at Thu May  6 00:53:25 2021.
