 Gaussian 16, Revision A.03,
 Gaussian 16:  EM64L-G16RevA.03 25-Dec-2016

 -------------
 #p 6-31g* mp2
 -------------

 ------------------------------------------------------
 Input file generated by CHIRIPA (05-May-2021 14:57:21)
 ------------------------------------------------------
 Symbolic Z-matrix:
 Charge =  0 Multiplicity = 1

                         Standard orientation:
 ---------------------------------------------------------------------
 Center     Atomic      Atomic             Coordinates (Angstroms)
 Number     Number       Type             X           Y           Z
 ---------------------------------------------------------------------
      1          6           0       -2.003891   -0.131110    2.287596
      2          6           0       -1.878756    0.924370    1.378296
      3          6           0       -2.650491    0.952795    0.212893
      4          6           0       -3.541436   -0.095372   -0.012615
      5          6           0       -3.688891   -1.160820    0.874159
      6          6           0       -2.906967   -1.168507    2.033074
      7          1           0       -1.400431   -0.145136    3.190389
      8          1           0       -1.178231    1.731375    1.573364
      9          1           0       -2.573717    1.757692   -0.507984
     10          1           0       -4.395798   -1.951072    0.652340
     11          1           0       -3.006255   -1.989487    2.737473
     12          7           0       -4.363831   -0.076257   -1.242941
     13          8           0       -5.141503   -1.011692   -1.418510
     14          8           0       -4.215179    0.873798   -2.008404
     15          6           0        1.592760    1.837659    0.041933
     16          6           0        1.255748    0.505958   -0.221726
     17          6           0        2.252055   -0.466087   -0.352298
     18          6           0        3.581183   -0.069611   -0.212595
     19          6           0        3.948796    1.249137    0.050186
     20          6           0        2.935840    2.204352    0.176809
     21          1           0        0.812338    2.586230    0.141831
     22          1           0        0.213528    0.218301   -0.326965
     23          1           0        2.019246   -1.504156   -0.556333
     24          1           0        4.996520    1.505551    0.149907
     25          1           0        3.200513    3.237824    0.381578
     26          7           0        4.644741   -1.089763   -0.348736
     27          8           0        5.808285   -0.714853   -0.221279
     28          8           0        4.294675   -2.244950   -0.580323
 ---------------------------------------------------------------------

 SCF Done:  E(RHF) =  -868.335842239     A.U. after   16 cycles
 E2 =    -0.2602402954D+01 EUMP2 =    -0.87093824519276D+03

 The electronic state is 1-A.
 Alpha  occ. eigenvalues --  -20.61553 -20.61541 -20.61091 -20.61086 -15.86612
 Alpha  occ. eigenvalues --  -15.86142 -11.32186 -11.31598 -11.28816 -11.28686
 Alpha  occ. eigenvalues --  -11.28460 -11.28139 -11.28095 -11.27995 -11.27863
 Alpha  occ. eigenvalues --  -11.27709 -11.27248 -11.27061  -1.60623  -1.60164
 Alpha  occ. eigenvalues --   -1.40170  -1.39714  -1.20378  -1.19764  -1.09707
 Alpha  occ. eigenvalues --   -1.09176  -1.05830  -1.05146  -0.96503  -0.96000
 Alpha  occ. eigenvalues --   -0.87187  -0.86560  -0.83347  -0.82806  -0.78388
 Alpha  occ. eigenvalues --   -0.77811  -0.72819  -0.72361  -0.71955  -0.71487
 Alpha  occ. eigenvalues --   -0.71403  -0.70972  -0.66008  -0.65854  -0.65398
 Alpha  occ. eigenvalues --   -0.65145  -0.63131  -0.62492  -0.56226  -0.55781
 Alpha  occ. eigenvalues --   -0.54275  -0.53887  -0.53463  -0.53058  -0.49596
 Alpha  occ. eigenvalues --   -0.49567  -0.49125  -0.49111  -0.45531  -0.45099
 Alpha  occ. eigenvalues --   -0.38397  -0.37817  -0.37377  -0.36669
 Alpha virt. eigenvalues --    0.04141   0.04657   0.09874   0.11200   0.15528
 Alpha virt. eigenvalues --    0.16045   0.19132   0.21859   0.24925   0.27138
 Alpha virt. eigenvalues --    0.27544   0.29033   0.29838   0.31551   0.32303

 Mulliken charges:
               1
     1  C   -0.170161
     2  C   -0.226167
     3  C   -0.180925
     4  C    0.160777
     5  C   -0.170010
     6  C   -0.218169
     7  H    0.231245
     8  H    0.222903
     9  H    0.275279
    10  H    0.279641
    11  H    0.228692
    12  N    0.488049
    13  O   -0.456457
    14  O   -0.459396
    15  C   -0.179498
    16  C   -0.221350
    17  C   -0.173536
    18  C    0.159882
    19  C   -0.171909
    20  C   -0.217293
    21  H    0.216741
    22  H    0.234373
    23  H    0.277291
    24  H    0.276683
    25  H    0.224074
    26  N    0.487798
    27  O   -0.459405
    28  O   -0.459153
 Sum of Mulliken charges =  -0.00000

 Dipole moment (field-independent basis, Debye):
    X=             -1.0361    Y=              3.2803    Z=              4.8881  Tot=              5.9772
 Quadrupole moment (field-independent basis, Debye-Ang):
   XX=           -148.6450   YY=            -99.6854   ZZ=           -105.6801
   XY=             18.4331   XZ=            -13.2090   YZ=             -2.0980

 Normal termination of Gaussian 16 at Thu May  6 14:28:28 2021.
