 Gaussian 16, Revision A.03,
 Gaussian 16:  EM64L-G16RevA.03 25-Dec-2016

 -------------
 #p 6-31g* mp2
 -------------

 ------------------------------------------------------
 Input file generated by CHIRIPA (05-May-2021 14:51:08)
 ------------------------------------------------------
 Symbolic Z-matrix:
 Charge =  0 Multiplicity = 1

                         Standard orientation:
 ---------------------------------------------------------------------
 Center     Atomic      Atomic             Coordinates (Angstroms)
 Number     Number       Type             X           Y           Z
 ---------------------------------------------------------------------
      1          6           0        4.475773   -0.060849   -0.593167
      2          6           0        5.026210   -1.214146    0.246422
      3          6           0        6.331520   -1.781550   -0.312159
      4          1           0        4.314966   -0.409272   -1.622578
      5          1           0        5.229824    0.736568   -0.647280
      6          1           0        4.270808   -2.008567    0.300085
      7          1           0        5.185544   -0.862989    1.274000
      8          1           0        7.103606   -1.006271   -0.349941
      9          1           0        6.183672   -2.158358   -1.329389
     10          1           0        6.707284   -2.604855    0.303333
     11          6           0        3.171139    0.516951   -0.047451
     12          6           0        2.620702    1.670248   -0.887039
     13          6           0        1.315391    2.237652   -0.328459
     14          1           0        2.417087   -0.280466    0.006662
     15          1           0        3.331945    0.865374    0.981961
     16          1           0        2.461367    1.319091   -1.914618
     17          1           0        3.376104    2.464669   -0.940703
     18          1           0        1.463239    2.614460    0.688771
     19          1           0        0.543306    1.462373   -0.290677
     20          1           0        0.939627    3.060957   -0.943950
     21          6           0       -3.370195   -0.416149    0.905634
     22          6           0       -2.185938    0.534246    1.085275
     23          6           0       -1.288375    0.144813    2.260229
     24          1           0       -3.962024   -0.433325    1.831047
     25          1           0       -2.992613   -1.437305    0.757087
     26          1           0       -2.565607    1.553522    1.232059
     27          1           0       -1.596968    0.549309    0.159261
     28          1           0       -0.881924   -0.861673    2.117454
     29          1           0       -1.856066    0.148246    3.196346
     30          1           0       -0.448198    0.837502    2.370428
     31          6           0       -4.276716   -0.039953   -0.265016
     32          6           0       -5.460973   -0.990348   -0.444658
     33          6           0       -6.358536   -0.600915   -1.619611
     34          1           0       -4.654298    0.981204   -0.116469
     35          1           0       -3.684887   -0.022777   -1.190429
     36          1           0       -6.049944   -1.005411    0.481357
     37          1           0       -5.081304   -2.009624   -0.591441
     38          1           0       -5.790844   -0.604349   -2.555730
     39          1           0       -6.764988    0.405570   -1.476836
     40          1           0       -7.198713   -1.293604   -1.729810
 ---------------------------------------------------------------------

 SCF Done:  E(RHF) =  -470.733107648     A.U. after   11 cycles
 E2 =    -0.1582864544D+01 EUMP2 =    -0.47231597219213D+03

 The electronic state is 1-A.
 Alpha  occ. eigenvalues --  -11.21599 -11.21595 -11.21594 -11.21564 -11.21402
 Alpha  occ. eigenvalues --  -11.21390 -11.21343 -11.21331 -11.21070 -11.21067
 Alpha  occ. eigenvalues --  -11.21032 -11.21013  -1.08434  -1.08408  -1.03553
 Alpha  occ. eigenvalues --   -1.03483  -0.96009  -0.95923  -0.86996  -0.86968
 Alpha  occ. eigenvalues --   -0.79637  -0.79531  -0.78265  -0.78201  -0.65107
 Alpha  occ. eigenvalues --   -0.65008  -0.61052  -0.60807  -0.59409  -0.59278
 Alpha  occ. eigenvalues --   -0.57739  -0.57414  -0.55335  -0.55174  -0.52684
 Alpha  occ. eigenvalues --   -0.52664  -0.52452  -0.52279  -0.50003  -0.49840
 Alpha  occ. eigenvalues --   -0.47944  -0.47854  -0.46761  -0.46470  -0.45841
 Alpha  occ. eigenvalues --   -0.45747  -0.45720  -0.45560  -0.43784  -0.43754
 Alpha virt. eigenvalues --    0.21509   0.23115   0.23446   0.25078   0.26025
 Alpha virt. eigenvalues --    0.26593   0.26988   0.27394   0.27877   0.29154
 Alpha virt. eigenvalues --    0.29948   0.31224   0.31552   0.31931   0.32467

 Mulliken charges:
               1
     1  C   -0.298278
     2  C   -0.299620
     3  C   -0.475708
     4  H    0.149508
     5  H    0.149565
     6  H    0.151863
     7  H    0.152065
     8  H    0.155192
     9  H    0.155109
    10  H    0.160267
    11  C   -0.298280
    12  C   -0.299510
    13  C   -0.482824
    14  H    0.149493
    15  H    0.149672
    16  H    0.151566
    17  H    0.151831
    18  H    0.154865
    19  H    0.163534
    20  H    0.160157
    21  C   -0.297672
    22  C   -0.303186
    23  C   -0.477848
    24  H    0.149648
    25  H    0.149098
    26  H    0.152499
    27  H    0.154388
    28  H    0.154371
    29  H    0.154996
    30  H    0.163386
    31  C   -0.298301
    32  C   -0.299614
    33  C   -0.475693
    34  H    0.149675
    35  H    0.149456
    36  H    0.151976
    37  H    0.151803
    38  H    0.155110
    39  H    0.155224
    40  H    0.160215
 Sum of Mulliken charges =  -0.00000

 Dipole moment (field-independent basis, Debye):
    X=             -0.0011    Y=              0.0127    Z=              0.0051  Tot=              0.0137
 Quadrupole moment (field-independent basis, Debye-Ang):
   XX=            -85.7034   YY=            -84.3135   ZZ=            -84.8231
   XY=              0.5775   XZ=             -0.3771   YZ=              0.7694

 Normal termination of Gaussian 16 at Thu May  6 02:05:57 2021.
