 Gaussian 16, Revision A.03,
 Gaussian 16:  EM64L-G16RevA.03 25-Dec-2016

 -------------
 #p 6-31g* mp2
 -------------

 ------------------------------------------------------
 Input file generated by CHIRIPA (05-May-2021 14:57:22)
 ------------------------------------------------------
 Symbolic Z-matrix:
 Charge =  0 Multiplicity = 1

                         Standard orientation:
 ---------------------------------------------------------------------
 Center     Atomic      Atomic             Coordinates (Angstroms)
 Number     Number       Type             X           Y           Z
 ---------------------------------------------------------------------
      1          6           0       -4.561685    1.103433   -1.539904
      2          6           0       -4.315640   -0.268601   -1.656109
      3          6           0       -3.510405   -0.927149   -0.722053
      4          6           0       -2.964821   -0.179457    0.320341
      5          6           0       -3.191411    1.188585    0.463202
      6          6           0       -3.999776    1.826373   -0.482483
      7          1           0       -5.188426    1.606945   -2.270018
      8          1           0       -4.750706   -0.832581   -2.476285
      9          1           0       -3.303556   -1.988406   -0.788118
     10          1           0       -2.743818    1.724075    1.291651
     11          1           0       -4.189142    2.892010   -0.389732
     12          7           0       -2.110699   -0.865643    1.315340
     13          8           0       -1.641772   -0.184373    2.224524
     14          8           0       -1.926337   -2.071753    1.167195
     15          6           0        3.396706    2.535340    0.274162
     16          6           0        4.413551    1.809865   -0.355309
     17          6           0        4.263126    0.441442   -0.598905
     18          6           0        3.077447   -0.172327   -0.197973
     19          6           0        2.046149    0.523215    0.431262
     20          6           0        2.218328    1.890834    0.664750
     21          1           0        3.522010    3.598052    0.459467
     22          1           0        5.329771    2.307772   -0.659734
     23          1           0        5.034282   -0.144257   -1.084387
     24          1           0        1.144149   -0.000771    0.723249
     25          1           0        1.426950    2.451725    1.153798
     26          7           0        2.906684   -1.620590   -0.450507
     27          8           0        1.852530   -2.137979   -0.087595
     28          8           0        3.830226   -2.210926   -1.006574
 ---------------------------------------------------------------------

 SCF Done:  E(RHF) =  -868.337748059     A.U. after   16 cycles
 E2 =    -0.2599822527D+01 EUMP2 =    -0.87093757058624D+03

 The electronic state is 1-A.
 Alpha  occ. eigenvalues --  -20.60997 -20.60871 -20.60094 -20.60040 -15.85962
 Alpha  occ. eigenvalues --  -15.85119 -11.31338 -11.30574 -11.27967 -11.27843
 Alpha  occ. eigenvalues --  -11.27644 -11.27215 -11.27069 -11.26987 -11.26956
 Alpha  occ. eigenvalues --  -11.26874 -11.26260 -11.26185  -1.59999  -1.59152
 Alpha  occ. eigenvalues --   -1.39550  -1.38697  -1.19510  -1.18775  -1.08903
 Alpha  occ. eigenvalues --   -1.08169  -1.04912  -1.04182  -0.95734  -0.94976
 Alpha  occ. eigenvalues --   -0.86310  -0.85585  -0.82563  -0.81793  -0.77616
 Alpha  occ. eigenvalues --   -0.76816  -0.72166  -0.71404  -0.71258  -0.70615
 Alpha  occ. eigenvalues --   -0.70484  -0.69884  -0.65160  -0.64913  -0.64424
 Alpha  occ. eigenvalues --   -0.64194  -0.62259  -0.61508  -0.55409  -0.54721
 Alpha  occ. eigenvalues --   -0.53243  -0.53002  -0.52529  -0.52274  -0.48957
 Alpha  occ. eigenvalues --   -0.48907  -0.48120  -0.48079  -0.44930  -0.44082
 Alpha  occ. eigenvalues --   -0.37491  -0.36796  -0.36515  -0.35794
 Alpha virt. eigenvalues --    0.04899   0.05704   0.11134   0.11850   0.16378
 Alpha virt. eigenvalues --    0.17160   0.21184   0.21960   0.26991   0.27549
 Alpha virt. eigenvalues --    0.28411   0.28770   0.30954   0.31327   0.32547

 Mulliken charges:
               1
     1  C   -0.170646
     2  C   -0.218432
     3  C   -0.168987
     4  C    0.157618
     5  C   -0.173519
     6  C   -0.218321
     7  H    0.226057
     8  H    0.225387
     9  H    0.280384
    10  H    0.270875
    11  H    0.222188
    12  N    0.486203
    13  O   -0.470544
    14  O   -0.444826
    15  C   -0.171445
    16  C   -0.219314
    17  C   -0.171362
    18  C    0.157565
    19  C   -0.173793
    20  C   -0.220232
    21  H    0.222479
    22  H    0.220828
    23  H    0.273905
    24  H    0.285956
    25  H    0.222844
    26  N    0.486673
    27  O   -0.452618
    28  O   -0.464924
 Sum of Mulliken charges =  -0.00000

 Dipole moment (field-independent basis, Debye):
    X=             -2.6931    Y=              7.2093    Z=             -2.6414  Tot=              8.1366
 Quadrupole moment (field-independent basis, Debye-Ang):
   XX=            -80.4198   YY=           -104.3794   ZZ=           -106.7645
   XY=              9.7771   XZ=             10.9380   YZ=              2.5786

 Normal termination of Gaussian 16 at Wed May  5 22:36:37 2021.
