 Gaussian 16, Revision A.03,
 Gaussian 16:  EM64L-G16RevA.03 25-Dec-2016

 -------------
 #p 6-31g* mp2
 -------------

 ------------------------------------------------------
 Input file generated by CHIRIPA (05-May-2021 14:51:09)
 ------------------------------------------------------
 Symbolic Z-matrix:
 Charge =  0 Multiplicity = 1

                         Standard orientation:
 ---------------------------------------------------------------------
 Center     Atomic      Atomic             Coordinates (Angstroms)
 Number     Number       Type             X           Y           Z
 ---------------------------------------------------------------------
      1          6           0       -2.713445   -0.085998    0.171687
      2          6           0       -4.143334    0.055894    0.694437
      3          6           0       -4.466168    1.477819    1.154546
      4          1           0       -2.010013    0.214326    0.960315
      5          1           0       -2.564494    0.613125   -0.662840
      6          1           0       -4.289969   -0.644272    1.526832
      7          1           0       -4.843438   -0.244986   -0.095463
      8          1           0       -4.347624    2.186314    0.328360
      9          1           0       -3.791011    1.784759    1.959873
     10          1           0       -5.493245    1.556661    1.524353
     11          6           0       -2.375647   -1.501833   -0.292029
     12          6           0       -0.945758   -1.643725   -0.814779
     13          6           0       -0.622924   -3.065650   -1.274888
     14          1           0       -2.524599   -2.200956    0.542499
     15          1           0       -3.079079   -1.802158   -1.080657
     16          1           0       -0.245654   -1.342845   -0.024879
     17          1           0       -0.799123   -0.943559   -1.647174
     18          1           0       -1.298082   -3.372590   -2.080215
     19          1           0       -0.741468   -3.774145   -0.448702
     20          1           0        0.404153   -3.144492   -1.644695
     21          6           0        2.267226    1.501492    0.136732
     22          6           0        1.519518    1.996998   -1.101571
     23          6           0        0.970631    3.414079   -0.933048
     24          1           0        1.591764    1.534052    1.002547
     25          1           0        3.093043    2.191616    0.358426
     26          1           0        0.696205    1.305389   -1.321677
     27          1           0        2.196782    1.963073   -1.964577
     28          1           0        1.783092    4.121031   -0.736263
     29          1           0        0.273990    3.459609   -0.089710
     30          1           0        0.439870    3.748325   -1.829951
     31          6           0        2.821866    0.086339   -0.016390
     32          6           0        3.569574   -0.409167    1.221912
     33          6           0        4.118462   -1.826247    1.053391
     34          1           0        1.996048   -0.603784   -0.238084
     35          1           0        3.497328    0.053779   -0.882205
     36          1           0        2.892311   -0.375242    2.084919
     37          1           0        4.392887    0.282442    1.442019
     38          1           0        4.815102   -1.871778    0.210052
     39          1           0        3.305999   -2.533200    0.856605
     40          1           0        4.649222   -2.160493    1.950292
 ---------------------------------------------------------------------

 SCF Done:  E(RHF) =  -470.733093588     A.U. after   11 cycles
 E2 =    -0.1583998329D+01 EUMP2 =    -0.47231709191752D+03

 The electronic state is 1-A.
 Alpha  occ. eigenvalues --  -11.21697 -11.21658 -11.21576 -11.21514 -11.21486
 Alpha  occ. eigenvalues --  -11.21426 -11.21340 -11.21270 -11.21154 -11.21111
 Alpha  occ. eigenvalues --  -11.21059 -11.21016  -1.08522  -1.08370  -1.03608
 Alpha  occ. eigenvalues --   -1.03484  -0.96052  -0.95934  -0.87065  -0.86952
 Alpha  occ. eigenvalues --   -0.79696  -0.79547  -0.78418  -0.78100  -0.65194
 Alpha  occ. eigenvalues --   -0.64980  -0.61052  -0.60840  -0.59424  -0.59303
 Alpha  occ. eigenvalues --   -0.57692  -0.57522  -0.55343  -0.55217  -0.52747
 Alpha  occ. eigenvalues --   -0.52630  -0.52473  -0.52363  -0.50031  -0.49848
 Alpha  occ. eigenvalues --   -0.48061  -0.47880  -0.46834  -0.46504  -0.46170
 Alpha  occ. eigenvalues --   -0.45739  -0.45709  -0.45226  -0.43854  -0.43732
 Alpha virt. eigenvalues --    0.20379   0.22814   0.23646   0.24044   0.25892
 Alpha virt. eigenvalues --    0.25984   0.27098   0.27627   0.28297   0.29633
 Alpha virt. eigenvalues --    0.30634   0.31449   0.31779   0.31970   0.32130

 Mulliken charges:
               1
     1  C   -0.299170
     2  C   -0.299685
     3  C   -0.475805
     4  H    0.149115
     5  H    0.150232
     6  H    0.152108
     7  H    0.152214
     8  H    0.155551
     9  H    0.155063
    10  H    0.160507
    11  C   -0.297649
    12  C   -0.306522
    13  C   -0.477106
    14  H    0.149737
    15  H    0.150008
    16  H    0.155142
    17  H    0.154986
    18  H    0.155907
    19  H    0.155373
    20  H    0.161497
    21  C   -0.297388
    22  C   -0.304778
    23  C   -0.475594
    24  H    0.148732
    25  H    0.149320
    26  H    0.157660
    27  H    0.151216
    28  H    0.154863
    29  H    0.155540
    30  H    0.159540
    31  C   -0.307148
    32  C   -0.299281
    33  C   -0.475786
    34  H    0.159034
    35  H    0.149258
    36  H    0.151031
    37  H    0.151956
    38  H    0.155214
    39  H    0.154967
    40  H    0.160143
 Sum of Mulliken charges =  -0.00000

 Dipole moment (field-independent basis, Debye):
    X=             -0.0553    Y=             -0.0363    Z=             -0.0194  Tot=              0.0690
 Quadrupole moment (field-independent basis, Debye-Ang):
   XX=            -84.3038   YY=            -86.6123   ZZ=            -83.8865
   XY=              1.0779   XZ=              0.1026   YZ=             -0.6432

 Normal termination of Gaussian 16 at Thu May  6 02:08:16 2021.
