 Gaussian 16, Revision A.03,
 Gaussian 16:  EM64L-G16RevA.03 25-Dec-2016

 -------------
 #p 6-31g* mp2
 -------------

 ------------------------------------------------------
 Input file generated by CHIRIPA (05-May-2021 14:55:21)
 ------------------------------------------------------
 Symbolic Z-matrix:
 Charge =  0 Multiplicity = 1

                         Standard orientation:
 ---------------------------------------------------------------------
 Center     Atomic      Atomic             Coordinates (Angstroms)
 Number     Number       Type             X           Y           Z
 ---------------------------------------------------------------------
      1          6           0       -2.976124   -1.847334    0.816431
      2          6           0       -2.603765   -1.642297   -0.516172
      3          6           0       -2.257626   -0.365441   -0.968250
      4          6           0       -2.294949    0.688451   -0.056543
      5          6           0       -2.661659    0.516148    1.277296
      6          6           0       -3.003834   -0.769358    1.707341
      7          1           0       -3.243474   -2.842587    1.159058
      8          1           0       -2.581347   -2.477606   -1.210291
      9          1           0       -1.965580   -0.178488   -1.994493
     10          1           0       -2.674538    1.368436    1.945769
     11          1           0       -3.292617   -0.925636    2.742824
     12          7           0       -1.930605    2.044780   -0.523474
     13          8           0       -1.971481    2.956703    0.299546
     14          8           0       -1.611055    2.170265   -1.703635
     15          6           0        2.807298   -1.305888   -0.214021
     16          6           0        1.292666   -1.489573   -0.314697
     17          6           0        0.894010   -2.916807   -0.691356
     18          1           0        3.267572   -1.575306   -1.174493
     19          1           0        3.206016   -2.007794    0.531463
     20          1           0        0.896742   -0.786569   -1.058770
     21          1           0        0.835927   -1.219503    0.646067
     22          1           0        1.261485   -3.628997    0.054531
     23          1           0        1.322646   -3.193603   -1.659993
     24          1           0       -0.192995   -3.025737   -0.757794
     25          6           0        3.221495    0.115715    0.161763
     26          6           0        4.736127    0.299399    0.262439
     27          6           0        5.134783    1.726634    0.639098
     28          1           0        2.822777    0.817621   -0.583721
     29          1           0        2.761222    0.385133    1.122235
     30          1           0        5.192866    0.029330   -0.698325
     31          1           0        5.132051   -0.403605    1.006511
     32          1           0        4.706147    2.003429    1.607734
     33          1           0        4.767308    2.438823   -0.106790
     34          1           0        6.221789    1.835563    0.705535
 ---------------------------------------------------------------------

 SCF Done:  E(RHF) =  -669.534495886     A.U. after   15 cycles
 E2 =    -0.2093816733D+01 EUMP2 =    -0.67162831261864D+03

 The electronic state is 1-A.
 Alpha  occ. eigenvalues --  -20.60805 -20.60800 -15.85858 -11.31228 -11.27802
 Alpha  occ. eigenvalues --  -11.27799 -11.27550 -11.26826 -11.26810 -11.21677
 Alpha  occ. eigenvalues --  -11.21437 -11.21372 -11.21343 -11.21204 -11.20826
 Alpha  occ. eigenvalues --   -1.59878  -1.39432  -1.19415  -1.08808  -1.08376
 Alpha  occ. eigenvalues --   -1.04834  -1.03505  -0.95973  -0.95637  -0.87007
 Alpha  occ. eigenvalues --   -0.86215  -0.82474  -0.79580  -0.78166  -0.77521
 Alpha  occ. eigenvalues --   -0.72078  -0.71198  -0.70518  -0.65070  -0.65007
 Alpha  occ. eigenvalues --   -0.64854  -0.62205  -0.60905  -0.59416  -0.57628
 Alpha  occ. eigenvalues --   -0.55322  -0.55249  -0.53239  -0.52971  -0.52555
 Alpha  occ. eigenvalues --   -0.52285  -0.49904  -0.48837  -0.48831  -0.47895
 Alpha  occ. eigenvalues --   -0.46607  -0.45709  -0.45623  -0.44831  -0.43770
 Alpha  occ. eigenvalues --   -0.37352  -0.36348
 Alpha virt. eigenvalues --    0.05015   0.11109   0.16466   0.20866   0.22994
 Alpha virt. eigenvalues --    0.24384   0.26504   0.26723   0.27286   0.28300
 Alpha virt. eigenvalues --    0.28563   0.30154   0.31412   0.31733   0.32165

 Mulliken charges:
               1
     1  C   -0.170874
     2  C   -0.217272
     3  C   -0.168279
     4  C    0.160018
     5  C   -0.171258
     6  C   -0.218628
     7  H    0.226193
     8  H    0.224282
     9  H    0.275566
    10  H    0.275734
    11  H    0.223649
    12  N    0.488224
    13  O   -0.460145
    14  O   -0.461001
    15  C   -0.298375
    16  C   -0.299323
    17  C   -0.478399
    18  H    0.149600
    19  H    0.147907
    20  H    0.152980
    21  H    0.153057
    22  H    0.154450
    23  H    0.154770
    24  H    0.152995
    25  C   -0.299680
    26  C   -0.299660
    27  C   -0.475999
    28  H    0.155145
    29  H    0.149321
    30  H    0.151719
    31  H    0.150178
    32  H    0.155364
    33  H    0.158412
    34  H    0.159329
 Sum of Mulliken charges =  -0.00000

 Dipole moment (field-independent basis, Debye):
    X=             -1.3316    Y=             -4.6640    Z=              1.6583  Tot=              5.1260
 Quadrupole moment (field-independent basis, Debye-Ang):
   XX=            -89.6833   YY=           -102.5261   ZZ=            -89.9308
   XY=              9.7297   XZ=             -4.8890   YZ=              2.6880

 Normal termination of Gaussian 16 at Thu May  6 06:12:22 2021.
