 Gaussian 16, Revision A.03,
 Gaussian 16:  EM64L-G16RevA.03 25-Dec-2016

 -------------
 #p 6-31g* mp2
 -------------

 ------------------------------------------------------
 Input file generated by CHIRIPA (05-May-2021 14:53:14)
 ------------------------------------------------------
 Symbolic Z-matrix:
 Charge =  0 Multiplicity = 1

                         Standard orientation:
 ---------------------------------------------------------------------
 Center     Atomic      Atomic             Coordinates (Angstroms)
 Number     Number       Type             X           Y           Z
 ---------------------------------------------------------------------
      1          6           0        2.472981    1.050275   -0.064453
      2          6           0        2.556082    2.509558   -0.513421
      3          6           0        1.211571    3.232380   -0.426169
      4          1           0        1.731838    0.524870   -0.682190
      5          1           0        2.101698    1.012467    0.969044
      6          1           0        2.928411    2.544672   -1.545290
      7          1           0        3.297253    3.031504    0.105331
      8          1           0        0.837355    3.227004    0.602682
      9          1           0        0.466418    2.737406   -1.057318
     10          1           0        1.293897    4.274039   -0.751791
     11          6           0        3.809193    0.314326   -0.145978
     12          6           0        3.726093   -1.144957    0.302990
     13          6           0        5.070604   -1.867778    0.215739
     14          1           0        4.180476    0.352134   -1.179474
     15          1           0        4.550337    0.839732    0.471760
     16          1           0        2.984921   -1.666902   -0.315762
     17          1           0        3.353763   -1.180071    1.334860
     18          1           0        5.815757   -1.372804    0.846888
     19          1           0        5.444819   -1.862402   -0.813112
     20          1           0        4.988277   -2.909437    0.541361
     21          6           0       -0.331010   -1.894214    0.003635
     22          6           0       -1.381481   -2.184458   -0.873171
     23          6           0       -2.562356   -1.436874   -0.838545
     24          6           0       -2.659215   -0.401455    0.089795
     25          6           0       -1.630255   -0.087868    0.976471
     26          6           0       -0.458526   -0.848688    0.924036
     27          1           0        0.582770   -2.480095   -0.030180
     28          1           0       -1.285242   -2.995848   -1.589014
     29          1           0       -3.391170   -1.640035   -1.505787
     30          1           0       -1.755610    0.727069    1.679024
     31          1           0        0.355652   -0.621022    1.606186
     32          7           0       -3.904514    0.396985    0.135880
     33          8           0       -3.965007    1.304038    0.963063
     34          8           0       -4.796505    0.100630   -0.656057
 ---------------------------------------------------------------------

 SCF Done:  E(RHF) =  -669.534356268     A.U. after   15 cycles
 E2 =    -0.2093851899D+01 EUMP2 =    -0.67162820816766D+03

 The electronic state is 1-A.
 Alpha  occ. eigenvalues --  -20.60720 -20.60714 -15.85771 -11.31136 -11.27682
 Alpha  occ. eigenvalues --  -11.27658 -11.27379 -11.26721 -11.26648 -11.22759
 Alpha  occ. eigenvalues --  -11.22210 -11.22115 -11.22056 -11.21971 -11.21402
 Alpha  occ. eigenvalues --   -1.59795  -1.39348  -1.19296  -1.09242  -1.08683
 Alpha  occ. eigenvalues --   -1.04695  -1.04265  -0.96675  -0.95527  -0.87696
 Alpha  occ. eigenvalues --   -0.86095  -0.82364  -0.80382  -0.79082  -0.77390
 Alpha  occ. eigenvalues --   -0.71989  -0.71118  -0.70397  -0.65871  -0.64938
 Alpha  occ. eigenvalues --   -0.64698  -0.62050  -0.61660  -0.60082  -0.58304
 Alpha  occ. eigenvalues --   -0.55947  -0.55201  -0.53388  -0.53242  -0.52963
 Alpha  occ. eigenvalues --   -0.52714  -0.50619  -0.48762  -0.48745  -0.48657
 Alpha  occ. eigenvalues --   -0.47424  -0.46532  -0.46463  -0.44754  -0.44515
 Alpha  occ. eigenvalues --   -0.37231  -0.36245
 Alpha virt. eigenvalues --    0.05078   0.11322   0.16466   0.19650   0.22732
 Alpha virt. eigenvalues --    0.23204   0.24163   0.25705   0.27098   0.28479
 Alpha virt. eigenvalues --    0.29211   0.30648   0.30919   0.31305   0.31836

 Mulliken charges:
               1
     1  C   -0.302735
     2  C   -0.300084
     3  C   -0.475903
     4  H    0.156562
     5  H    0.140692
     6  H    0.153638
     7  H    0.152698
     8  H    0.152898
     9  H    0.158690
    10  H    0.163647
    11  C   -0.297499
    12  C   -0.304607
    13  C   -0.475471
    14  H    0.152696
    15  H    0.152640
    16  H    0.146138
    17  H    0.147299
    18  H    0.159114
    19  H    0.158267
    20  H    0.160176
    21  C   -0.176266
    22  C   -0.219119
    23  C   -0.171710
    24  C    0.158481
    25  C   -0.172977
    26  C   -0.214639
    27  H    0.229921
    28  H    0.223066
    29  H    0.275151
    30  H    0.275137
    31  H    0.227086
    32  N    0.488045
    33  O   -0.460323
    34  O   -0.460707
 Sum of Mulliken charges =  -0.00000

 Dipole moment (field-independent basis, Debye):
    X=              4.5328    Y=             -2.7100    Z=             -0.2335  Tot=              5.2863
 Quadrupole moment (field-independent basis, Debye-Ang):
   XX=           -118.2771   YY=            -91.6593   ZZ=            -91.5040
   XY=              7.6433   XZ=              2.4958   YZ=              2.3565

 Normal termination of Gaussian 16 at Wed May  5 17:06:21 2021.
