 Gaussian 16, Revision A.03,
 Gaussian 16:  EM64L-G16RevA.03 25-Dec-2016

 -------------
 #p 6-31g* mp2
 -------------

 ------------------------------------------------------
 Input file generated by CHIRIPA (05-May-2021 14:57:22)
 ------------------------------------------------------
 Symbolic Z-matrix:
 Charge =  0 Multiplicity = 1

                         Standard orientation:
 ---------------------------------------------------------------------
 Center     Atomic      Atomic             Coordinates (Angstroms)
 Number     Number       Type             X           Y           Z
 ---------------------------------------------------------------------
      1          6           0        3.041123   -2.378008   -0.699565
      2          6           0        1.880137   -1.728081   -1.131103
      3          6           0        1.676731   -0.374476   -0.846623
      4          6           0        2.659407    0.301670   -0.125191
      5          6           0        3.826665   -0.317959    0.318498
      6          6           0        4.008975   -1.672117    0.022585
      7          1           0        3.190940   -3.429736   -0.924997
      8          1           0        1.126790   -2.273774   -1.692114
      9          1           0        0.787232    0.153303   -1.168584
     10          1           0        4.559725    0.252475    0.875855
     11          1           0        4.911587   -2.174278    0.358994
     12          7           0        2.455237    1.734964    0.182027
     13          8           0        3.336100    2.308311    0.819201
     14          8           0        1.418211    2.257893   -0.220166
     15          6           0       -2.773861    2.365425   -0.495188
     16          6           0       -3.516217    1.417627   -1.207302
     17          6           0       -3.479023    0.068008   -0.844405
     18          6           0       -2.685245   -0.300453    0.240695
     19          6           0       -1.934318    0.620187    0.969955
     20          6           0       -1.986669    1.964388    0.589255
     21          1           0       -2.808642    3.411737   -0.784010
     22          1           0       -4.128438    1.726200   -2.049924
     23          1           0       -4.043760   -0.686637   -1.378261
     24          1           0       -1.333264    0.282273    1.805399
     25          1           0       -1.409100    2.698271    1.144120
     26          7           0       -2.637847   -1.726367    0.634302
     27          8           0       -1.930728   -2.025391    1.594097
     28          8           0       -3.308711   -2.517973   -0.024437
 ---------------------------------------------------------------------

 SCF Done:  E(RHF) =  -868.340121333     A.U. after   16 cycles
 E2 =    -0.2600191932D+01 EUMP2 =    -0.87094031326536D+03

 The electronic state is 1-A.
 Alpha  occ. eigenvalues --  -20.61161 -20.61124 -20.60830 -20.60815 -15.86171
 Alpha  occ. eigenvalues --  -15.85864 -11.31218 -11.31007 -11.27755 -11.27721
 Alpha  occ. eigenvalues --  -11.27523 -11.27418 -11.27400 -11.27076 -11.26696
 Alpha  occ. eigenvalues --  -11.26644 -11.26504 -11.26279  -1.60221  -1.59913
 Alpha  occ. eigenvalues --   -1.39781  -1.39468  -1.19353  -1.19113  -1.08805
 Alpha  occ. eigenvalues --   -1.08530  -1.04707  -1.04441  -0.95696  -0.95415
 Alpha  occ. eigenvalues --   -0.86119  -0.85837  -0.82549  -0.82229  -0.77638
 Alpha  occ. eigenvalues --   -0.77326  -0.72413  -0.72078  -0.71537  -0.71250
 Alpha  occ. eigenvalues --   -0.70450  -0.70165  -0.65010  -0.64729  -0.64702
 Alpha  occ. eigenvalues --   -0.64382  -0.62064  -0.61776  -0.55207  -0.54905
 Alpha  occ. eigenvalues --   -0.53059  -0.52935  -0.52667  -0.52484  -0.49173
 Alpha  occ. eigenvalues --   -0.49134  -0.48852  -0.48815  -0.45261  -0.44920
 Alpha  occ. eigenvalues --   -0.37313  -0.37057  -0.36309  -0.35967
 Alpha virt. eigenvalues --    0.04793   0.05202   0.11203   0.11774   0.16334
 Alpha virt. eigenvalues --    0.16854   0.21505   0.21900   0.27358   0.27826
 Alpha virt. eigenvalues --    0.28337   0.28680   0.31100   0.31520   0.32406

 Mulliken charges:
               1
     1  C   -0.168399
     2  C   -0.215715
     3  C   -0.173389
     4  C    0.155967
     5  C   -0.170980
     6  C   -0.218251
     7  H    0.228368
     8  H    0.227704
     9  H    0.275929
    10  H    0.274523
    11  H    0.224012
    12  N    0.488359
    13  O   -0.459431
    14  O   -0.469018
    15  C   -0.172265
    16  C   -0.219314
    17  C   -0.176087
    18  C    0.153027
    19  C   -0.178763
    20  C   -0.203994
    21  H    0.228923
    22  H    0.222252
    23  H    0.272496
    24  H    0.274758
    25  H    0.236977
    26  N    0.486962
    27  O   -0.461011
    28  O   -0.463639
 Sum of Mulliken charges =  -0.00000

 Dipole moment (field-independent basis, Debye):
    X=              0.7121    Y=              0.0943    Z=             -2.4197  Tot=              2.5240
 Quadrupole moment (field-independent basis, Debye-Ang):
   XX=            -95.2595   YY=           -111.1545   ZZ=           -102.3412
   XY=            -27.0271   XZ=              5.6866   YZ=              3.2423

 Normal termination of Gaussian 16 at Fri May  7 00:11:08 2021.
