 Gaussian 16, Revision A.03,
 Gaussian 16:  EM64L-G16RevA.03 25-Dec-2016

 -------------
 #p 6-31g* mp2
 -------------

 ------------------------------------------------------
 Input file generated by CHIRIPA (05-May-2021 14:51:08)
 ------------------------------------------------------
 Symbolic Z-matrix:
 Charge =  0 Multiplicity = 1

                         Standard orientation:
 ---------------------------------------------------------------------
 Center     Atomic      Atomic             Coordinates (Angstroms)
 Number     Number       Type             X           Y           Z
 ---------------------------------------------------------------------
      1          6           0        3.317199    0.235428    0.485147
      2          6           0        3.960311   -0.876551   -0.344247
      3          6           0        4.782323   -1.847026    0.504439
      4          1           0        4.103065    0.787583    1.018518
      5          1           0        2.674790   -0.215183    1.254337
      6          1           0        4.600235   -0.423940   -1.112529
      7          1           0        3.172839   -1.426001   -0.875856
      8          1           0        4.152493   -2.325467    1.261412
      9          1           0        5.587999   -1.317713    1.023394
     10          1           0        5.233027   -2.633806   -0.108509
     11          6           0        2.492146    1.213619   -0.349214
     12          6           0        1.849034    2.325599    0.480180
     13          6           0        1.027022    3.296074   -0.368505
     14          1           0        3.134556    1.664231   -1.118404
     15          1           0        1.706280    0.661465   -0.882585
     16          1           0        2.636506    2.875049    1.011789
     17          1           0        1.209110    1.872988    1.248462
     18          1           0        0.221346    2.766761   -0.887461
     19          1           0        1.656852    3.774515   -1.125479
     20          1           0        0.576319    4.082853    0.244442
     21          6           0       -2.384741   -1.259588    0.095769
     22          6           0       -1.076612   -1.090762   -0.677717
     23          6           0       -0.046433   -2.168740   -0.339355
     24          1           0       -2.171384   -1.239567    1.173277
     25          1           0       -2.805519   -2.251189   -0.121178
     26          1           0       -0.659134   -0.099236   -0.460452
     27          1           0       -1.293132   -1.110995   -1.753508
     28          1           0       -0.439039   -3.163673   -0.572953
     29          1           0        0.198561   -2.146166    0.727449
     30          1           0        0.880983   -2.028942   -0.903460
     31          6           0       -3.424605   -0.189460   -0.231703
     32          6           0       -4.732734   -0.358286    0.541784
     33          6           0       -5.762913    0.719692    0.203421
     34          1           0       -3.003826    0.802142   -0.014754
     35          1           0       -3.637961   -0.209480   -1.309210
     36          1           0       -4.516214   -0.338053    1.617575
     37          1           0       -5.150211   -1.349812    0.324520
     38          1           0       -6.007906    0.697118   -0.863383
     39          1           0       -5.370307    1.714625    0.437020
     40          1           0       -6.690329    0.579894    0.767528
 ---------------------------------------------------------------------

 SCF Done:  E(RHF) =  -470.732762904     A.U. after   11 cycles
 E2 =    -0.1584429257D+01 EUMP2 =    -0.47231719216023D+03

 The electronic state is 1-A.
 Alpha  occ. eigenvalues --  -11.21694 -11.21635 -11.21614 -11.21559 -11.21465
 Alpha  occ. eigenvalues --  -11.21401 -11.21367 -11.21307 -11.21162 -11.21092
 Alpha  occ. eigenvalues --  -11.21090 -11.21036  -1.08509  -1.08398  -1.03597
 Alpha  occ. eigenvalues --   -1.03520  -0.96054  -0.95955  -0.87076  -0.86969
 Alpha  occ. eigenvalues --   -0.79694  -0.79555  -0.78336  -0.78202  -0.65321
 Alpha  occ. eigenvalues --   -0.64918  -0.61039  -0.60882  -0.59423  -0.59314
 Alpha  occ. eigenvalues --   -0.57675  -0.57561  -0.55396  -0.55171  -0.52797
 Alpha  occ. eigenvalues --   -0.52639  -0.52468  -0.52383  -0.50045  -0.49852
 Alpha  occ. eigenvalues --   -0.48079  -0.47829  -0.46764  -0.46577  -0.45939
 Alpha  occ. eigenvalues --   -0.45823  -0.45715  -0.45471  -0.43813  -0.43760
 Alpha virt. eigenvalues --    0.19519   0.22544   0.23438   0.24881   0.25746
 Alpha virt. eigenvalues --    0.26155   0.26936   0.27433   0.28514   0.29892
 Alpha virt. eigenvalues --    0.29953   0.31211   0.31793   0.32041   0.32595

 Mulliken charges:
               1
     1  C   -0.298171
     2  C   -0.304723
     3  C   -0.475473
     4  H    0.149527
     5  H    0.150310
     6  H    0.151719
     7  H    0.156416
     8  H    0.155540
     9  H    0.154976
    10  H    0.160065
    11  C   -0.304617
    12  C   -0.299726
    13  C   -0.477419
    14  H    0.149432
    15  H    0.156233
    16  H    0.152252
    17  H    0.151136
    18  H    0.156054
    19  H    0.155608
    20  H    0.160133
    21  C   -0.298211
    22  C   -0.305316
    23  C   -0.482312
    24  H    0.149630
    25  H    0.149913
    26  H    0.156693
    27  H    0.152351
    28  H    0.156033
    29  H    0.155218
    30  H    0.166190
    31  C   -0.298626
    32  C   -0.299677
    33  C   -0.475785
    34  H    0.149755
    35  H    0.149813
    36  H    0.152007
    37  H    0.152023
    38  H    0.155256
    39  H    0.155408
    40  H    0.160365
 Sum of Mulliken charges =  -0.00000

 Dipole moment (field-independent basis, Debye):
    X=             -0.0261    Y=             -0.0191    Z=             -0.0120  Tot=              0.0345
 Quadrupole moment (field-independent basis, Debye-Ang):
   XX=            -85.1064   YY=            -85.2077   ZZ=            -84.4377
   XY=              1.7938   XZ=             -0.2523   YZ=              0.8468

 Normal termination of Gaussian 16 at Thu May  6 13:12:05 2021.
