 Gaussian 16, Revision A.03,
 Gaussian 16:  EM64L-G16RevA.03 25-Dec-2016

 -------------
 #p 6-31g* mp2
 -------------

 ------------------------------------------------------
 Input file generated by CHIRIPA (05-May-2021 14:51:11)
 ------------------------------------------------------
 Symbolic Z-matrix:
 Charge =  0 Multiplicity = 1

                         Standard orientation:
 ---------------------------------------------------------------------
 Center     Atomic      Atomic             Coordinates (Angstroms)
 Number     Number       Type             X           Y           Z
 ---------------------------------------------------------------------
      1          6           0       -2.663657    0.441887   -0.140704
      2          6           0       -2.369525    0.855766   -1.582985
      3          6           0       -3.059800    2.162375   -1.975525
      4          1           0       -3.749517    0.338272   -0.009877
      5          1           0       -2.342461    1.245232    0.536691
      6          1           0       -2.689914    0.051294   -2.257368
      7          1           0       -1.284227    0.958222   -1.710445
      8          1           0       -2.732446    2.981082   -1.326557
      9          1           0       -4.146121    2.069002   -1.876587
     10          1           0       -2.835964    2.439517   -3.010392
     11          6           0       -1.980584   -0.862441    0.266564
     12          6           0       -2.274716   -1.276320    1.708845
     13          6           0       -1.584441   -2.582929    2.101385
     14          1           0       -2.301780   -1.665786   -0.410831
     15          1           0       -0.894723   -0.758826    0.135737
     16          1           0       -3.360014   -1.378776    1.836305
     17          1           0       -1.954326   -0.471848    2.383228
     18          1           0       -0.498120   -2.489556    2.002447
     19          1           0       -1.911794   -3.401636    1.452417
     20          1           0       -1.808277   -2.860071    3.136252
     21          6           0        2.672470   -0.164486   -0.628828
     22          6           0        2.015058   -1.502656   -0.968085
     23          6           0        2.727327   -2.240554   -2.102093
     24          1           0        2.687290    0.467714   -1.527186
     25          1           0        3.721448   -0.338957   -0.352061
     26          1           0        0.967253   -1.325865   -1.242793
     27          1           0        2.001629   -2.131671   -0.068765
     28          1           0        3.768704   -2.445883   -1.833813
     29          1           0        2.728450   -1.635497   -3.014511
     30          1           0        2.240822   -3.194514   -2.328221
     31          6           0        1.971772    0.585040    0.502968
     32          6           0        2.629183    1.923210    0.842224
     33          6           0        1.916914    2.661108    1.976233
     34          1           0        0.922794    0.759511    0.226201
     35          1           0        1.956952   -0.047160    1.401327
     36          1           0        2.642612    2.552226   -0.057095
     37          1           0        3.676988    1.746418    1.116933
     38          1           0        1.915791    2.056051    2.888650
     39          1           0        0.875537    2.866437    1.707952
     40          1           0        2.403418    3.615068    2.202360
 ---------------------------------------------------------------------

 SCF Done:  E(RHF) =  -470.732534816     A.U. after   11 cycles
 E2 =    -0.1584996713D+01 EUMP2 =    -0.47231753152937D+03

 The electronic state is 1-A.
 Alpha  occ. eigenvalues --  -11.21678 -11.21664 -11.21614 -11.21548 -11.21487
 Alpha  occ. eigenvalues --  -11.21419 -11.21390 -11.21251 -11.21148 -11.21116
 Alpha  occ. eigenvalues --  -11.21084 -11.21028  -1.08538  -1.08393  -1.03585
 Alpha  occ. eigenvalues --   -1.03524  -0.96042  -0.95969  -0.87054  -0.86989
 Alpha  occ. eigenvalues --   -0.79672  -0.79584  -0.78548  -0.78036  -0.65367
 Alpha  occ. eigenvalues --   -0.64851  -0.60989  -0.60923  -0.59420  -0.59325
 Alpha  occ. eigenvalues --   -0.57662  -0.57576  -0.55376  -0.55223  -0.52740
 Alpha  occ. eigenvalues --   -0.52669  -0.52465  -0.52398  -0.49982  -0.49928
 Alpha  occ. eigenvalues --   -0.48043  -0.47868  -0.46776  -0.46674  -0.46518
 Alpha  occ. eigenvalues --   -0.45805  -0.45725  -0.44809  -0.43837  -0.43764
 Alpha virt. eigenvalues --    0.19811   0.22739   0.23341   0.24050   0.25243
 Alpha virt. eigenvalues --    0.26048   0.26758   0.27914   0.28584   0.30625
 Alpha virt. eigenvalues --    0.30989   0.31475   0.31754   0.31880   0.32020

 Mulliken charges:
               1
     1  C   -0.297960
     2  C   -0.302397
     3  C   -0.475516
     4  H    0.149960
     5  H    0.148863
     6  H    0.152358
     7  H    0.151968
     8  H    0.155058
     9  H    0.155695
    10  H    0.160265
    11  C   -0.310800
    12  C   -0.298710
    13  C   -0.476792
    14  H    0.148501
    15  H    0.164308
    16  H    0.151499
    17  H    0.151948
    18  H    0.156135
    19  H    0.154996
    20  H    0.159848
    21  C   -0.297890
    22  C   -0.306338
    23  C   -0.475267
    24  H    0.149496
    25  H    0.149868
    26  H    0.158300
    27  H    0.152148
    28  H    0.155082
    29  H    0.155195
    30  H    0.160690
    31  C   -0.305803
    32  C   -0.299098
    33  C   -0.475792
    34  H    0.155305
    35  H    0.149597
    36  H    0.152174
    37  H    0.152442
    38  H    0.155388
    39  H    0.154499
    40  H    0.160778
 Sum of Mulliken charges =  -0.00000

 Dipole moment (field-independent basis, Debye):
    X=              0.0310    Y=              0.0010    Z=             -0.0112  Tot=              0.0330
 Quadrupole moment (field-independent basis, Debye-Ang):
   XX=            -84.1251   YY=            -85.5987   ZZ=            -85.0616
   XY=              0.8098   XZ=              0.8582   YZ=             -0.2352

 Normal termination of Gaussian 16 at Thu May  6 03:50:30 2021.
