 Gaussian 16, Revision A.03,
 Gaussian 16:  EM64L-G16RevA.03 25-Dec-2016

 -------------
 #p 6-31g* mp2
 -------------

 ------------------------------------------------------
 Input file generated by CHIRIPA (05-May-2021 14:51:11)
 ------------------------------------------------------
 Symbolic Z-matrix:
 Charge =  0 Multiplicity = 1

                         Standard orientation:
 ---------------------------------------------------------------------
 Center     Atomic      Atomic             Coordinates (Angstroms)
 Number     Number       Type             X           Y           Z
 ---------------------------------------------------------------------
      1          6           0       -3.394446    0.798598    0.247083
      2          6           0       -3.461450    2.177660   -0.409944
      3          6           0       -2.503390    3.183813    0.228470
      4          1           0       -3.623884    0.897623    1.316895
      5          1           0       -2.365446    0.418715    0.181949
      6          1           0       -4.490318    2.554229   -0.344815
      7          1           0       -3.232014    2.075312   -1.478354
      8          1           0       -1.468995    2.833740    0.150519
      9          1           0       -2.734448    3.315377    1.290498
     10          1           0       -2.567677    4.162844   -0.256530
     11          6           0       -4.346501   -0.218200   -0.380167
     12          6           0       -4.279498   -1.597262    0.276860
     13          6           0       -5.237557   -2.603415   -0.361554
     14          1           0       -5.375501    0.161683   -0.315032
     15          1           0       -4.117063   -0.317225   -1.449979
     16          1           0       -4.508933   -1.494914    1.345270
     17          1           0       -3.250629   -1.973831    0.211732
     18          1           0       -5.006499   -2.734979   -1.423582
     19          1           0       -6.271952   -2.253342   -0.283603
     20          1           0       -5.173270   -3.582446    0.123446
     21          6           0        4.465720   -0.137506   -0.387108
     22          6           0        5.814281   -0.243565    0.325717
     23          6           0        6.995439    0.064742   -0.594938
     24          1           0        4.455205   -0.826599   -1.242669
     25          1           0        4.355621    0.874894   -0.799809
     26          1           0        5.921206   -1.255044    0.738141
     27          1           0        5.821515    0.445722    1.179794
     28          1           0        6.916120    1.080177   -0.996437
     29          1           0        7.016376   -0.630253   -1.440600
     30          1           0        7.949542   -0.016956   -0.064963
     31          6           0        3.275227   -0.442893    0.520192
     32          6           0        1.926666   -0.336833   -0.192634
     33          6           0        0.745508   -0.645140    0.728021
     34          1           0        3.385327   -1.455292    0.932891
     35          1           0        3.285742    0.246202    1.375752
     36          1           0        1.919432   -1.026120   -1.046711
     37          1           0        1.819742    0.674646   -0.605058
     38          1           0        0.724571    0.049855    1.573683
     39          1           0        0.824828   -1.660575    1.129521
     40          1           0       -0.208595   -0.563442    0.198046
 ---------------------------------------------------------------------

 SCF Done:  E(RHF) =  -470.733311734     A.U. after   11 cycles
 E2 =    -0.1582638255D+01 EUMP2 =    -0.47231594998904D+03

 The electronic state is 1-A.
 Alpha  occ. eigenvalues --  -11.21651 -11.21617 -11.21579 -11.21574 -11.21432
 Alpha  occ. eigenvalues --  -11.21372 -11.21368 -11.21302 -11.21117 -11.21083
 Alpha  occ. eigenvalues --  -11.21055 -11.21051  -1.08460  -1.08403  -1.03563
 Alpha  occ. eigenvalues --   -1.03504  -0.96018  -0.95951  -0.87039  -0.86964
 Alpha  occ. eigenvalues --   -0.79633  -0.79560  -0.78274  -0.78211  -0.65093
 Alpha  occ. eigenvalues --   -0.65048  -0.60971  -0.60893  -0.59411  -0.59309
 Alpha  occ. eigenvalues --   -0.57663  -0.57532  -0.55294  -0.55249  -0.52776
 Alpha  occ. eigenvalues --   -0.52639  -0.52456  -0.52333  -0.49953  -0.49891
 Alpha  occ. eigenvalues --   -0.47962  -0.47875  -0.46664  -0.46591  -0.45813
 Alpha  occ. eigenvalues --   -0.45758  -0.45733  -0.45681  -0.43780  -0.43724
 Alpha virt. eigenvalues --    0.21018   0.23027   0.23901   0.24585   0.25849
 Alpha virt. eigenvalues --    0.26582   0.27129   0.27478   0.27824   0.29030
 Alpha virt. eigenvalues --    0.31039   0.31578   0.31757   0.31922   0.32086

 Mulliken charges:
               1
     1  C   -0.307333
     2  C   -0.298996
     3  C   -0.475957
     4  H    0.149730
     5  H    0.158250
     6  H    0.151862
     7  H    0.151560
     8  H    0.155361
     9  H    0.155170
    10  H    0.160027
    11  C   -0.297740
    12  C   -0.300304
    13  C   -0.475676
    14  H    0.149477
    15  H    0.149157
    16  H    0.152124
    17  H    0.152392
    18  H    0.155038
    19  H    0.155159
    20  H    0.160222
    21  C   -0.298277
    22  C   -0.299676
    23  C   -0.475725
    24  H    0.149638
    25  H    0.149612
    26  H    0.151961
    27  H    0.152046
    28  H    0.155234
    29  H    0.155176
    30  H    0.160326
    31  C   -0.298658
    32  C   -0.299186
    33  C   -0.482709
    34  H    0.149673
    35  H    0.149912
    36  H    0.151851
    37  H    0.151731
    38  H    0.156195
    39  H    0.155701
    40  H    0.165652
 Sum of Mulliken charges =  -0.00000

 Dipole moment (field-independent basis, Debye):
    X=              0.0245    Y=             -0.0080    Z=              0.0156  Tot=              0.0302
 Quadrupole moment (field-independent basis, Debye-Ang):
   XX=            -85.6157   YY=            -84.4950   ZZ=            -84.6974
   XY=             -0.9791   XZ=             -0.2424   YZ=              0.2592

 Normal termination of Gaussian 16 at Wed May  5 21:26:54 2021.
