 Gaussian 16, Revision A.03,
 Gaussian 16:  EM64L-G16RevA.03 25-Dec-2016

 -------------
 #p 6-31g* mp2
 -------------

 ------------------------------------------------------
 Input file generated by CHIRIPA (05-May-2021 14:55:25)
 ------------------------------------------------------
 Symbolic Z-matrix:
 Charge =  0 Multiplicity = 1

                         Standard orientation:
 ---------------------------------------------------------------------
 Center     Atomic      Atomic             Coordinates (Angstroms)
 Number     Number       Type             X           Y           Z
 ---------------------------------------------------------------------
      1          6           0        1.517007    1.790149    0.067966
      2          6           0        1.485594    0.776054    1.030851
      3          6           0        2.442166   -0.243453    1.019743
      4          6           0        3.420368   -0.217790    0.026892
      5          6           0        3.478188    0.778824   -0.946097
      6          6           0        2.511451    1.788300   -0.915700
      7          1           0        0.769971    2.578231    0.084087
      8          1           0        0.714460    0.774946    1.795962
      9          1           0        2.441249   -1.040667    1.753137
     10          1           0        4.259160    0.753124   -1.696324
     11          1           0        2.538300    2.574588   -1.664750
     12          7           0        4.438429   -1.291787    0.004923
     13          8           0        5.289870   -1.246548   -0.880311
     14          8           0        4.365667   -2.158489    0.873353
     15          6           0       -4.108437    0.800813    0.102375
     16          6           0       -2.673376    1.325375    0.043912
     17          6           0       -2.579921    2.824634    0.329015
     18          1           0       -4.723448    1.352269   -0.621919
     19          1           0       -4.528879    1.013116    1.095125
     20          1           0       -2.255298    1.110912   -0.947971
     21          1           0       -2.061668    0.772474    0.768294
     22          1           0       -2.971592    3.052396    1.325669
     23          1           0       -3.166323    3.392758   -0.400348
     24          1           0       -1.545301    3.178494    0.282068
     25          6           0       -4.218166   -0.696410   -0.180489
     26          6           0       -5.653228   -1.220971   -0.122025
     27          6           0       -5.746682   -2.720231   -0.407128
     28          1           0       -3.797724   -0.908713   -1.173238
     29          1           0       -3.603155   -1.247867    0.543805
     30          1           0       -6.264936   -0.668071   -0.846407
     31          1           0       -6.071306   -1.006508    0.869858
     32          1           0       -5.160282   -3.288354    0.322235
     33          1           0       -5.355011   -2.947993   -1.403782
     34          1           0       -6.781302   -3.074091   -0.360180
 ---------------------------------------------------------------------

 SCF Done:  E(RHF) =  -669.535407617     A.U. after   15 cycles
 E2 =    -0.2091438351D+01 EUMP2 =    -0.67162684596835D+03

 The electronic state is 1-A.
 Alpha  occ. eigenvalues --  -20.60738 -20.60733 -15.85792 -11.31153 -11.27724
 Alpha  occ. eigenvalues --  -11.27720 -11.27446 -11.26735 -11.26725 -11.22574
 Alpha  occ. eigenvalues --  -11.22259 -11.22112 -11.22038 -11.21919 -11.21400
 Alpha  occ. eigenvalues --   -1.59814  -1.39368  -1.19325  -1.09117  -1.08718
 Alpha  occ. eigenvalues --   -1.04729  -1.04248  -0.96702  -0.95554  -0.87715
 Alpha  occ. eigenvalues --   -0.86125  -0.82391  -0.80319  -0.78877  -0.77437
 Alpha  occ. eigenvalues --   -0.72010  -0.71137  -0.70459  -0.65746  -0.64977
 Alpha  occ. eigenvalues --   -0.64739  -0.62088  -0.61625  -0.60151  -0.58318
 Alpha  occ. eigenvalues --   -0.55962  -0.55254  -0.53396  -0.53090  -0.53047
 Alpha  occ. eigenvalues --   -0.52822  -0.50618  -0.48781  -0.48766  -0.48616
 Alpha  occ. eigenvalues --   -0.47341  -0.46427  -0.46321  -0.44775  -0.44492
 Alpha  occ. eigenvalues --   -0.37291  -0.36330
 Alpha virt. eigenvalues --    0.05090   0.11263   0.16550   0.19152   0.22559
 Alpha virt. eigenvalues --    0.23970   0.25101   0.25968   0.26482   0.27640
 Alpha virt. eigenvalues --    0.28762   0.29631   0.30895   0.31624   0.32070

 Mulliken charges:
               1
     1  C   -0.174127
     2  C   -0.221138
     3  C   -0.171089
     4  C    0.158383
     5  C   -0.170699
     6  C   -0.220478
     7  H    0.233512
     8  H    0.224162
     9  H    0.275418
    10  H    0.275429
    11  H    0.223705
    12  N    0.488022
    13  O   -0.460532
    14  O   -0.460561
    15  C   -0.299018
    16  C   -0.301083
    17  C   -0.479122
    18  H    0.151724
    19  H    0.150547
    20  H    0.155261
    21  H    0.147684
    22  H    0.159122
    23  H    0.160950
    24  H    0.149064
    25  C   -0.298704
    26  C   -0.300252
    27  C   -0.476130
    28  H    0.151346
    29  H    0.149730
    30  H    0.152629
    31  H    0.152294
    32  H    0.156007
    33  H    0.156289
    34  H    0.161655
 Sum of Mulliken charges =  -0.00000

 Dipole moment (field-independent basis, Debye):
    X=             -3.7953    Y=              3.7349    Z=              0.0331  Tot=              5.3249
 Quadrupole moment (field-independent basis, Debye-Ang):
   XX=           -118.3368   YY=            -97.2739   ZZ=            -90.8344
   XY=             14.5727   XZ=             -1.6561   YZ=             -2.3355

 Normal termination of Gaussian 16 at Thu May  6 06:24:47 2021.
