 Gaussian 16, Revision A.03,
 Gaussian 16:  EM64L-G16RevA.03 25-Dec-2016

 -------------
 #p 6-31g* mp2
 -------------

 ------------------------------------------------------
 Input file generated by CHIRIPA (05-May-2021 14:55:21)
 ------------------------------------------------------
 Symbolic Z-matrix:
 Charge =  0 Multiplicity = 1

                         Standard orientation:
 ---------------------------------------------------------------------
 Center     Atomic      Atomic             Coordinates (Angstroms)
 Number     Number       Type             X           Y           Z
 ---------------------------------------------------------------------
      1          6           0        1.297825    0.840083    0.262035
      2          6           0        1.549721   -0.479390    0.651982
      3          6           0        2.828426   -1.028061    0.516256
      4          6           0        3.836364   -0.225284   -0.015627
      5          6           0        3.616776    1.092658   -0.413246
      6          6           0        2.330336    1.620520   -0.268399
      7          1           0        0.301491    1.258222    0.371013
      8          1           0        0.749781   -1.087819    1.064239
      9          1           0        3.051127   -2.046625    0.810107
     10          1           0        4.434445    1.674603   -0.820891
     11          1           0        2.137612    2.645547   -0.572080
     12          7           0        5.194167   -0.795123   -0.164142
     13          8           0        6.065065   -0.067134   -0.635529
     14          8           0        5.361803   -1.958961    0.193651
     15          6           0       -4.943910   -0.496514    0.187111
     16          6           0       -6.188650   -0.839046   -0.632203
     17          6           0       -6.817127   -2.171631   -0.223515
     18          1           0       -4.205276   -1.301866    0.074104
     19          1           0       -5.211767   -0.465266    1.252321
     20          1           0       -5.918822   -0.868278   -1.695667
     21          1           0       -6.924332   -0.032692   -0.517385
     22          1           0       -7.114037   -2.150499    0.830050
     23          1           0       -6.102814   -2.990832   -0.354926
     24          1           0       -7.705444   -2.396827   -0.821880
     25          6           0       -4.304301    0.832815   -0.209767
     26          6           0       -3.059560    1.175347    0.609548
     27          6           0       -2.431083    2.507933    0.200860
     28          1           0       -4.036444    0.801567   -1.274976
     29          1           0       -5.042935    1.638168   -0.096760
     30          1           0       -2.323879    0.368993    0.494730
     31          1           0       -3.329389    1.204578    1.673011
     32          1           0       -3.145396    3.327133    0.332271
     33          1           0       -2.134173    2.486800   -0.852705
     34          1           0       -1.542766    2.733129    0.799224
 ---------------------------------------------------------------------

 SCF Done:  E(RHF) =  -669.535472491     A.U. after   15 cycles
 E2 =    -0.2091266437D+01 EUMP2 =    -0.67162673892769D+03

 The electronic state is 1-A.
 Alpha  occ. eigenvalues --  -20.60714 -20.60708 -15.85767 -11.31117 -11.27691
 Alpha  occ. eigenvalues --  -11.27687 -11.27359 -11.26691 -11.26679 -11.22855
 Alpha  occ. eigenvalues --  -11.22452 -11.22318 -11.22216 -11.22130 -11.21578
 Alpha  occ. eigenvalues --   -1.59790  -1.39344  -1.19287  -1.09333  -1.08678
 Alpha  occ. eigenvalues --   -1.04692  -1.04462  -0.96911  -0.95515  -0.87924
 Alpha  occ. eigenvalues --   -0.86086  -0.82355  -0.80541  -0.79088  -0.77408
 Alpha  occ. eigenvalues --   -0.71985  -0.71113  -0.70421  -0.65957  -0.64936
 Alpha  occ. eigenvalues --   -0.64700  -0.62044  -0.61850  -0.60362  -0.58522
 Alpha  occ. eigenvalues --   -0.56220  -0.55113  -0.53588  -0.53289  -0.53018
 Alpha  occ. eigenvalues --   -0.52780  -0.50832  -0.48853  -0.48741  -0.48738
 Alpha  occ. eigenvalues --   -0.47570  -0.46640  -0.46525  -0.44753  -0.44696
 Alpha  occ. eigenvalues --   -0.37257  -0.36302
 Alpha virt. eigenvalues --    0.05124   0.11348   0.16598   0.19190   0.22491
 Alpha virt. eigenvalues --    0.23858   0.25236   0.26109   0.26375   0.27679
 Alpha virt. eigenvalues --    0.29319   0.30150   0.30778   0.31197   0.31777

 Mulliken charges:
               1
     1  C   -0.180407
     2  C   -0.222165
     3  C   -0.170627
     4  C    0.158043
     5  C   -0.170628
     6  C   -0.222105
     7  H    0.242763
     8  H    0.223357
     9  H    0.275242
    10  H    0.275320
    11  H    0.223581
    12  N    0.488000
    13  O   -0.460638
    14  O   -0.460678
    15  C   -0.298888
    16  C   -0.300409
    17  C   -0.476214
    18  H    0.148923
    19  H    0.150800
    20  H    0.153108
    21  H    0.153221
    22  H    0.155902
    23  H    0.155654
    24  H    0.162372
    25  C   -0.298689
    26  C   -0.302268
    27  C   -0.483903
    28  H    0.151606
    29  H    0.152924
    30  H    0.144794
    31  H    0.156526
    32  H    0.164847
    33  H    0.157452
    34  H    0.153188
 Sum of Mulliken charges =  -0.00000

 Dipole moment (field-independent basis, Debye):
    X=             -5.1029    Y=              2.0401    Z=              0.4983  Tot=              5.5181
 Quadrupole moment (field-independent basis, Debye-Ang):
   XX=           -130.3830   YY=            -92.5235   ZZ=            -94.3762
   XY=              9.4836   XZ=              1.1129   YZ=             -1.5909

 Normal termination of Gaussian 16 at Wed May  5 18:57:18 2021.
