 Gaussian 16, Revision A.03,
 Gaussian 16:  EM64L-G16RevA.03 25-Dec-2016

 -------------
 #p 6-31g* mp2
 -------------

 ------------------------------------------------------
 Input file generated by CHIRIPA (05-May-2021 14:53:15)
 ------------------------------------------------------
 Symbolic Z-matrix:
 Charge =  0 Multiplicity = 1

                         Standard orientation:
 ---------------------------------------------------------------------
 Center     Atomic      Atomic             Coordinates (Angstroms)
 Number     Number       Type             X           Y           Z
 ---------------------------------------------------------------------
      1          6           0        4.476239   -0.550345   -0.096914
      2          6           0        5.381908    0.540853    0.474956
      3          6           0        6.868000    0.211686    0.330129
      4          1           0        4.693710   -1.500934    0.409081
      5          1           0        4.718100   -0.698823   -1.158447
      6          1           0        5.137465    0.688196    1.534746
      7          1           0        5.162122    1.488996   -0.032326
      8          1           0        7.133517    0.084965   -0.724405
      9          1           0        7.108720   -0.720385    0.851570
     10          1           0        7.497254    1.005039    0.745447
     11          6           0        2.987655   -0.235734    0.040436
     12          6           0        2.081985   -1.326931   -0.531435
     13          6           0        0.595894   -0.997764   -0.386608
     14          1           0        2.745794   -0.087255    1.101969
     15          1           0        2.770184    0.714856   -0.465560
     16          1           0        2.301772   -2.275074   -0.024153
     17          1           0        2.326429   -1.474274   -1.591224
     18          1           0        0.355174   -0.065694   -0.908048
     19          1           0        0.330377   -0.871043    0.667927
     20          1           0       -0.033360   -1.791118   -0.801926
     21          6           0       -3.930214   -1.968736    0.418538
     22          6           0       -3.472347   -1.618853   -0.856006
     23          6           0       -2.908408   -0.360657   -1.087226
     24          6           0       -2.817493    0.527077   -0.016268
     25          6           0       -3.264641    0.207945    1.264944
     26          6           0       -3.825085   -1.055829    1.473085
     27          1           0       -4.366938   -2.948300    0.589191
     28          1           0       -3.552712   -2.325810   -1.676858
     29          1           0       -2.545969   -0.063789   -2.063919
     30          1           0       -3.171053    0.933938    2.063439
     31          1           0       -4.179835   -1.324828    2.463962
     32          7           0       -2.222326    1.862027   -0.248835
     33          8           0       -2.153607    2.626171    0.711373
     34          8           0       -1.835822    2.118938   -1.386924
 ---------------------------------------------------------------------

 SCF Done:  E(RHF) =  -669.535640734     A.U. after   15 cycles
 E2 =    -0.2092661398D+01 EUMP2 =    -0.67162830213122D+03

 The electronic state is 1-A.
 Alpha  occ. eigenvalues --  -20.60821 -20.60814 -15.85845 -11.31143 -11.27741
 Alpha  occ. eigenvalues --  -11.27728 -11.27485 -11.26741 -11.26732 -11.21401
 Alpha  occ. eigenvalues --  -11.21325 -11.21135 -11.21050 -11.20869 -11.20847
 Alpha  occ. eigenvalues --   -1.59877  -1.39435  -1.19337  -1.08743  -1.08172
 Alpha  occ. eigenvalues --   -1.04743  -1.03302  -0.95766  -0.95580  -0.86789
 Alpha  occ. eigenvalues --   -0.86137  -0.82426  -0.79378  -0.77978  -0.77475
 Alpha  occ. eigenvalues --   -0.72075  -0.71185  -0.70459  -0.65000  -0.64806
 Alpha  occ. eigenvalues --   -0.64745  -0.62096  -0.60696  -0.59141  -0.57369
 Alpha  occ. eigenvalues --   -0.55258  -0.55033  -0.53297  -0.52838  -0.52290
 Alpha  occ. eigenvalues --   -0.52129  -0.49700  -0.48834  -0.48828  -0.47693
 Alpha  occ. eigenvalues --   -0.46406  -0.45530  -0.45447  -0.44797  -0.43557
 Alpha  occ. eigenvalues --   -0.37287  -0.36291
 Alpha virt. eigenvalues --    0.05057   0.11289   0.16511   0.21362   0.23127
 Alpha virt. eigenvalues --    0.24464   0.26879   0.27184   0.27644   0.27990
 Alpha virt. eigenvalues --    0.28598   0.30640   0.31558   0.31980   0.32050

 Mulliken charges:
               1
     1  C   -0.298143
     2  C   -0.299796
     3  C   -0.475608
     4  H    0.147656
     5  H    0.149077
     6  H    0.151894
     7  H    0.154276
     8  H    0.154873
     9  H    0.153942
    10  H    0.160246
    11  C   -0.299471
    12  C   -0.299753
    13  C   -0.482089
    14  H    0.149307
    15  H    0.155795
    16  H    0.149002
    17  H    0.151000
    18  H    0.163370
    19  H    0.154102
    20  H    0.154492
    21  C   -0.170294
    22  C   -0.219442
    23  C   -0.166746
    24  C    0.162413
    25  C   -0.171653
    26  C   -0.218785
    27  H    0.225438
    28  H    0.223161
    29  H    0.275358
    30  H    0.275349
    31  H    0.223142
    32  N    0.488585
    33  O   -0.459535
    34  O   -0.461162
 Sum of Mulliken charges =  -0.00000

 Dipole moment (field-independent basis, Debye):
    X=             -2.1706    Y=             -4.6065    Z=              0.8106  Tot=              5.1564
 Quadrupole moment (field-independent basis, Debye-Ang):
   XX=            -85.0014   YY=           -100.0519   ZZ=            -89.3885
   XY=             12.5002   XZ=             -3.1379   YZ=              1.3393

 Normal termination of Gaussian 16 at Thu May  6 18:49:01 2021.
