 Gaussian 16, Revision A.03,
 Gaussian 16:  EM64L-G16RevA.03 25-Dec-2016

 -------------
 #p 6-31g* mp2
 -------------

 ------------------------------------------------------
 Input file generated by CHIRIPA (05-May-2021 14:53:15)
 ------------------------------------------------------
 Symbolic Z-matrix:
 Charge =  0 Multiplicity = 1

                         Standard orientation:
 ---------------------------------------------------------------------
 Center     Atomic      Atomic             Coordinates (Angstroms)
 Number     Number       Type             X           Y           Z
 ---------------------------------------------------------------------
      1          6           0       -3.661446   -0.175293    0.076280
      2          6           0       -3.357104   -1.373291    0.976369
      3          6           0       -4.474907   -2.416494    0.970078
      4          1           0       -4.601539    0.290567    0.402079
      5          1           0       -3.827650   -0.529777   -0.950420
      6          1           0       -3.190160   -1.016508    2.000796
      7          1           0       -2.417528   -1.836238    0.648508
      8          1           0       -4.637907   -2.800360   -0.042186
      9          1           0       -5.414929   -1.975973    1.317786
     10          1           0       -4.236600   -3.264175    1.620083
     11          6           0       -2.553295    0.876235    0.072009
     12          6           0       -2.857637    2.074234   -0.828080
     13          6           0       -1.739834    3.117436   -0.821790
     14          1           0       -2.387091    1.230719    1.098709
     15          1           0       -1.613202    0.410375   -0.253791
     16          1           0       -3.797214    2.537180   -0.500220
     17          1           0       -3.024581    1.717450   -1.852507
     18          1           0       -0.799812    2.676915   -1.169497
     19          1           0       -1.576834    3.501303    0.190474
     20          1           0       -1.978142    3.965117   -1.471794
     21          6           0        2.994896    1.906475    1.078083
     22          6           0        3.805804    0.783633    1.273467
     23          6           0        3.501087   -0.429560    0.649081
     24          6           0        2.372792   -0.484587   -0.167750
     25          6           0        1.545320    0.616599   -0.382151
     26          6           0        1.869227    1.819528    0.252353
     27          1           0        3.239060    2.844925    1.567050
     28          1           0        4.680638    0.848234    1.914198
     29          1           0        4.111619   -1.314294    0.782928
     30          1           0        0.679831    0.521404   -1.026578
     31          1           0        1.237657    2.689921    0.098789
     32          7           0        2.040044   -1.763507   -0.834116
     33          8           0        1.040452   -1.785984   -1.548920
     34          8           0        2.785131   -2.719231   -0.628990
 ---------------------------------------------------------------------

 SCF Done:  E(RHF) =  -669.534835169     A.U. after   15 cycles
 E2 =    -0.2093029450D+01 EUMP2 =    -0.67162786461885D+03

 The electronic state is 1-A.
 Alpha  occ. eigenvalues --  -20.60791 -20.60782 -15.85835 -11.31154 -11.27714
 Alpha  occ. eigenvalues --  -11.27688 -11.27433 -11.26728 -11.26646 -11.22090
 Alpha  occ. eigenvalues --  -11.21997 -11.21671 -11.21415 -11.21354 -11.20828
 Alpha  occ. eigenvalues --   -1.59860  -1.39416  -1.19316  -1.08719  -1.08620
 Alpha  occ. eigenvalues --   -1.04719  -1.03746  -0.96240  -0.95566  -0.87274
 Alpha  occ. eigenvalues --   -0.86109  -0.82409  -0.79860  -0.78387  -0.77432
 Alpha  occ. eigenvalues --   -0.72056  -0.71179  -0.70447  -0.65289  -0.64965
 Alpha  occ. eigenvalues --   -0.64712  -0.62161  -0.61076  -0.59623  -0.57816
 Alpha  occ. eigenvalues --   -0.55559  -0.55220  -0.53096  -0.53028  -0.52878
 Alpha  occ. eigenvalues --   -0.52436  -0.50196  -0.48815  -0.48812  -0.48130
 Alpha  occ. eigenvalues --   -0.46846  -0.45913  -0.45772  -0.44821  -0.43969
 Alpha  occ. eigenvalues --   -0.37294  -0.36293
 Alpha virt. eigenvalues --    0.05041   0.11283   0.16558   0.19942   0.22917
 Alpha virt. eigenvalues --    0.24006   0.25579   0.26104   0.27273   0.28304
 Alpha virt. eigenvalues --    0.29943   0.30613   0.31116   0.31486   0.32310

 Mulliken charges:
               1
     1  C   -0.297778
     2  C   -0.302327
     3  C   -0.475966
     4  H    0.148603
     5  H    0.153636
     6  H    0.149236
     7  H    0.161103
     8  H    0.157748
     9  H    0.152952
    10  H    0.161464
    11  C   -0.304223
    12  C   -0.300226
    13  C   -0.481277
    14  H    0.148427
    15  H    0.152068
    16  H    0.154900
    17  H    0.156841
    18  H    0.146557
    19  H    0.153983
    20  H    0.165582
    21  C   -0.171303
    22  C   -0.218324
    23  C   -0.171156
    24  C    0.158841
    25  C   -0.175494
    26  C   -0.223051
    27  H    0.225596
    28  H    0.223212
    29  H    0.275288
    30  H    0.278636
    31  H    0.230457
    32  N    0.488542
    33  O   -0.462543
    34  O   -0.460005
 Sum of Mulliken charges =  -0.00000

 Dipole moment (field-independent basis, Debye):
    X=              1.0383    Y=              4.4417    Z=              2.3312  Tot=              5.1226
 Quadrupole moment (field-independent basis, Debye-Ang):
   XX=            -86.1930   YY=            -99.1129   ZZ=            -94.7740
   XY=              7.4840   XZ=              7.4369   YZ=             -2.4425

 Normal termination of Gaussian 16 at Thu May  6 13:50:53 2021.
