 Gaussian 16, Revision A.03,
 Gaussian 16:  EM64L-G16RevA.03 25-Dec-2016

 -------------
 #p 6-31g* mp2
 -------------

 ------------------------------------------------------
 Input file generated by CHIRIPA (05-May-2021 14:57:22)
 ------------------------------------------------------
 Symbolic Z-matrix:
 Charge =  0 Multiplicity = 1

                         Standard orientation:
 ---------------------------------------------------------------------
 Center     Atomic      Atomic             Coordinates (Angstroms)
 Number     Number       Type             X           Y           Z
 ---------------------------------------------------------------------
      1          6           0        2.294096    2.552322    0.398060
      2          6           0        2.998036    2.064976   -0.708052
      3          6           0        3.293614    0.702933   -0.817694
      4          6           0        2.868164   -0.147346    0.201770
      5          6           0        2.165119    0.307817    1.316152
      6          6           0        1.880614    1.673736    1.404856
      7          1           0        2.068785    3.611895    0.475100
      8          1           0        3.320400    2.744978   -1.491457
      9          1           0        3.837088    0.298828   -1.663125
     10          1           0        1.856916   -0.394484    2.081137
     11          1           0        1.333768    2.049405    2.265018
     12          7           0        3.175218   -1.591331    0.096780
     13          8           0        2.789298   -2.319794    1.008397
     14          8           0        3.795994   -1.967323   -0.895140
     15          6           0       -5.270947   -0.196119    0.360303
     16          6           0       -4.660754    1.039523    0.120769
     17          6           0       -3.302066    1.109920   -0.201035
     18          6           0       -2.580373   -0.080444   -0.275086
     19          6           0       -3.159724   -1.326743   -0.041891
     20          6           0       -4.519809   -1.373233    0.278353
     21          1           0       -6.326951   -0.241519    0.609681
     22          1           0       -5.241630    1.955309    0.183710
     23          1           0       -2.804439    2.053100   -0.391290
     24          1           0       -2.554672   -2.222516   -0.112037
     25          1           0       -4.991048   -2.334253    0.463873
     26          7           0       -1.141251   -0.018572   -0.614940
     27          8           0       -0.527395   -1.081745   -0.673927
     28          8           0       -0.654374    1.091926   -0.815895
 ---------------------------------------------------------------------

 SCF Done:  E(RHF) =  -868.337634367     A.U. after   16 cycles
 E2 =    -0.2602401717D+01 EUMP2 =    -0.87094003608322D+03

 The electronic state is 1-A.
 Alpha  occ. eigenvalues --  -20.61050 -20.61024 -20.59270 -20.59263 -15.86034
 Alpha  occ. eigenvalues --  -15.84319 -11.31405 -11.29506 -11.28008 -11.27918
 Alpha  occ. eigenvalues --  -11.27701 -11.27001 -11.26940 -11.26124 -11.26105
 Alpha  occ. eigenvalues --  -11.25900 -11.25193 -11.25147  -1.60090  -1.58324
 Alpha  occ. eigenvalues --   -1.39647  -1.37896  -1.19574  -1.17666  -1.08972
 Alpha  occ. eigenvalues --   -1.07120  -1.04970  -1.03130  -0.95809  -0.94004
 Alpha  occ. eigenvalues --   -0.86368  -0.84561  -0.82642  -0.80891  -0.77691
 Alpha  occ. eigenvalues --   -0.75934  -0.72286  -0.71429  -0.70675  -0.70583
 Alpha  occ. eigenvalues --   -0.69581  -0.68921  -0.65224  -0.64970  -0.63410
 Alpha  occ. eigenvalues --   -0.63240  -0.62314  -0.60548  -0.55477  -0.53719
 Alpha  occ. eigenvalues --   -0.53316  -0.53058  -0.51551  -0.51315  -0.49045
 Alpha  occ. eigenvalues --   -0.48779  -0.47324  -0.47313  -0.45059  -0.43353
 Alpha  occ. eigenvalues --   -0.37563  -0.36576  -0.35534  -0.34657
 Alpha virt. eigenvalues --    0.04828   0.06677   0.11079   0.12973   0.16325
 Alpha virt. eigenvalues --    0.18191   0.21240   0.22728   0.27148   0.28137
 Alpha virt. eigenvalues --    0.28568   0.29628   0.30794   0.32156   0.32382

 Mulliken charges:
               1
     1  C   -0.159940
     2  C   -0.212887
     3  C   -0.167220
     4  C    0.175051
     5  C   -0.169577
     6  C   -0.212152
     7  H    0.216894
     8  H    0.216334
     9  H    0.270456
    10  H    0.268161
    11  H    0.212765
    12  N    0.491008
    13  O   -0.465553
    14  O   -0.465759
    15  C   -0.170756
    16  C   -0.218605
    17  C   -0.172204
    18  C    0.157849
    19  C   -0.170961
    20  C   -0.218616
    21  H    0.226281
    22  H    0.222858
    23  H    0.272332
    24  H    0.280100
    25  H    0.225407
    26  N    0.487740
    27  O   -0.457048
    28  O   -0.461955
 Sum of Mulliken charges =  -0.00000

 Dipole moment (field-independent basis, Debye):
    X=             -6.4182    Y=              4.7397    Z=              1.4130  Tot=              8.1027
 Quadrupole moment (field-independent basis, Debye-Ang):
   XX=            -85.7202   YY=           -102.2130   ZZ=           -102.9751
   XY=             16.1158   XZ=             -3.5553   YZ=             -0.3582

 Normal termination of Gaussian 16 at Thu May  6 11:16:41 2021.
