 Gaussian 16, Revision A.03,
 Gaussian 16:  EM64L-G16RevA.03 25-Dec-2016

 -------------
 #p 6-31g* mp2
 -------------

 ------------------------------------------------------
 Input file generated by CHIRIPA (05-May-2021 14:51:14)
 ------------------------------------------------------
 Symbolic Z-matrix:
 Charge =  0 Multiplicity = 1

                         Standard orientation:
 ---------------------------------------------------------------------
 Center     Atomic      Atomic             Coordinates (Angstroms)
 Number     Number       Type             X           Y           Z
 ---------------------------------------------------------------------
      1          6           0       -2.500550    0.303933   -0.209220
      2          6           0       -3.992245    0.004025   -0.057945
      3          6           0       -4.344250   -1.440007   -0.416635
      4          1           0       -2.194410    0.096529   -1.243728
      5          1           0       -1.928849   -0.383345    0.429688
      6          1           0       -4.561039    0.692581   -0.695895
      7          1           0       -4.294911    0.212349    0.976275
      8          1           0       -3.802415   -2.140007    0.227581
      9          1           0       -4.070055   -1.657047   -1.454090
     10          1           0       -5.415469   -1.632575   -0.301453
     11          6           0       -2.133018    1.743602    0.145747
     12          6           0       -0.641322    2.043509   -0.005528
     13          6           0       -0.289318    3.487541    0.353162
     14          1           0       -2.704719    2.430880   -0.493161
     15          1           0       -2.439157    1.951005    1.180255
     16          1           0       -0.338657    1.835185   -1.039748
     17          1           0       -0.072529    1.354954    0.632422
     18          1           0       -0.563513    3.704581    1.390617
     19          1           0       -0.831153    4.187542   -0.291054
     20          1           0        0.781901    3.680110    0.237980
     21          6           0        2.796683   -0.630631   -0.413879
     22          6           0        3.955527    0.004639    0.355210
     23          6           0        4.906958    0.787749   -0.549948
     24          1           0        3.200527   -1.297388   -1.188017
     25          1           0        2.239131    0.156940   -0.939484
     26          1           0        4.509900   -0.783741    0.880325
     27          1           0        3.548875    0.669814    1.127733
     28          1           0        4.373610    1.594139   -1.063637
     29          1           0        5.340097    0.132326   -1.312452
     30          1           0        5.727892    1.233436    0.020395
     31          6           0        1.836884   -1.416903    0.477352
     32          6           0        0.678041   -2.052173   -0.291738
     33          6           0       -0.273390   -2.835283    0.613421
     34          1           0        2.394436   -2.204475    1.002958
     35          1           0        1.433040   -0.750146    1.251490
     36          1           0        1.084693   -2.717348   -1.064261
     37          1           0        0.123668   -1.263794   -0.816852
     38          1           0       -0.706529   -2.179860    1.375925
     39          1           0        0.259957   -3.641674    1.127111
     40          1           0       -1.094324   -3.280971    0.043079
 ---------------------------------------------------------------------

 SCF Done:  E(RHF) =  -470.732073794     A.U. after   11 cycles
 E2 =    -0.1585855351D+01 EUMP2 =    -0.47231792914531D+03

 The electronic state is 1-A.
 Alpha  occ. eigenvalues --  -11.21698 -11.21607 -11.21576 -11.21489 -11.21439
 Alpha  occ. eigenvalues --  -11.21361 -11.21340 -11.21299 -11.21152 -11.21063
 Alpha  occ. eigenvalues --  -11.21059 -11.21057  -1.08525  -1.08349  -1.03585
 Alpha  occ. eigenvalues --   -1.03494  -0.96043  -0.95941  -0.87042  -0.86974
 Alpha  occ. eigenvalues --   -0.79648  -0.79562  -0.78381  -0.78154  -0.65324
 Alpha  occ. eigenvalues --   -0.64844  -0.61035  -0.60884  -0.59435  -0.59282
 Alpha  occ. eigenvalues --   -0.57645  -0.57564  -0.55452  -0.55133  -0.52729
 Alpha  occ. eigenvalues --   -0.52667  -0.52462  -0.52323  -0.50086  -0.49806
 Alpha  occ. eigenvalues --   -0.47944  -0.47896  -0.46695  -0.46648  -0.46126
 Alpha  occ. eigenvalues --   -0.45898  -0.45448  -0.45289  -0.43821  -0.43741
 Alpha virt. eigenvalues --    0.19954   0.22161   0.23771   0.24527   0.24705
 Alpha virt. eigenvalues --    0.26291   0.26823   0.27613   0.28602   0.30453
 Alpha virt. eigenvalues --    0.30773   0.30823   0.31708   0.31940   0.32569

 Mulliken charges:
               1
     1  C   -0.307746
     2  C   -0.298789
     3  C   -0.478087
     4  H    0.149487
     5  H    0.160901
     6  H    0.151706
     7  H    0.151577
     8  H    0.158006
     9  H    0.154800
    10  H    0.160183
    11  C   -0.297410
    12  C   -0.306071
    13  C   -0.475654
    14  H    0.149648
    15  H    0.149402
    16  H    0.152279
    17  H    0.156570
    18  H    0.155465
    19  H    0.155714
    20  H    0.160128
    21  C   -0.300749
    22  C   -0.299586
    23  C   -0.475640
    24  H    0.149391
    25  H    0.152764
    26  H    0.151815
    27  H    0.151579
    28  H    0.154953
    29  H    0.155154
    30  H    0.160151
    31  C   -0.299309
    32  C   -0.306556
    33  C   -0.479170
    34  H    0.149512
    35  H    0.149480
    36  H    0.151722
    37  H    0.160348
    38  H    0.153467
    39  H    0.155835
    40  H    0.162730
 Sum of Mulliken charges =  -0.00000

 Dipole moment (field-independent basis, Debye):
    X=             -0.0305    Y=              0.0058    Z=             -0.0106  Tot=              0.0328
 Quadrupole moment (field-independent basis, Debye-Ang):
   XX=            -85.3511   YY=            -85.4070   ZZ=            -84.1488
   XY=             -1.3585   XZ=              0.3340   YZ=             -0.0300

 Normal termination of Gaussian 16 at Thu May  6 05:37:44 2021.
