 Gaussian 16, Revision A.03,
 Gaussian 16:  EM64L-G16RevA.03 25-Dec-2016

 -------------
 #p 6-31g* mp2
 -------------

 ------------------------------------------------------
 Input file generated by CHIRIPA (05-May-2021 14:55:21)
 ------------------------------------------------------
 Symbolic Z-matrix:
 Charge =  0 Multiplicity = 1

                         Standard orientation:
 ---------------------------------------------------------------------
 Center     Atomic      Atomic             Coordinates (Angstroms)
 Number     Number       Type             X           Y           Z
 ---------------------------------------------------------------------
      1          6           0        3.628216    2.036672    0.108166
      2          6           0        4.191007    1.000447   -0.644180
      3          6           0        3.594361   -0.263643   -0.669484
      4          6           0        2.430320   -0.457335    0.072662
      5          6           0        1.845529    0.554965    0.831977
      6          6           0        2.459334    1.811022    0.842548
      7          1           0        4.098370    3.015527    0.122101
      8          1           0        5.098726    1.172811   -1.215479
      9          1           0        4.008817   -1.083604   -1.243337
     10          1           0        0.940139    0.352807    1.391279
     11          1           0        2.020038    2.613907    1.427731
     12          7           0        1.789595   -1.791318    0.053672
     13          8           0        0.764522   -1.936350    0.716113
     14          8           0        2.324600   -2.666604   -0.623293
     15          6           0       -3.634373   -0.337349   -0.242913
     16          6           0       -2.945580   -1.596601    0.284188
     17          6           0       -3.734729   -2.871466   -0.015407
     18          1           0       -4.636755   -0.262521    0.200455
     19          1           0       -3.778903   -0.433771   -1.327905
     20          1           0       -2.801145   -1.497240    1.367646
     21          1           0       -1.944648   -1.668338   -0.160339
     22          1           0       -3.867059   -2.997918   -1.094806
     23          1           0       -4.728422   -2.825849    0.441861
     24          1           0       -3.224290   -3.759528    0.370155
     25          6           0       -2.857581    0.945295    0.048885
     26          6           0       -3.546373    2.204547   -0.478216
     27          6           0       -2.757224    3.479411   -0.178620
     28          1           0       -2.713050    1.041717    1.133878
     29          1           0       -1.855198    0.870468   -0.394483
     30          1           0       -4.547305    2.276283   -0.033688
     31          1           0       -3.690808    2.105185   -1.561674
     32          1           0       -1.763531    3.433795   -0.635890
     33          1           0       -2.624895    3.605864    0.900778
     34          1           0       -3.267662    4.367474   -0.564182
 ---------------------------------------------------------------------

 SCF Done:  E(RHF) =  -669.536186531     A.U. after   15 cycles
 E2 =    -0.2091504940D+01 EUMP2 =    -0.67162769147106D+03

 The electronic state is 1-A.
 Alpha  occ. eigenvalues --  -20.60911 -20.60905 -15.85936 -11.31258 -11.27824
 Alpha  occ. eigenvalues --  -11.27807 -11.27558 -11.26831 -11.26815 -11.21524
 Alpha  occ. eigenvalues --  -11.21215 -11.21169 -11.20814 -11.20507 -11.20133
 Alpha  occ. eigenvalues --   -1.59974  -1.39528  -1.19427  -1.08833  -1.08007
 Alpha  occ. eigenvalues --   -1.04820  -1.03037  -0.95674  -0.95553  -0.86578
 Alpha  occ. eigenvalues --   -0.86220  -0.82507  -0.79162  -0.77768  -0.77508
 Alpha  occ. eigenvalues --   -0.72157  -0.71288  -0.70532  -0.65081  -0.64820
 Alpha  occ. eigenvalues --   -0.64644  -0.62163  -0.60435  -0.58964  -0.57107
 Alpha  occ. eigenvalues --   -0.55326  -0.54873  -0.53155  -0.52909  -0.52238
 Alpha  occ. eigenvalues --   -0.51970  -0.49534  -0.48925  -0.48923  -0.47461
 Alpha  occ. eigenvalues --   -0.46228  -0.45447  -0.45228  -0.44623  -0.43308
 Alpha  occ. eigenvalues --   -0.37408  -0.36420
 Alpha virt. eigenvalues --    0.04926   0.11202   0.16402   0.21168   0.23156
 Alpha virt. eigenvalues --    0.24805   0.26355   0.27042   0.27642   0.28271
 Alpha virt. eigenvalues --    0.29079   0.31006   0.31831   0.31914   0.32687

 Mulliken charges:
               1
     1  C   -0.170694
     2  C   -0.218583
     3  C   -0.170943
     4  C    0.157611
     5  C   -0.171804
     6  C   -0.218826
     7  H    0.225982
     8  H    0.223670
     9  H    0.275649
    10  H    0.277697
    11  H    0.224533
    12  N    0.488496
    13  O   -0.459566
    14  O   -0.459409
    15  C   -0.298550
    16  C   -0.303899
    17  C   -0.476036
    18  H    0.146810
    19  H    0.147966
    20  H    0.149932
    21  H    0.171603
    22  H    0.152261
    23  H    0.149457
    24  H    0.166026
    25  C   -0.297881
    26  C   -0.298686
    27  C   -0.475725
    28  H    0.145624
    29  H    0.147668
    30  H    0.152594
    31  H    0.152722
    32  H    0.151958
    33  H    0.151963
    34  H    0.160381
 Sum of Mulliken charges =  -0.00000

 Dipole moment (field-independent basis, Debye):
    X=              2.4317    Y=              4.5661    Z=              0.0630  Tot=              5.1737
 Quadrupole moment (field-independent basis, Debye-Ang):
   XX=            -82.1162   YY=           -100.1472   ZZ=            -92.6989
   XY=              8.8397   XZ=             -2.7316   YZ=              1.4368

 Normal termination of Gaussian 16 at Wed May  5 23:50:52 2021.
