 Gaussian 16, Revision A.03,
 Gaussian 16:  EM64L-G16RevA.03 25-Dec-2016

 -------------
 #p 6-31g* mp2
 -------------

 ------------------------------------------------------
 Input file generated by CHIRIPA (05-May-2021 14:51:10)
 ------------------------------------------------------
 Symbolic Z-matrix:
 Charge =  0 Multiplicity = 1

                         Standard orientation:
 ---------------------------------------------------------------------
 Center     Atomic      Atomic             Coordinates (Angstroms)
 Number     Number       Type             X           Y           Z
 ---------------------------------------------------------------------
      1          6           0       -4.545745   -0.059326    0.294416
      2          6           0       -5.873231   -0.072212   -0.464266
      3          6           0       -6.885608   -1.050458    0.132325
      4          1           0       -4.121619   -1.072766    0.295731
      5          1           0       -4.734324    0.201954    1.344924
      6          1           0       -5.682040   -0.332036   -1.513339
      7          1           0       -6.294152    0.941416   -0.463940
      8          1           0       -7.105497   -0.790457    1.172829
      9          1           0       -6.489907   -2.071144    0.117467
     10          1           0       -7.827297   -1.043519   -0.425380
     11          6           0       -3.523360    0.913740   -0.290050
     12          6           0       -2.195874    0.926625    0.468632
     13          6           0       -1.183497    1.904872   -0.127959
     14          1           0       -3.334782    0.652460   -1.340558
     15          1           0       -3.947486    1.927180   -0.291365
     16          1           0       -1.774953   -0.087002    0.468306
     17          1           0       -2.387065    1.186450    1.517705
     18          1           0       -1.579198    2.925558   -0.113101
     19          1           0       -0.963609    1.644871   -1.168463
     20          1           0       -0.241809    1.897933    0.429746
     21          6           0        3.298064   -0.330960    0.176010
     22          6           0        2.415556   -1.509856   -0.235530
     23          6           0        0.944884   -1.302444    0.127650
     24          1           0        3.205239   -0.172222    1.259122
     25          1           0        2.925548    0.583050   -0.306910
     26          1           0        2.790460   -2.421611    0.246929
     27          1           0        2.510640   -1.665927   -1.317757
     28          1           0        0.548644   -0.408851   -0.365388
     29          1           0        0.830054   -1.168829    1.208187
     30          1           0        0.332097   -2.157098   -0.175529
     31          6           0        4.771041   -0.523454   -0.180376
     32          6           0        5.653550    0.655443    0.231163
     33          6           0        7.124221    0.448030   -0.132015
     34          1           0        5.143558   -1.437464    0.302544
     35          1           0        4.863867   -0.682192   -1.263488
     36          1           0        5.558465    0.811513    1.313391
     37          1           0        5.278646    1.567198   -0.251294
     38          1           0        7.239052    0.314415   -1.212553
     39          1           0        7.520461   -0.445563    0.361023
     40          1           0        7.737009    1.302685    0.171163
 ---------------------------------------------------------------------

 SCF Done:  E(RHF) =  -470.732488293     A.U. after   11 cycles
 E2 =    -0.1583377826D+01 EUMP2 =    -0.47231586611903D+03

 The electronic state is 1-A.
 Alpha  occ. eigenvalues --  -11.21597 -11.21582 -11.21570 -11.21477 -11.21402
 Alpha  occ. eigenvalues --  -11.21353 -11.21343 -11.21292 -11.21067 -11.21047
 Alpha  occ. eigenvalues --  -11.21041 -11.21005  -1.08432  -1.08372  -1.03572
 Alpha  occ. eigenvalues --   -1.03440  -0.96051  -0.95876  -0.87026  -0.86939
 Alpha  occ. eigenvalues --   -0.79635  -0.79511  -0.78258  -0.78167  -0.65103
 Alpha  occ. eigenvalues --   -0.64978  -0.61110  -0.60749  -0.59406  -0.59277
 Alpha  occ. eigenvalues --   -0.57737  -0.57397  -0.55469  -0.55039  -0.52689
 Alpha  occ. eigenvalues --   -0.52671  -0.52421  -0.52259  -0.50006  -0.49776
 Alpha  occ. eigenvalues --   -0.47919  -0.47831  -0.46603  -0.46574  -0.45838
 Alpha  occ. eigenvalues --   -0.45712  -0.45695  -0.45580  -0.43786  -0.43714
 Alpha virt. eigenvalues --    0.21829   0.23015   0.23575   0.25009   0.26244
 Alpha virt. eigenvalues --    0.26572   0.27088   0.27269   0.27920   0.29289
 Alpha virt. eigenvalues --    0.30752   0.30959   0.31509   0.31624   0.32415

 Mulliken charges:
               1
     1  C   -0.298255
     2  C   -0.299589
     3  C   -0.475672
     4  H    0.149696
     5  H    0.149416
     6  H    0.151804
     7  H    0.151856
     8  H    0.155130
     9  H    0.155120
    10  H    0.160120
    11  C   -0.297619
    12  C   -0.306135
    13  C   -0.479972
    14  H    0.149011
    15  H    0.149172
    16  H    0.161919
    17  H    0.151313
    18  H    0.156326
    19  H    0.153516
    20  H    0.162137
    21  C   -0.298989
    22  C   -0.300209
    23  C   -0.482495
    24  H    0.149404
    25  H    0.150018
    26  H    0.151571
    27  H    0.151582
    28  H    0.165906
    29  H    0.155064
    30  H    0.158686
    31  C   -0.298206
    32  C   -0.299674
    33  C   -0.475705
    34  H    0.149564
    35  H    0.149652
    36  H    0.151889
    37  H    0.152048
    38  H    0.155180
    39  H    0.155157
    40  H    0.160261
 Sum of Mulliken charges =  -0.00000

 Dipole moment (field-independent basis, Debye):
    X=              0.0098    Y=             -0.0004    Z=              0.0055  Tot=              0.0113
 Quadrupole moment (field-independent basis, Debye-Ang):
   XX=            -86.7310   YY=            -84.5831   ZZ=            -83.7265
   XY=             -0.8127   XZ=              0.3828   YZ=              0.2706

 Normal termination of Gaussian 16 at Wed May  5 23:00:43 2021.
