 Gaussian 16, Revision A.03,
 Gaussian 16:  EM64L-G16RevA.03 25-Dec-2016

 -------------
 #p 6-31g* mp2
 -------------

 ------------------------------------------------------
 Input file generated by CHIRIPA (05-May-2021 14:57:21)
 ------------------------------------------------------
 Symbolic Z-matrix:
 Charge =  0 Multiplicity = 1

                         Standard orientation:
 ---------------------------------------------------------------------
 Center     Atomic      Atomic             Coordinates (Angstroms)
 Number     Number       Type             X           Y           Z
 ---------------------------------------------------------------------
      1          6           0        1.511407    0.737035    2.304087
      2          6           0        2.009558    1.784429    1.522210
      3          6           0        2.797776    1.518885    0.398490
      4          6           0        3.069453    0.188188    0.084279
      5          6           0        2.587728   -0.877110    0.843470
      6          6           0        1.801570   -0.588056    1.962823
      7          1           0        0.899901    0.952448    3.175324
      8          1           0        1.785824    2.814481    1.784854
      9          1           0        3.196305    2.310548   -0.224295
     10          1           0        2.827733   -1.893707    0.556511
     11          1           0        1.416050   -1.403488    2.568207
     12          7           0        3.902814   -0.105376   -1.103042
     13          8           0        4.127829   -1.286341   -1.358635
     14          8           0        4.315206    0.851051   -1.755588
     15          6           0       -4.947339    1.276209   -0.407451
     16          6           0       -3.712407    1.712435   -0.898542
     17          6           0       -2.589099    0.882708   -0.833120
     18          6           0       -2.737280   -0.382821   -0.267639
     19          6           0       -3.954148   -0.846116    0.230236
     20          6           0       -5.064062    0.000575    0.154380
     21          1           0       -5.814749    1.927351   -0.462324
     22          1           0       -3.618808    2.702608   -1.335395
     23          1           0       -1.621122    1.195120   -1.205728
     24          1           0       -4.016377   -1.838449    0.660143
     25          1           0       -6.021876   -0.340856    0.536562
     26          7           0       -1.555174   -1.270196   -0.192857
     27          8           0       -1.711958   -2.380671    0.310035
     28          8           0       -0.494239   -0.838442   -0.638550
 ---------------------------------------------------------------------

 SCF Done:  E(RHF) =  -868.337887826     A.U. after   16 cycles
 E2 =    -0.2600788863D+01 EUMP2 =    -0.87093867668886D+03

 The electronic state is 1-A.
 Alpha  occ. eigenvalues --  -20.61246 -20.61174 -20.59814 -20.59782 -15.86235
 Alpha  occ. eigenvalues --  -15.84849 -11.31565 -11.30057 -11.28135 -11.28111
 Alpha  occ. eigenvalues --  -11.27859 -11.27133 -11.27119 -11.26754 -11.26567
 Alpha  occ. eigenvalues --  -11.26485 -11.25800 -11.25577  -1.60281  -1.58873
 Alpha  occ. eigenvalues --   -1.39834  -1.38433  -1.19735  -1.18248  -1.09139
 Alpha  occ. eigenvalues --   -1.07708  -1.05128  -1.03652  -0.95981  -0.94561
 Alpha  occ. eigenvalues --   -0.86526  -0.85092  -0.82813  -0.81405  -0.77865
 Alpha  occ. eigenvalues --   -0.76443  -0.72481  -0.71606  -0.71089  -0.70835
 Alpha  occ. eigenvalues --   -0.70172  -0.69462  -0.65386  -0.65126  -0.63949
 Alpha  occ. eigenvalues --   -0.63720  -0.62470  -0.61031  -0.55628  -0.54263
 Alpha  occ. eigenvalues --   -0.53472  -0.53215  -0.51987  -0.51796  -0.49235
 Alpha  occ. eigenvalues --   -0.49211  -0.47845  -0.47825  -0.45224  -0.43873
 Alpha  occ. eigenvalues --   -0.37721  -0.36735  -0.36268  -0.35129
 Alpha virt. eigenvalues --    0.04641   0.06125   0.10922   0.12416   0.16156
 Alpha virt. eigenvalues --    0.17595   0.21091   0.22328   0.27000   0.27983
 Alpha virt. eigenvalues --    0.28271   0.29201   0.30652   0.31807   0.32196

 Mulliken charges:
               1
     1  C   -0.173838
     2  C   -0.220615
     3  C   -0.173106
     4  C    0.160586
     5  C   -0.149835
     6  C   -0.212869
     7  H    0.219143
     8  H    0.215600
     9  H    0.270038
    10  H    0.277114
    11  H    0.224338
    12  N    0.488323
    13  O   -0.459356
    14  O   -0.466671
    15  C   -0.170739
    16  C   -0.219090
    17  C   -0.171274
    18  C    0.157393
    19  C   -0.171675
    20  C   -0.218742
    21  H    0.226595
    22  H    0.224429
    23  H    0.277482
    24  H    0.275349
    25  H    0.224183
    26  N    0.488118
    27  O   -0.464441
    28  O   -0.456440
 Sum of Mulliken charges =  -0.00000

 Dipole moment (field-independent basis, Debye):
    X=             -7.2633    Y=              3.8890    Z=              3.8124  Tot=              9.0782
 Quadrupole moment (field-independent basis, Debye-Ang):
   XX=           -100.0331   YY=           -100.2067   ZZ=           -104.6576
   XY=             -2.6346   XZ=             13.0249   YZ=             -3.0043

 Normal termination of Gaussian 16 at Thu May  6 17:49:21 2021.
