 Gaussian 16, Revision A.03,
 Gaussian 16:  EM64L-G16RevA.03 25-Dec-2016

 -------------
 #p 6-31g* mp2
 -------------

 ------------------------------------------------------
 Input file generated by CHIRIPA (05-May-2021 14:55:23)
 ------------------------------------------------------
 Symbolic Z-matrix:
 Charge =  0 Multiplicity = 1

                         Standard orientation:
 ---------------------------------------------------------------------
 Center     Atomic      Atomic             Coordinates (Angstroms)
 Number     Number       Type             X           Y           Z
 ---------------------------------------------------------------------
      1          6           0       -0.951228   -1.056661   -0.033912
      2          6           0       -1.954650   -1.950651    0.353963
      3          6           0       -3.296142   -1.557030    0.351236
      4          6           0       -3.599847   -0.256078   -0.046981
      5          6           0       -2.622795    0.657747   -0.438879
      6          6           0       -1.287909    0.242394   -0.428400
      7          1           0        0.088310   -1.370877   -0.028783
      8          1           0       -1.696114   -2.960132    0.660806
      9          1           0       -4.092973   -2.228726    0.646709
     10          1           0       -2.911449    1.657547   -0.739708
     11          1           0       -0.510736    0.938817   -0.730132
     12          7           0       -5.016528    0.172135   -0.053972
     13          8           0       -5.257977    1.323764   -0.409063
     14          8           0       -5.858649   -0.651969    0.295774
     15          6           0        5.043146    0.207529    0.064026
     16          6           0        5.250702   -1.276025   -0.242522
     17          6           0        6.724719   -1.682058   -0.228129
     18          1           0        5.597578    0.808149   -0.670009
     19          1           0        5.477772    0.435968    1.047038
     20          1           0        4.814591   -1.501893   -1.224055
     21          1           0        4.695557   -1.873181    0.492213
     22          1           0        7.169025   -1.484991    0.752870
     23          1           0        7.288736   -1.111594   -0.973150
     24          1           0        6.850106   -2.746502   -0.449708
     25          6           0        3.574737    0.628700    0.053296
     26          6           0        3.367182    2.112254    0.359844
     27          6           0        1.893165    2.518287    0.345451
     28          1           0        3.140112    0.400262   -0.929716
     29          1           0        3.020306    0.028080    0.787331
     30          1           0        3.922327    2.709411   -0.374890
     31          1           0        3.803292    2.338123    1.341378
     32          1           0        1.329148    1.947824    1.090472
     33          1           0        1.448858    2.321221   -0.635548
     34          1           0        1.767777    3.582731    0.567030
 ---------------------------------------------------------------------

 SCF Done:  E(RHF) =  -669.535550312     A.U. after   15 cycles
 E2 =    -0.2091430421D+01 EUMP2 =    -0.67162698073324D+03

 The electronic state is 1-A.
 Alpha  occ. eigenvalues --  -20.60688 -20.60683 -15.85740 -11.31085 -11.27654
 Alpha  occ. eigenvalues --  -11.27629 -11.27369 -11.26670 -11.26578 -11.22577
 Alpha  occ. eigenvalues --  -11.22448 -11.22383 -11.22231 -11.22203 -11.21698
 Alpha  occ. eigenvalues --   -1.59764  -1.39318  -1.19250  -1.09354  -1.08647
 Alpha  occ. eigenvalues --   -1.04651  -1.04422  -0.96895  -0.95487  -0.87918
 Alpha  occ. eigenvalues --   -0.86044  -0.82319  -0.80507  -0.79176  -0.77369
 Alpha  occ. eigenvalues --   -0.71959  -0.71087  -0.70354  -0.65976  -0.64898
 Alpha  occ. eigenvalues --   -0.64672  -0.62041  -0.61796  -0.60246  -0.58495
 Alpha  occ. eigenvalues --   -0.56190  -0.55150  -0.53558  -0.53434  -0.52976
 Alpha  occ. eigenvalues --   -0.52617  -0.50828  -0.48841  -0.48715  -0.48661
 Alpha  occ. eigenvalues --   -0.47525  -0.46706  -0.46618  -0.44728  -0.44680
 Alpha  occ. eigenvalues --   -0.37230  -0.36247
 Alpha virt. eigenvalues --    0.05155   0.11348   0.16648   0.19858   0.22350
 Alpha virt. eigenvalues --    0.23721   0.24765   0.25797   0.26317   0.28411
 Alpha virt. eigenvalues --    0.29324   0.29741   0.30924   0.31230   0.31736

 Mulliken charges:
               1
     1  C   -0.175667
     2  C   -0.218497
     3  C   -0.171451
     4  C    0.158799
     5  C   -0.173564
     6  C   -0.223432
     7  H    0.227501
     8  H    0.222860
     9  H    0.275103
    10  H    0.275642
    11  H    0.233698
    12  N    0.488065
    13  O   -0.460603
    14  O   -0.460857
    15  C   -0.298469
    16  C   -0.300321
    17  C   -0.476142
    18  H    0.152532
    19  H    0.152322
    20  H    0.151421
    21  H    0.150103
    22  H    0.156718
    23  H    0.156894
    24  H    0.161735
    25  C   -0.300602
    26  C   -0.299413
    27  C   -0.483212
    28  H    0.146136
    29  H    0.146103
    30  H    0.155839
    31  H    0.156479
    32  H    0.157869
    33  H    0.148705
    34  H    0.167707
 Sum of Mulliken charges =  -0.00000

 Dipole moment (field-independent basis, Debye):
    X=              5.2834    Y=             -1.4137    Z=              0.0719  Tot=              5.4697
 Quadrupole moment (field-independent basis, Debye-Ang):
   XX=           -131.0122   YY=            -89.8184   ZZ=            -94.0370
   XY=              6.2958   XZ=             -0.7752   YZ=             -1.7556

 Normal termination of Gaussian 16 at Thu May  6 19:16:44 2021.
