 Gaussian 16, Revision A.03,
 Gaussian 16:  EM64L-G16RevA.03 25-Dec-2016

 -------------
 #p 6-31g* mp2
 -------------

 ------------------------------------------------------
 Input file generated by CHIRIPA (05-May-2021 14:51:12)
 ------------------------------------------------------
 Symbolic Z-matrix:
 Charge =  0 Multiplicity = 1

                         Standard orientation:
 ---------------------------------------------------------------------
 Center     Atomic      Atomic             Coordinates (Angstroms)
 Number     Number       Type             X           Y           Z
 ---------------------------------------------------------------------
      1          6           0       -2.817220    0.189586   -0.281347
      2          6           0       -3.091152    1.693852   -0.269882
      3          6           0       -3.759220    2.182883   -1.555311
      4          1           0       -2.180519   -0.054167   -1.142823
      5          1           0       -3.764197   -0.347372   -0.430702
      6          1           0       -2.144131    2.227767   -0.119209
      7          1           0       -3.727118    1.934080    0.591776
      8          1           0       -4.717809    1.676522   -1.707978
      9          1           0       -3.125827    1.971877   -2.423004
     10          1           0       -3.945917    3.260903   -1.525688
     11          6           0       -2.149589   -0.314372    0.996942
     12          6           0       -1.875658   -1.818638    0.985476
     13          6           0       -1.207589   -2.307669    2.270905
     14          1           0       -1.202613    0.222586    1.146296
     15          1           0       -2.786291   -0.070619    1.858417
     16          1           0       -1.239692   -2.058866    0.123818
     17          1           0       -2.822679   -2.352552    0.834804
     18          1           0       -1.840982   -2.096663    3.138598
     19          1           0       -0.249001   -1.801308    2.423573
     20          1           0       -1.020893   -3.385689    2.241282
     21          6           0        1.946526   -0.367809   -0.689639
     22          6           0        2.482239   -1.691736   -1.235729
     23          6           0        1.396296   -2.541286   -1.896629
     24          1           0        1.147983   -0.574127    0.036106
     25          1           0        1.484658    0.199069   -1.509837
     26          1           0        2.944188   -2.255339   -0.415014
     27          1           0        3.279730   -1.482247   -1.960116
     28          1           0        0.941274   -2.001848   -2.733625
     29          1           0        0.603826   -2.779332   -1.179744
     30          1           0        1.801134   -3.483108   -2.279953
     31          6           0        3.020284    0.492594   -0.025954
     32          6           0        2.484571    1.816522    0.520134
     33          6           0        3.570512    2.666072    1.181034
     34          1           0        3.482152   -0.074283    0.794242
     35          1           0        3.818826    0.698913   -0.751700
     36          1           0        1.687079    1.607033    1.244523
     37          1           0        2.022622    2.380124   -0.300580
     38          1           0        4.362984    2.904118    0.464149
     39          1           0        4.025535    2.126634    2.018031
     40          1           0        3.165675    3.607894    1.564358
 ---------------------------------------------------------------------

 SCF Done:  E(RHF) =  -470.733134604     A.U. after   11 cycles
 E2 =    -0.1584404371D+01 EUMP2 =    -0.47231753897520D+03

 The electronic state is 1-A.
 Alpha  occ. eigenvalues --  -11.21679 -11.21661 -11.21595 -11.21569 -11.21478
 Alpha  occ. eigenvalues --  -11.21418 -11.21384 -11.21320 -11.21126 -11.21120
 Alpha  occ. eigenvalues --  -11.21119 -11.21052  -1.08517  -1.08405  -1.03605
 Alpha  occ. eigenvalues --   -1.03521  -0.96046  -0.95978  -0.87061  -0.86997
 Alpha  occ. eigenvalues --   -0.79689  -0.79566  -0.78326  -0.78229  -0.65328
 Alpha  occ. eigenvalues --   -0.64883  -0.61149  -0.60786  -0.59417  -0.59339
 Alpha  occ. eigenvalues --   -0.57676  -0.57575  -0.55367  -0.55240  -0.52731
 Alpha  occ. eigenvalues --   -0.52679  -0.52485  -0.52396  -0.50040  -0.49904
 Alpha  occ. eigenvalues --   -0.48099  -0.47844  -0.46832  -0.46466  -0.46114
 Alpha  occ. eigenvalues --   -0.45812  -0.45623  -0.45414  -0.43848  -0.43776
 Alpha virt. eigenvalues --    0.19286   0.22845   0.23522   0.24036   0.25576
 Alpha virt. eigenvalues --    0.26294   0.26803   0.27929   0.28815   0.30309
 Alpha virt. eigenvalues --    0.30378   0.31328   0.31694   0.31819   0.32083

 Mulliken charges:
               1
     1  C   -0.298522
     2  C   -0.299998
     3  C   -0.475660
     4  H    0.150784
     5  H    0.149350
     6  H    0.152613
     7  H    0.151690
     8  H    0.155116
     9  H    0.155019
    10  H    0.160121
    11  C   -0.300844
    12  C   -0.309114
    13  C   -0.476566
    14  H    0.151903
    15  H    0.149621
    16  H    0.159916
    17  H    0.152670
    18  H    0.155863
    19  H    0.154390
    20  H    0.160370
    21  C   -0.305685
    22  C   -0.299234
    23  C   -0.482413
    24  H    0.156765
    25  H    0.149174
    26  H    0.152252
    27  H    0.152296
    28  H    0.154899
    29  H    0.161573
    30  H    0.160958
    31  C   -0.298147
    32  C   -0.301095
    33  C   -0.475728
    34  H    0.149758
    35  H    0.150158
    36  H    0.152360
    37  H    0.151915
    38  H    0.155461
    39  H    0.155445
    40  H    0.160567
 Sum of Mulliken charges =  -0.00000

 Dipole moment (field-independent basis, Debye):
    X=              0.0228    Y=             -0.0052    Z=             -0.0086  Tot=              0.0249
 Quadrupole moment (field-independent basis, Debye-Ang):
   XX=            -84.5316   YY=            -85.3034   ZZ=            -84.8330
   XY=              0.0304   XZ=             -1.3188   YZ=             -0.3871

 Normal termination of Gaussian 16 at Wed May  5 15:16:45 2021.
