 Gaussian 16, Revision A.03,
 Gaussian 16:  EM64L-G16RevA.03 25-Dec-2016

 -------------
 #p 6-31g* mp2
 -------------

 ------------------------------------------------------
 Input file generated by CHIRIPA (05-May-2021 14:51:07)
 ------------------------------------------------------
 Symbolic Z-matrix:
 Charge =  0 Multiplicity = 1

                         Standard orientation:
 ---------------------------------------------------------------------
 Center     Atomic      Atomic             Coordinates (Angstroms)
 Number     Number       Type             X           Y           Z
 ---------------------------------------------------------------------
      1          6           0       -2.833553    0.946815    0.215131
      2          6           0       -1.953970    1.942299   -0.542055
      3          6           0       -1.184881    2.879430    0.389653
      4          1           0       -3.541604    1.499872    0.847379
      5          1           0       -2.204394    0.354975    0.894307
      6          1           0       -2.584402    2.531140   -1.220611
      7          1           0       -1.248058    1.386810   -1.172719
      8          1           0       -0.532468    2.308139    1.057922
      9          1           0       -1.876405    3.458971    1.009758
     10          1           0       -0.562558    3.582649   -0.172536
     11          6           0       -3.608737    0.003148   -0.702644
     12          6           0       -4.488319   -0.992335    0.054543
     13          6           0       -5.257408   -1.929467   -0.877166
     14          1           0       -4.237895    0.594989   -1.381819
     15          1           0       -2.900685   -0.549908   -1.334891
     16          1           0       -5.194231   -0.436847    0.685206
     17          1           0       -3.857887   -1.581177    0.733098
     18          1           0       -4.565885   -2.509007   -1.497270
     19          1           0       -5.909821   -1.358175   -1.545435
     20          1           0       -5.879732   -2.632686   -0.314977
     21          6           0        2.793677   -0.465239    0.876692
     22          6           0        1.337650   -0.862365    0.631204
     23          6           0        0.495150   -0.838104    1.906899
     24          1           0        3.232053   -1.144808    1.620303
     25          1           0        2.822717    0.540945    1.317311
     26          1           0        1.311428   -1.866943    0.189899
     27          1           0        0.902746   -0.181890   -0.112052
     28          1           0        0.491521    0.164271    2.347164
     29          1           0        0.902526   -1.530356    2.650830
     30          1           0       -0.542170   -1.125247    1.708465
     31          6           0        3.648613   -0.484724   -0.389180
     32          6           0        5.104639   -0.087598   -0.143692
     33          6           0        5.947139   -0.111859   -1.419387
     34          1           0        3.619572   -1.490908   -0.829799
     35          1           0        3.210237    0.194845   -1.132791
     36          1           0        5.539543   -0.768073    0.599564
     37          1           0        5.130860    0.916981    0.297614
     38          1           0        5.539763    0.580393   -2.163317
     39          1           0        5.950768   -1.114234   -1.859652
     40          1           0        6.984459    0.175283   -1.220953
 ---------------------------------------------------------------------

 SCF Done:  E(RHF) =  -470.732894306     A.U. after   11 cycles
 E2 =    -0.1583910908D+01 EUMP2 =    -0.47231680521423D+03

 The electronic state is 1-A.
 Alpha  occ. eigenvalues --  -11.21686 -11.21627 -11.21600 -11.21596 -11.21453
 Alpha  occ. eigenvalues --  -11.21391 -11.21365 -11.21284 -11.21171 -11.21090
 Alpha  occ. eigenvalues --  -11.21075 -11.21065  -1.08493  -1.08402  -1.03612
 Alpha  occ. eigenvalues --   -1.03503  -0.96045  -0.95969  -0.87066  -0.86983
 Alpha  occ. eigenvalues --   -0.79683  -0.79560  -0.78299  -0.78213  -0.65255
 Alpha  occ. eigenvalues --   -0.64949  -0.61212  -0.60707  -0.59427  -0.59325
 Alpha  occ. eigenvalues --   -0.57712  -0.57530  -0.55381  -0.55206  -0.52786
 Alpha  occ. eigenvalues --   -0.52664  -0.52517  -0.52318  -0.50024  -0.49879
 Alpha  occ. eigenvalues --   -0.47998  -0.47873  -0.46819  -0.46503  -0.45870
 Alpha  occ. eigenvalues --   -0.45779  -0.45725  -0.45593  -0.43804  -0.43761
 Alpha virt. eigenvalues --    0.19443   0.22832   0.23656   0.24590   0.25840
 Alpha virt. eigenvalues --    0.26260   0.26426   0.27737   0.28205   0.29262
 Alpha virt. eigenvalues --    0.30522   0.31132   0.31742   0.32175   0.32418

 Mulliken charges:
               1
     1  C   -0.306496
     2  C   -0.300427
     3  C   -0.479858
     4  H    0.149353
     5  H    0.158948
     6  H    0.152000
     7  H    0.152515
     8  H    0.158760
     9  H    0.155469
    10  H    0.159712
    11  C   -0.298144
    12  C   -0.299765
    13  C   -0.475677
    14  H    0.149416
    15  H    0.149519
    16  H    0.152144
    17  H    0.151157
    18  H    0.155195
    19  H    0.155260
    20  H    0.160230
    21  C   -0.298341
    22  C   -0.303979
    23  C   -0.480820
    24  H    0.149966
    25  H    0.149917
    26  H    0.152198
    27  H    0.155470
    28  H    0.156806
    29  H    0.156229
    30  H    0.162800
    31  C   -0.298383
    32  C   -0.299743
    33  C   -0.475755
    34  H    0.149526
    35  H    0.149809
    36  H    0.151988
    37  H    0.152172
    38  H    0.155273
    39  H    0.155179
    40  H    0.160378
 Sum of Mulliken charges =  -0.00000

 Dipole moment (field-independent basis, Debye):
    X=              0.0288    Y=             -0.0140    Z=              0.0196  Tot=              0.0375
 Quadrupole moment (field-independent basis, Debye-Ang):
   XX=            -85.0465   YY=            -83.9825   ZZ=            -85.7318
   XY=             -1.2397   XZ=              0.3233   YZ=             -0.5668

 Normal termination of Gaussian 16 at Wed May  5 15:02:36 2021.
