 Gaussian 16, Revision A.03,
 Gaussian 16:  EM64L-G16RevA.03 25-Dec-2016

 -------------
 #p 6-31g* mp2
 -------------

 ------------------------------------------------------
 Input file generated by CHIRIPA (05-May-2021 14:55:23)
 ------------------------------------------------------
 Symbolic Z-matrix:
 Charge =  0 Multiplicity = 1

                         Standard orientation:
 ---------------------------------------------------------------------
 Center     Atomic      Atomic             Coordinates (Angstroms)
 Number     Number       Type             X           Y           Z
 ---------------------------------------------------------------------
      1          6           0        2.928443   -2.363148    0.640524
      2          6           0        2.618509   -1.514573    1.708410
      3          6           0        2.509609   -0.134896    1.510469
      4          6           0        2.717935    0.364476    0.225744
      5          6           0        3.028054   -0.455111   -0.858412
      6          6           0        3.131867   -1.831646   -0.637226
      7          1           0        3.011063   -3.433694    0.803317
      8          1           0        2.460005   -1.924553    2.701807
      9          1           0        2.270837    0.544869    2.319373
     10          1           0        3.180553   -0.017014   -1.837305
     11          1           0        3.372688   -2.488268   -1.468429
     12          7           0        2.605340    1.823415    0.003889
     13          8           0        2.793524    2.238533   -1.137558
     14          8           0        2.331036    2.524187    0.975646
     15          6           0       -2.740882   -0.188479   -0.289220
     16          6           0       -2.064920   -0.526434   -1.618449
     17          6           0       -0.540863   -0.582238   -1.509239
     18          1           0       -2.362146    0.777333    0.072320
     19          1           0       -2.453318   -0.937745    0.461315
     20          1           0       -2.354774    0.222465   -2.366613
     21          1           0       -2.445452   -1.491463   -1.976962
     22          1           0       -0.234229   -1.342207   -0.783275
     23          1           0       -0.143036    0.381459   -1.175140
     24          1           0       -0.078097   -0.825329   -2.470808
     25          6           0       -4.264539   -0.129026   -0.382289
     26          6           0       -4.940500    0.208929    0.946939
     27          6           0       -6.464558    0.264734    0.837730
     28          1           0       -4.552101    0.620240   -1.132824
     29          1           0       -4.643275   -1.094838   -0.743829
     30          1           0       -4.559969    1.173958    1.305453
     31          1           0       -4.650646   -0.539970    1.695104
     32          1           0       -6.862385   -0.698964    0.503631
     33          1           0       -6.771192    1.024703    0.111765
     34          1           0       -6.927324    0.507824    1.799299
 ---------------------------------------------------------------------

 SCF Done:  E(RHF) =  -669.535235051     A.U. after   15 cycles
 E2 =    -0.2092712463D+01 EUMP2 =    -0.67162794751401D+03

 The electronic state is 1-A.
 Alpha  occ. eigenvalues --  -20.60785 -20.60771 -15.85825 -11.31135 -11.27732
 Alpha  occ. eigenvalues --  -11.27715 -11.27495 -11.26758 -11.26738 -11.21533
 Alpha  occ. eigenvalues --  -11.21515 -11.21328 -11.21268 -11.21011 -11.21011
 Alpha  occ. eigenvalues --   -1.59855  -1.39408  -1.19337  -1.08745  -1.08356
 Alpha  occ. eigenvalues --   -1.04740  -1.03462  -0.95922  -0.95578  -0.86944
 Alpha  occ. eigenvalues --   -0.86139  -0.82414  -0.79536  -0.78171  -0.77460
 Alpha  occ. eigenvalues --   -0.72047  -0.71182  -0.70458  -0.65001  -0.64977
 Alpha  occ. eigenvalues --   -0.64749  -0.62090  -0.60856  -0.59293  -0.57547
 Alpha  occ. eigenvalues --   -0.55268  -0.55193  -0.53367  -0.52839  -0.52572
 Alpha  occ. eigenvalues --   -0.52104  -0.49858  -0.48806  -0.48802  -0.47821
 Alpha  occ. eigenvalues --   -0.46561  -0.45705  -0.45634  -0.44811  -0.43728
 Alpha  occ. eigenvalues --   -0.37290  -0.36299
 Alpha virt. eigenvalues --    0.05060   0.11307   0.16555   0.21383   0.22930
 Alpha virt. eigenvalues --    0.24276   0.26684   0.27137   0.27475   0.27878
 Alpha virt. eigenvalues --    0.28417   0.30799   0.31384   0.31743   0.31904

 Mulliken charges:
               1
     1  C   -0.171647
     2  C   -0.218843
     3  C   -0.171109
     4  C    0.159759
     5  C   -0.166371
     6  C   -0.217506
     7  H    0.225434
     8  H    0.223254
     9  H    0.275458
    10  H    0.275416
    11  H    0.223292
    12  N    0.488214
    13  O   -0.460428
    14  O   -0.460741
    15  C   -0.298891
    16  C   -0.300656
    17  C   -0.475721
    18  H    0.153794
    19  H    0.146270
    20  H    0.154323
    21  H    0.149201
    22  H    0.154771
    23  H    0.157447
    24  H    0.155388
    25  C   -0.298213
    26  C   -0.299747
    27  C   -0.475679
    28  H    0.150969
    29  H    0.148191
    30  H    0.153922
    31  H    0.150071
    32  H    0.154272
    33  H    0.156013
    34  H    0.160091
 Sum of Mulliken charges =  -0.00000

 Dipole moment (field-independent basis, Debye):
    X=              0.4482    Y=             -5.0985    Z=              0.7825  Tot=              5.1776
 Quadrupole moment (field-independent basis, Debye-Ang):
   XX=            -94.4654   YY=            -98.1435   ZZ=            -89.7914
   XY=            -14.2540   XZ=              1.0709   YZ=             -0.4594

 Normal termination of Gaussian 16 at Thu May  6 19:17:27 2021.
