 Gaussian 16, Revision A.03,
 Gaussian 16:  EM64L-G16RevA.03 25-Dec-2016

 -------------
 #p 6-31g* mp2
 -------------

 ------------------------------------------------------
 Input file generated by CHIRIPA (05-May-2021 14:57:25)
 ------------------------------------------------------
 Symbolic Z-matrix:
 Charge =  0 Multiplicity = 1

                         Standard orientation:
 ---------------------------------------------------------------------
 Center     Atomic      Atomic             Coordinates (Angstroms)
 Number     Number       Type             X           Y           Z
 ---------------------------------------------------------------------
      1          6           0       -6.789086   -0.476230   -0.227129
      2          6           0       -6.303128    0.832563   -0.313304
      3          6           0       -4.935836    1.092419   -0.180881
      4          6           0       -4.078949    0.014859    0.037976
      5          6           0       -4.532565   -1.300171    0.128640
      6          6           0       -5.903814   -1.536551   -0.006820
      7          1           0       -7.852768   -0.668974   -0.331178
      8          1           0       -6.988317    1.657977   -0.484339
      9          1           0       -4.532663    2.095896   -0.243355
     10          1           0       -3.825043   -2.102385    0.299762
     11          1           0       -6.278389   -2.553998    0.060549
     12          7           0       -2.629364    0.277530    0.179774
     13          8           0       -1.895123   -0.689193    0.372059
     14          8           0       -2.254868    1.445161    0.095945
     15          6           0        1.928022    0.819175    0.156668
     16          6           0        2.209478   -0.549366    0.090349
     17          6           0        3.529869   -0.998892   -0.004738
     18          6           0        4.548899   -0.048013   -0.031164
     19          6           0        4.300588    1.322200    0.033237
     20          6           0        2.972634    1.748951    0.127953
     21          1           0        0.899374    1.159532    0.230390
     22          1           0        1.400230   -1.273711    0.112448
     23          1           0        3.776095   -2.052458   -0.057558
     24          1           0        5.128476    2.020365    0.009078
     25          1           0        2.757022    2.812398    0.179302
     26          7           0        5.950741   -0.511851   -0.131632
     27          8           0        6.830617    0.346049   -0.153115
     28          8           0        6.143084   -1.724524   -0.186992
 ---------------------------------------------------------------------

 SCF Done:  E(RHF) =  -868.342543844     A.U. after   16 cycles
 E2 =    -0.2598587181D+01 EUMP2 =    -0.87094113102453D+03

 The electronic state is 1-A.
 Alpha  occ. eigenvalues --  -20.62277 -20.62251 -20.59797 -20.59791 -15.87221
 Alpha  occ. eigenvalues --  -15.84841 -11.32149 -11.29909 -11.28656 -11.28652
 Alpha  occ. eigenvalues --  -11.28312 -11.27566 -11.27557 -11.26493 -11.26433
 Alpha  occ. eigenvalues --  -11.25818 -11.25354 -11.25184  -1.61285  -1.58880
 Alpha  occ. eigenvalues --   -1.40850  -1.38443  -1.20273  -1.18027  -1.09753
 Alpha  occ. eigenvalues --   -1.07412  -1.05605  -1.03397  -0.96661  -0.94307
 Alpha  occ. eigenvalues --   -0.87024  -0.84762  -0.83513  -0.81174  -0.78604
 Alpha  occ. eigenvalues --   -0.76314  -0.73461  -0.72550  -0.71372  -0.71063
 Alpha  occ. eigenvalues --   -0.70203  -0.68967  -0.65928  -0.65602  -0.63640
 Alpha  occ. eigenvalues --   -0.63343  -0.62956  -0.60758  -0.56125  -0.53957
 Alpha  occ. eigenvalues --   -0.53701  -0.53665  -0.51742  -0.51447  -0.50228
 Alpha  occ. eigenvalues --   -0.50175  -0.47838  -0.47787  -0.46343  -0.43917
 Alpha  occ. eigenvalues --   -0.38222  -0.37185  -0.35908  -0.35038
 Alpha virt. eigenvalues --    0.03903   0.06218   0.10477   0.12644   0.15497
 Alpha virt. eigenvalues --    0.17823   0.20651   0.23106   0.26607   0.27505
 Alpha virt. eigenvalues --    0.28702   0.29982   0.30447   0.31674   0.32837

 Mulliken charges:
               1
     1  C   -0.169089
     2  C   -0.218560
     3  C   -0.169859
     4  C    0.158085
     5  C   -0.169911
     6  C   -0.218545
     7  H    0.229015
     8  H    0.226353
     9  H    0.276159
    10  H    0.275852
    11  H    0.226506
    12  N    0.491501
    13  O   -0.466542
    14  O   -0.463419
    15  C   -0.180137
    16  C   -0.224106
    17  C   -0.173384
    18  C    0.156665
    19  C   -0.172854
    20  C   -0.221146
    21  H    0.251101
    22  H    0.234599
    23  H    0.270716
    24  H    0.270666
    25  H    0.220382
    26  N    0.488379
    27  O   -0.464321
    28  O   -0.464106
 Sum of Mulliken charges =  -0.00000

 Dipole moment (field-independent basis, Debye):
    X=            -10.9968    Y=              0.6950    Z=             -0.1382  Tot=             11.0196
 Quadrupole moment (field-independent basis, Debye-Ang):
   XX=           -108.9290   YY=            -95.8160   ZZ=           -106.6032
   XY=             12.3865   XZ=              3.9617   YZ=             -0.7666

 Normal termination of Gaussian 16 at Wed May  5 22:47:02 2021.
