 Gaussian 16, Revision A.03,
 Gaussian 16:  EM64L-G16RevA.03 25-Dec-2016

 -------------
 #p 6-31g* mp2
 -------------

 ------------------------------------------------------
 Input file generated by CHIRIPA (05-May-2021 14:53:16)
 ------------------------------------------------------
 Symbolic Z-matrix:
 Charge =  0 Multiplicity = 1

                         Standard orientation:
 ---------------------------------------------------------------------
 Center     Atomic      Atomic             Coordinates (Angstroms)
 Number     Number       Type             X           Y           Z
 ---------------------------------------------------------------------
      1          6           0       -4.275919    0.108609   -0.361038
      2          6           0       -4.820077    0.883085    0.839821
      3          6           0       -6.209359    1.468678    0.585322
      4          1           0       -4.240209    0.775207   -1.233573
      5          1           0       -4.975103   -0.700384   -0.614152
      6          1           0       -4.119390    1.689518    1.091458
      7          1           0       -4.854316    0.214619    1.709647
      8          1           0       -6.926383    0.673767    0.355987
      9          1           0       -6.187282    2.157046   -0.265714
     10          1           0       -6.579195    2.018157    1.456617
     11          6           0       -2.887844   -0.482850   -0.121971
     12          6           0       -2.343686   -1.257326   -1.322830
     13          6           0       -0.954404   -1.842918   -1.068331
     14          1           0       -2.188661    0.326144    0.131142
     15          1           0       -2.923554   -1.149447    0.750564
     16          1           0       -2.309448   -0.588859   -2.192656
     17          1           0       -3.044373   -2.063758   -1.574467
     18          1           0       -0.976481   -2.531287   -0.217295
     19          1           0       -0.237380   -1.048007   -0.838996
     20          1           0       -0.584568   -2.392398   -1.939626
     21          6           0        3.397037    2.377753   -0.825033
     22          6           0        3.191382    1.266857   -1.649736
     23          6           0        2.859265    0.025506   -1.099014
     24          6           0        2.740466   -0.069552    0.286677
     25          6           0        2.939157    1.018799    1.134794
     26          6           0        3.270491    2.250404    0.562155
     27          1           0        3.654731    3.338278   -1.261360
     28          1           0        3.288988    1.362815   -2.727378
     29          1           0        2.694576   -0.850804   -1.714138
     30          1           0        2.834763    0.892130    2.205530
     31          1           0        3.429631    3.111433    1.205075
     32          7           0        2.389282   -1.378556    0.881303
     33          8           0        2.290612   -1.436117    2.105063
     34          8           0        2.219343   -2.322203    0.112352
 ---------------------------------------------------------------------

 SCF Done:  E(RHF) =  -669.535522764     A.U. after   15 cycles
 E2 =    -0.2092201501D+01 EUMP2 =    -0.67162772426487D+03

 The electronic state is 1-A.
 Alpha  occ. eigenvalues --  -20.60820 -20.60796 -15.85832 -11.31232 -11.27797
 Alpha  occ. eigenvalues --  -11.27792 -11.27546 -11.26819 -11.26808 -11.21391
 Alpha  occ. eigenvalues --  -11.21117 -11.21097 -11.20976 -11.20920 -11.20299
 Alpha  occ. eigenvalues --   -1.59867  -1.39422  -1.19406  -1.08796  -1.08087
 Alpha  occ. eigenvalues --   -1.04808  -1.03146  -0.95646  -0.95555  -0.86587
 Alpha  occ. eigenvalues --   -0.86202  -0.82456  -0.79219  -0.77901  -0.77490
 Alpha  occ. eigenvalues --   -0.72063  -0.71186  -0.70507  -0.65057  -0.64811
 Alpha  occ. eigenvalues --   -0.64721  -0.62153  -0.60550  -0.58968  -0.57193
 Alpha  occ. eigenvalues --   -0.55310  -0.54877  -0.53135  -0.52896  -0.52256
 Alpha  occ. eigenvalues --   -0.52000  -0.49538  -0.48827  -0.48808  -0.47550
 Alpha  occ. eigenvalues --   -0.46269  -0.45497  -0.45366  -0.44662  -0.43385
 Alpha  occ. eigenvalues --   -0.37380  -0.36405
 Alpha virt. eigenvalues --    0.05014   0.11170   0.16490   0.21348   0.23166
 Alpha virt. eigenvalues --    0.24587   0.26919   0.27184   0.27747   0.27872
 Alpha virt. eigenvalues --    0.28642   0.30871   0.31633   0.31982   0.32196

 Mulliken charges:
               1
     1  C   -0.297668
     2  C   -0.299261
     3  C   -0.475442
     4  H    0.147335
     5  H    0.149614
     6  H    0.150242
     7  H    0.153217
     8  H    0.155397
     9  H    0.153851
    10  H    0.159461
    11  C   -0.297844
    12  C   -0.301823
    13  C   -0.469493
    14  H    0.146702
    15  H    0.152905
    16  H    0.146227
    17  H    0.151053
    18  H    0.166866
    19  H    0.145223
    20  H    0.158133
    21  C   -0.170819
    22  C   -0.218920
    23  C   -0.171223
    24  C    0.157424
    25  C   -0.171191
    26  C   -0.218624
    27  H    0.225764
    28  H    0.223765
    29  H    0.276990
    30  H    0.275857
    31  H    0.223633
    32  N    0.489113
    33  O   -0.459997
    34  O   -0.456467
 Sum of Mulliken charges =  -0.00000

 Dipole moment (field-independent basis, Debye):
    X=              1.3856    Y=              4.4937    Z=             -2.0253  Tot=              5.1201
 Quadrupole moment (field-independent basis, Debye-Ang):
   XX=            -89.9742   YY=            -94.2891   ZZ=            -91.9001
   XY=             13.8606   XZ=             -5.6915   YZ=              3.2201

 Normal termination of Gaussian 16 at Thu May  6 20:27:39 2021.
