 Gaussian 16, Revision A.03,
 Gaussian 16:  EM64L-G16RevA.03 25-Dec-2016

 -------------
 #p 6-31g* mp2
 -------------

 ------------------------------------------------------
 Input file generated by CHIRIPA (05-May-2021 14:51:09)
 ------------------------------------------------------
 Symbolic Z-matrix:
 Charge =  0 Multiplicity = 1

                         Standard orientation:
 ---------------------------------------------------------------------
 Center     Atomic      Atomic             Coordinates (Angstroms)
 Number     Number       Type             X           Y           Z
 ---------------------------------------------------------------------
      1          6           0       -3.134434   -0.973187    0.365328
      2          6           0       -1.873997   -0.333937    0.948975
      3          6           0       -0.828733   -1.366731    1.371530
      4          1           0       -3.570031   -1.654854    1.108652
      5          1           0       -2.856893   -1.590612   -0.500207
      6          1           0       -2.154004    0.283202    1.812312
      7          1           0       -1.441456    0.346433    0.204246
      8          1           0       -0.520828   -1.975700    0.515403
      9          1           0       -1.237425   -2.039290    2.132606
     10          1           0        0.063998   -0.888019    1.785930
     11          6           0       -4.188742    0.046503   -0.061750
     12          6           0       -5.449179   -0.592747   -0.645396
     13          6           0       -6.494443    0.440047   -1.067951
     14          1           0       -4.466283    0.663928    0.803786
     15          1           0       -3.753145    0.728170   -0.805074
     16          1           0       -5.881720   -1.273117    0.099333
     17          1           0       -5.169172   -1.209886   -1.508733
     18          1           0       -6.085751    1.112606   -1.829028
     19          1           0       -6.802348    1.049016   -0.211825
     20          1           0       -7.387173   -0.038665   -1.482351
     21          6           0        4.051563   -0.157572    0.062261
     22          6           0        5.081122   -0.613488   -0.972211
     23          6           0        5.853239   -1.856760   -0.529601
     24          1           0        4.562190    0.045531    1.013551
     25          1           0        3.347113   -0.978612    0.254712
     26          1           0        5.782596    0.208637   -1.163680
     27          1           0        4.568011   -0.815347   -1.921204
     28          1           0        5.169180   -2.693994   -0.357249
     29          1           0        6.390666   -1.664192    0.404578
     30          1           0        6.583801   -2.165307   -1.283881
     31          6           0        3.271614    1.084256   -0.365840
     32          6           0        2.242054    1.540172    0.668633
     33          6           0        1.469937    2.783444    0.226022
     34          1           0        3.976063    1.905297   -0.558291
     35          1           0        2.760985    0.881152   -1.317130
     36          1           0        2.755165    1.742030    1.617625
     37          1           0        1.540580    0.718047    0.860102
     38          1           0        0.932510    2.590876   -0.708157
     39          1           0        2.153996    3.620678    0.053670
     40          1           0        0.739374    3.091990    0.980302
 ---------------------------------------------------------------------

 SCF Done:  E(RHF) =  -470.733270281     A.U. after   11 cycles
 E2 =    -0.1582846458D+01 EUMP2 =    -0.47231611673922D+03

 The electronic state is 1-A.
 Alpha  occ. eigenvalues --  -11.21633 -11.21615 -11.21588 -11.21557 -11.21427
 Alpha  occ. eigenvalues --  -11.21386 -11.21366 -11.21327 -11.21108 -11.21080
 Alpha  occ. eigenvalues --  -11.21060 -11.21057  -1.08457  -1.08409  -1.03573
 Alpha  occ. eigenvalues --   -1.03497  -0.96015  -0.95956  -0.87037  -0.86967
 Alpha  occ. eigenvalues --   -0.79633  -0.79563  -0.78264  -0.78228  -0.65126
 Alpha  occ. eigenvalues --   -0.65015  -0.61054  -0.60853  -0.59474  -0.59232
 Alpha  occ. eigenvalues --   -0.57685  -0.57498  -0.55307  -0.55232  -0.52753
 Alpha  occ. eigenvalues --   -0.52634  -0.52459  -0.52364  -0.49965  -0.49885
 Alpha  occ. eigenvalues --   -0.48014  -0.47821  -0.46647  -0.46585  -0.45804
 Alpha  occ. eigenvalues --   -0.45768  -0.45727  -0.45674  -0.43801  -0.43746
 Alpha virt. eigenvalues --    0.20846   0.23162   0.23606   0.24698   0.26255
 Alpha virt. eigenvalues --    0.26506   0.26990   0.27280   0.28377   0.29108
 Alpha virt. eigenvalues --    0.30657   0.31066   0.31667   0.31860   0.32121

 Mulliken charges:
               1
     1  C   -0.298268
     2  C   -0.301464
     3  C   -0.480663
     4  H    0.149838
     5  H    0.149384
     6  H    0.152201
     7  H    0.153770
     8  H    0.154496
     9  H    0.155871
    10  H    0.164550
    11  C   -0.298303
    12  C   -0.299681
    13  C   -0.475723
    14  H    0.149649
    15  H    0.149747
    16  H    0.151969
    17  H    0.151881
    18  H    0.155233
    19  H    0.155242
    20  H    0.160284
    21  C   -0.298840
    22  C   -0.299599
    23  C   -0.475726
    24  H    0.149541
    25  H    0.150078
    26  H    0.151894
    27  H    0.151798
    28  H    0.155324
    29  H    0.155168
    30  H    0.160158
    31  C   -0.297421
    32  C   -0.309495
    33  C   -0.475031
    34  H    0.149424
    35  H    0.149189
    36  H    0.151510
    37  H    0.161806
    38  H    0.154484
    39  H    0.155016
    40  H    0.160711
 Sum of Mulliken charges =  -0.00000

 Dipole moment (field-independent basis, Debye):
    X=             -0.0200    Y=             -0.0048    Z=              0.0126  Tot=              0.0241
 Quadrupole moment (field-independent basis, Debye-Ang):
   XX=            -85.2861   YY=            -85.6649   ZZ=            -83.8498
   XY=              1.5109   XZ=             -0.4919   YZ=              0.6130

 Normal termination of Gaussian 16 at Thu May  6 05:18:33 2021.
