 Gaussian 16, Revision A.03,
 Gaussian 16:  EM64L-G16RevA.03 25-Dec-2016

 -------------
 #p 6-31g* mp2
 -------------

 ------------------------------------------------------
 Input file generated by CHIRIPA (05-May-2021 14:57:25)
 ------------------------------------------------------
 Symbolic Z-matrix:
 Charge =  0 Multiplicity = 1

                         Standard orientation:
 ---------------------------------------------------------------------
 Center     Atomic      Atomic             Coordinates (Angstroms)
 Number     Number       Type             X           Y           Z
 ---------------------------------------------------------------------
      1          6           0        5.865007   -0.573704    1.005754
      2          6           0        4.895307    0.105494    1.750666
      3          6           0        3.650034    0.404699    1.190025
      4          6           0        3.407115    0.008064   -0.124114
      5          6           0        4.352725   -0.669888   -0.891898
      6          6           0        5.591103   -0.958549   -0.310830
      7          1           0        6.829687   -0.802038    1.449208
      8          1           0        5.105252    0.405591    2.773363
      9          1           0        2.881214    0.929408    1.744113
     10          1           0        4.114227   -0.956171   -1.909041
     11          1           0        6.342286   -1.486139   -0.891707
     12          7           0        2.092449    0.319238   -0.728453
     13          8           0        1.903103   -0.041062   -1.888181
     14          8           0        1.276254    0.917543   -0.030962
     15          6           0       -2.393276    2.196191   -0.440764
     16          6           0       -3.404181    2.162426    0.525389
     17          6           0       -4.092624    0.975082    0.791485
     18          6           0       -3.742749   -0.164920    0.069492
     19          6           0       -2.740328   -0.163192   -0.899238
     20          6           0       -2.065154    1.035321   -1.148745
     21          1           0       -1.863630    3.122887   -0.641031
     22          1           0       -3.661129    3.062438    1.076752
     23          1           0       -4.879442    0.920783    1.534040
     24          1           0       -2.506566   -1.076548   -1.432674
     25          1           0       -1.280512    1.058592   -1.899639
     26          7           0       -4.464549   -1.427820    0.342417
     27          8           0       -4.137418   -2.418504   -0.307329
     28          8           0       -5.343760   -1.403086    1.200912
 ---------------------------------------------------------------------

 SCF Done:  E(RHF) =  -868.340374424     A.U. after   16 cycles
 E2 =    -0.2599167522D+01 EUMP2 =    -0.87093954194633D+03

 The electronic state is 1-A.
 Alpha  occ. eigenvalues --  -20.61691 -20.61685 -20.59776 -20.59765 -15.86685
 Alpha  occ. eigenvalues --  -15.84810 -11.31760 -11.29883 -11.28293 -11.28288
 Alpha  occ. eigenvalues --  -11.27981 -11.27241 -11.27231 -11.26445 -11.26266
 Alpha  occ. eigenvalues --  -11.26002 -11.25459 -11.25108  -1.60747  -1.58854
 Alpha  occ. eigenvalues --   -1.40303  -1.38416  -1.19905  -1.17987  -1.09358
 Alpha  occ. eigenvalues --   -1.07432  -1.05262  -1.03326  -0.96241  -0.94331
 Alpha  occ. eigenvalues --   -0.86674  -0.84736  -0.83080  -0.81167  -0.78163
 Alpha  occ. eigenvalues --   -0.76258  -0.72918  -0.72032  -0.71040  -0.71009
 Alpha  occ. eigenvalues --   -0.70172  -0.69102  -0.65560  -0.65266  -0.63630
 Alpha  occ. eigenvalues --   -0.63304  -0.62612  -0.60681  -0.55777  -0.53841
 Alpha  occ. eigenvalues --   -0.53607  -0.53350  -0.51715  -0.51425  -0.49694
 Alpha  occ. eigenvalues --   -0.49611  -0.47810  -0.47761  -0.45765  -0.43888
 Alpha  occ. eigenvalues --   -0.37866  -0.36850  -0.35927  -0.34878
 Alpha virt. eigenvalues --    0.04352   0.06229   0.10809   0.12765   0.15910
 Alpha virt. eigenvalues --    0.17840   0.20981   0.22880   0.26907   0.27850
 Alpha virt. eigenvalues --    0.28871   0.29627   0.30575   0.32041   0.32456

 Mulliken charges:
               1
     1  C   -0.169623
     2  C   -0.218483
     3  C   -0.170284
     4  C    0.158248
     5  C   -0.170195
     6  C   -0.218504
     7  H    0.227804
     8  H    0.225289
     9  H    0.275755
    10  H    0.276070
    11  H    0.225430
    12  N    0.489211
    13  O   -0.464844
    14  O   -0.462150
    15  C   -0.169293
    16  C   -0.219561
    17  C   -0.174797
    18  C    0.157616
    19  C   -0.176449
    20  C   -0.203789
    21  H    0.223600
    22  H    0.217125
    23  H    0.269835
    24  H    0.273518
    25  H    0.238615
    26  N    0.488066
    27  O   -0.463058
    28  O   -0.465153
 Sum of Mulliken charges =  -0.00000

 Dipole moment (field-independent basis, Debye):
    X=              7.8243    Y=              3.3885    Z=              1.0596  Tot=              8.5921
 Quadrupole moment (field-independent basis, Debye-Ang):
   XX=            -92.3736   YY=           -105.7567   ZZ=           -100.0005
   XY=            -23.3797   XZ=              7.6878   YZ=              4.5183

 Normal termination of Gaussian 16 at Thu May  6 03:32:37 2021.
