 Gaussian 16, Revision A.03,
 Gaussian 16:  EM64L-G16RevA.03 25-Dec-2016

 -------------
 #p 6-31g* mp2
 -------------

 ------------------------------------------------------
 Input file generated by CHIRIPA (05-May-2021 14:51:12)
 ------------------------------------------------------
 Symbolic Z-matrix:
 Charge =  0 Multiplicity = 1

                         Standard orientation:
 ---------------------------------------------------------------------
 Center     Atomic      Atomic             Coordinates (Angstroms)
 Number     Number       Type             X           Y           Z
 ---------------------------------------------------------------------
      1          6           0       -2.673132    0.887496   -0.146610
      2          6           0       -2.681755   -0.635481   -0.282444
      3          6           0       -4.080173   -1.198242   -0.538419
      4          1           0       -3.343352    1.179929    0.673288
      5          1           0       -3.086594    1.332653   -1.062187
      6          1           0       -2.267119   -1.077590    0.632560
      7          1           0       -2.011290   -0.924335   -1.101990
      8          1           0       -4.498827   -0.784661   -1.461609
      9          1           0       -4.756109   -0.938787    0.282796
     10          1           0       -4.063179   -2.288548   -0.632246
     11          6           0       -1.282236    1.465000    0.109558
     12          6           0       -1.273613    2.987978    0.245391
     13          6           0        0.124805    3.550738    0.501367
     14          1           0       -0.868774    1.019844    1.025134
     15          1           0       -0.612016    1.172567   -0.710340
     16          1           0       -1.944078    3.276831    1.064938
     17          1           0       -1.688249    3.430086   -0.669613
     18          1           0        0.800741    3.291283   -0.319848
     19          1           0        0.543459    3.137157    1.424557
     20          1           0        0.107811    4.641044    0.595193
     21          6           0        2.677033   -0.935986   -0.172830
     22          6           0        2.819375    0.586380   -0.161566
     23          6           0        4.224064    1.051634   -0.546509
     24          1           0        3.411424   -1.371677    0.518393
     25          1           0        2.927800   -1.313327   -1.173891
     26          1           0        2.567076    0.960865    0.838794
     27          1           0        2.084431    1.018508   -0.852752
     28          1           0        4.482138    0.705946   -1.552739
     29          1           0        4.967525    0.647975    0.148420
     30          1           0        4.303517    2.143118   -0.531984
     31          6           0        1.278335   -1.416510    0.209882
     32          6           0        1.135992   -2.938876    0.198618
     33          6           0       -0.268696   -3.404131    0.583561
     34          1           0        1.027568   -1.039168    1.210944
     35          1           0        0.543944   -0.980820   -0.481339
     36          1           0        1.870937   -3.371003    0.889804
     37          1           0        1.388292   -3.313361   -0.801742
     38          1           0       -1.012157   -3.000471   -0.111367
     39          1           0       -0.526770   -3.058442    1.589791
     40          1           0       -0.348149   -4.495615    0.569036
 ---------------------------------------------------------------------

 SCF Done:  E(RHF) =  -470.730047659     A.U. after   11 cycles
 E2 =    -0.1587176149D+01 EUMP2 =    -0.47231722380779D+03

 The electronic state is 1-A.
 Alpha  occ. eigenvalues --  -11.21554 -11.21544 -11.21525 -11.21511 -11.21353
 Alpha  occ. eigenvalues --  -11.21312 -11.21278 -11.21214 -11.21066 -11.21027
 Alpha  occ. eigenvalues --  -11.21008 -11.20923  -1.08486  -1.08276  -1.03582
 Alpha  occ. eigenvalues --   -1.03389  -0.96022  -0.95842  -0.87007  -0.86891
 Alpha  occ. eigenvalues --   -0.79831  -0.79313  -0.78759  -0.77653  -0.65232
 Alpha  occ. eigenvalues --   -0.64815  -0.61029  -0.60785  -0.59533  -0.59077
 Alpha  occ. eigenvalues --   -0.57958  -0.57180  -0.55310  -0.55120  -0.52671
 Alpha  occ. eigenvalues --   -0.52587  -0.52466  -0.52244  -0.49956  -0.49805
 Alpha  occ. eigenvalues --   -0.48381  -0.47406  -0.46858  -0.46760  -0.46318
 Alpha  occ. eigenvalues --   -0.46047  -0.45213  -0.44540  -0.43749  -0.43653
 Alpha virt. eigenvalues --    0.21180   0.22165   0.23379   0.23811   0.24872
 Alpha virt. eigenvalues --    0.25588   0.26532   0.27605   0.28827   0.29205
 Alpha virt. eigenvalues --    0.30790   0.31457   0.31521   0.32144   0.32981

 Mulliken charges:
               1
     1  C   -0.297468
     2  C   -0.305259
     3  C   -0.476902
     4  H    0.149277
     5  H    0.148566
     6  H    0.159407
     7  H    0.150255
     8  H    0.154998
     9  H    0.155483
    10  H    0.160780
    11  C   -0.301497
    12  C   -0.299724
    13  C   -0.477078
    14  H    0.152366
    15  H    0.151657
    16  H    0.151414
    17  H    0.151197
    18  H    0.158206
    19  H    0.155105
    20  H    0.159330
    21  C   -0.298298
    22  C   -0.302213
    23  C   -0.476245
    24  H    0.149018
    25  H    0.148487
    26  H    0.153462
    27  H    0.154062
    28  H    0.154643
    29  H    0.155111
    30  H    0.160475
    31  C   -0.303596
    32  C   -0.298735
    33  C   -0.481548
    34  H    0.148329
    35  H    0.158125
    36  H    0.150999
    37  H    0.150820
    38  H    0.165095
    39  H    0.152903
    40  H    0.158994
 Sum of Mulliken charges =  -0.00000

 Dipole moment (field-independent basis, Debye):
    X=             -0.0310    Y=              0.0166    Z=              0.0052  Tot=              0.0356
 Quadrupole moment (field-independent basis, Debye-Ang):
   XX=            -86.7245   YY=            -85.6720   ZZ=            -82.8999
   XY=             -0.8266   XZ=              0.1596   YZ=             -0.0547

 Normal termination of Gaussian 16 at Thu May  6 07:06:40 2021.
