 Gaussian 16, Revision A.03,
 Gaussian 16:  EM64L-G16RevA.03 25-Dec-2016

 -------------
 #p 6-31g* mp2
 -------------

 ------------------------------------------------------
 Input file generated by CHIRIPA (05-May-2021 14:55:22)
 ------------------------------------------------------
 Symbolic Z-matrix:
 Charge =  0 Multiplicity = 1

                         Standard orientation:
 ---------------------------------------------------------------------
 Center     Atomic      Atomic             Coordinates (Angstroms)
 Number     Number       Type             X           Y           Z
 ---------------------------------------------------------------------
      1          6           0        5.558742    0.906949    1.093962
      2          6           0        4.394419    1.626990    0.806884
      3          6           0        3.301591    0.998267    0.202747
      4          6           0        3.407919   -0.357854   -0.102084
      5          6           0        4.554291   -1.102371    0.171440
      6          6           0        5.634828   -0.453036    0.775884
      7          1           0        6.402903    1.403362    1.563389
      8          1           0        4.332507    2.683277    1.052790
      9          1           0        2.388148    1.531767   -0.030527
     10          1           0        4.586262   -2.154225   -0.085461
     11          1           0        6.537792   -1.014738    0.997677
     12          7           0        2.257497   -1.034365   -0.741819
     13          8           0        2.376286   -2.230042   -1.000439
     14          8           0        1.258791   -0.356128   -0.972511
     15          6           0       -3.843463    0.366195   -0.038464
     16          6           0       -3.350948    1.473123   -0.971269
     17          6           0       -1.825664    1.562381   -1.029021
     18          1           0       -3.446575    0.542286    0.970702
     19          1           0       -3.431343   -0.595929   -0.372933
     20          1           0       -3.764993    2.432680   -0.635956
     21          1           0       -3.749211    1.294481   -1.978289
     22          1           0       -1.397799    0.619592   -1.384943
     23          1           0       -1.413670    1.764258   -0.034985
     24          1           0       -1.495375    2.360145   -1.701583
     25          6           0       -5.366195    0.264478    0.029882
     26          6           0       -5.858710   -0.842451    0.962687
     27          6           0       -7.383994   -0.931709    1.020439
     28          1           0       -5.778315    1.226601    0.364351
     29          1           0       -5.763083    0.088385   -0.979284
     30          1           0       -5.460447   -0.663809    1.969707
     31          1           0       -5.444666   -1.802008    0.627376
     32          1           0       -7.795989   -1.133586    0.026403
     33          1           0       -7.811859    0.011080    1.376361
     34          1           0       -7.714283   -1.729474    1.693001
 ---------------------------------------------------------------------

 SCF Done:  E(RHF) =  -669.535879119     A.U. after   15 cycles
 E2 =    -0.2090731038D+01 EUMP2 =    -0.67162661015671D+03

 The electronic state is 1-A.
 Alpha  occ. eigenvalues --  -20.60849 -20.60839 -15.85890 -11.31230 -11.27799
 Alpha  occ. eigenvalues --  -11.27787 -11.27542 -11.26811 -11.26800 -11.21054
 Alpha  occ. eigenvalues --  -11.20750 -11.20717 -11.20623 -11.20557 -11.19843
 Alpha  occ. eigenvalues --   -1.59916  -1.39470  -1.19402  -1.08804  -1.07705
 Alpha  occ. eigenvalues --   -1.04801  -1.02771  -0.95646  -0.95199  -0.86220
 Alpha  occ. eigenvalues --   -0.86195  -0.82475  -0.78850  -0.77555  -0.77461
 Alpha  occ. eigenvalues --   -0.72116  -0.71234  -0.70510  -0.65058  -0.64805
 Alpha  occ. eigenvalues --   -0.64340  -0.62147  -0.60167  -0.58613  -0.56812
 Alpha  occ. eigenvalues --   -0.55307  -0.54477  -0.53133  -0.52893  -0.51915
 Alpha  occ. eigenvalues --   -0.51603  -0.49177  -0.48864  -0.48821  -0.47136
 Alpha  occ. eigenvalues --   -0.45881  -0.45053  -0.44951  -0.44862  -0.43042
 Alpha  occ. eigenvalues --   -0.37385  -0.36404
 Alpha virt. eigenvalues --    0.05009   0.11250   0.16504   0.21314   0.23559
 Alpha virt. eigenvalues --    0.25032   0.27000   0.27434   0.27758   0.28256
 Alpha virt. eigenvalues --    0.29095   0.30857   0.31894   0.32315   0.32742

 Mulliken charges:
               1
     1  C   -0.170676
     2  C   -0.218653
     3  C   -0.171288
     4  C    0.157621
     5  C   -0.170665
     6  C   -0.218649
     7  H    0.225731
     8  H    0.223696
     9  H    0.277018
    10  H    0.275656
    11  H    0.223546
    12  N    0.493788
    13  O   -0.460190
    14  O   -0.464712
    15  C   -0.298005
    16  C   -0.299836
    17  C   -0.479159
    18  H    0.147241
    19  H    0.154947
    20  H    0.146004
    21  H    0.150267
    22  H    0.181609
    23  H    0.147381
    24  H    0.152293
    25  C   -0.297739
    26  C   -0.299273
    27  C   -0.475307
    28  H    0.146991
    29  H    0.149006
    30  H    0.150642
    31  H    0.153253
    32  H    0.154824
    33  H    0.153762
    34  H    0.158875
 Sum of Mulliken charges =  -0.00000

 Dipole moment (field-independent basis, Debye):
    X=              4.2867    Y=              2.2593    Z=              2.1984  Tot=              5.3210
 Quadrupole moment (field-independent basis, Debye-Ang):
   XX=            -68.4690   YY=            -92.9226   ZZ=            -95.5257
   XY=              4.4440   XZ=              7.7503   YZ=             -0.2533

 Normal termination of Gaussian 16 at Thu May  6 07:50:09 2021.
