 Gaussian 16, Revision A.03,
 Gaussian 16:  EM64L-G16RevA.03 25-Dec-2016

 -------------
 #p 6-31g* mp2
 -------------

 ------------------------------------------------------
 Input file generated by CHIRIPA (05-May-2021 14:53:15)
 ------------------------------------------------------
 Symbolic Z-matrix:
 Charge =  0 Multiplicity = 1

                         Standard orientation:
 ---------------------------------------------------------------------
 Center     Atomic      Atomic             Coordinates (Angstroms)
 Number     Number       Type             X           Y           Z
 ---------------------------------------------------------------------
      1          6           0        4.009395   -0.303883   -0.372728
      2          6           0        4.803305    0.216243    0.826088
      3          6           0        6.214853    0.667400    0.449547
      4          1           0        4.553988   -1.141555   -0.829532
      5          1           0        3.951971    0.484780   -1.135688
      6          1           0        4.858032   -0.572696    1.587137
      7          1           0        4.256665    1.052650    1.280206
      8          1           0        6.177187    1.471699   -0.292265
      9          1           0        6.781971   -0.162882    0.016409
     10          1           0        6.764651    1.035461    1.321393
     11          6           0        2.596255   -0.758665   -0.012261
     12          6           0        1.802344   -1.278791   -1.211077
     13          6           0        0.390796   -1.729949   -0.834536
     14          1           0        2.653678   -1.547328    0.750699
     15          1           0        2.051661    0.079007    0.444543
     16          1           0        2.348985   -2.115198   -1.665195
     17          1           0        1.747617   -0.489852   -1.972126
     18          1           0       -0.176322   -0.899666   -0.401398
     19          1           0        0.428462   -2.534247   -0.092723
     20          1           0       -0.159001   -2.098009   -1.706381
     21          6           0       -1.663565    2.687858   -0.449481
     22          6           0       -1.594596    2.231453    0.870920
     23          6           0       -2.099358    0.973854    1.214732
     24          6           0       -2.668962    0.195332    0.208380
     25          6           0       -2.752399    0.622086   -1.116086
     26          6           0       -2.241229    1.883137   -1.437029
     27          1           0       -1.268965    3.666132   -0.707680
     28          1           0       -1.146524    2.854260    1.639937
     29          1           0       -2.058953    0.595837    2.229074
     30          1           0       -3.204846   -0.021409   -1.860816
     31          1           0       -2.296153    2.235001   -2.463294
     32          7           0       -3.206723   -1.137859    0.560253
     33          8           0       -3.703659   -1.804614   -0.344805
     34          8           0       -3.121102   -1.490814    1.734445
 ---------------------------------------------------------------------

 SCF Done:  E(RHF) =  -669.534664415     A.U. after   15 cycles
 E2 =    -0.2093243378D+01 EUMP2 =    -0.67162790779351D+03

 The electronic state is 1-A.
 Alpha  occ. eigenvalues --  -20.60763 -20.60752 -15.85807 -11.31183 -11.27794
 Alpha  occ. eigenvalues --  -11.27774 -11.27565 -11.26847 -11.26825 -11.21752
 Alpha  occ. eigenvalues --  -11.21558 -11.21492 -11.21398 -11.21227 -11.20791
 Alpha  occ. eigenvalues --   -1.59828  -1.39382  -1.19418  -1.08798  -1.08485
 Alpha  occ. eigenvalues --   -1.04817  -1.03553  -0.95997  -0.95618  -0.87017
 Alpha  occ. eigenvalues --   -0.86208  -0.82450  -0.79635  -0.78305  -0.77487
 Alpha  occ. eigenvalues --   -0.72033  -0.71155  -0.70509  -0.65125  -0.65057
 Alpha  occ. eigenvalues --   -0.64816  -0.62157  -0.60975  -0.59365  -0.57619
 Alpha  occ. eigenvalues --   -0.55411  -0.55306  -0.53265  -0.52904  -0.52662
 Alpha  occ. eigenvalues --   -0.52308  -0.49877  -0.48795  -0.48783  -0.47926
 Alpha  occ. eigenvalues --   -0.46655  -0.45834  -0.45766  -0.44779  -0.43806
 Alpha  occ. eigenvalues --   -0.37324  -0.36426
 Alpha virt. eigenvalues --    0.05034   0.11205   0.16511   0.21361   0.22783
 Alpha virt. eigenvalues --    0.24272   0.26548   0.27193   0.27434   0.27849
 Alpha virt. eigenvalues --    0.28315   0.30848   0.31342   0.31764   0.31816

 Mulliken charges:
               1
     1  C   -0.297991
     2  C   -0.299192
     3  C   -0.475582
     4  H    0.150766
     5  H    0.147287
     6  H    0.153315
     7  H    0.149053
     8  H    0.153987
     9  H    0.156199
    10  H    0.160148
    11  C   -0.298147
    12  C   -0.298362
    13  C   -0.483887
    14  H    0.151717
    15  H    0.146582
    16  H    0.152518
    17  H    0.147860
    18  H    0.157957
    19  H    0.160777
    20  H    0.162049
    21  C   -0.171749
    22  C   -0.217471
    23  C   -0.173287
    24  C    0.157008
    25  C   -0.170255
    26  C   -0.217047
    27  H    0.225801
    28  H    0.223836
    29  H    0.276136
    30  H    0.275738
    31  H    0.223726
    32  N    0.491645
    33  O   -0.460464
    34  O   -0.460672
 Sum of Mulliken charges =  -0.00000

 Dipole moment (field-independent basis, Debye):
    X=              1.8252    Y=              4.6483    Z=             -1.2321  Tot=              5.1435
 Quadrupole moment (field-independent basis, Debye-Ang):
   XX=           -106.4073   YY=            -92.5533   ZZ=            -90.8110
   XY=            -12.8253   XZ=              5.4848   YZ=              1.3377

 Normal termination of Gaussian 16 at Thu May  6 01:08:03 2021.
