 Gaussian 16, Revision A.03,
 Gaussian 16:  EM64L-G16RevA.03 25-Dec-2016

 -------------
 #p 6-31g* mp2
 -------------

 ------------------------------------------------------
 Input file generated by CHIRIPA (05-May-2021 14:53:13)
 ------------------------------------------------------
 Symbolic Z-matrix:
 Charge =  0 Multiplicity = 1

                         Standard orientation:
 ---------------------------------------------------------------------
 Center     Atomic      Atomic             Coordinates (Angstroms)
 Number     Number       Type             X           Y           Z
 ---------------------------------------------------------------------
      1          6           0       -3.386750    1.162642    0.461594
      2          6           0       -2.162515    2.011682    0.117550
      3          6           0       -2.082946    3.296124    0.943184
      4          1           0       -4.295349    1.759366    0.302495
      5          1           0       -3.361168    0.911250    1.530959
      6          1           0       -2.189676    2.260238   -0.951140
      7          1           0       -1.256732    1.412805    0.277304
      8          1           0       -2.031076    3.064494    2.011949
      9          1           0       -2.969320    3.916741    0.776525
     10          1           0       -1.200321    3.887837    0.681062
     11          6           0       -3.480203   -0.124729   -0.355516
     12          6           0       -4.704437   -0.973768   -0.011472
     13          6           0       -4.784006   -2.258211   -0.837106
     14          1           0       -3.505784    0.126664   -1.424882
     15          1           0       -2.571603   -0.721453   -0.196417
     16          1           0       -5.610220   -0.374892   -0.171226
     17          1           0       -4.677276   -1.222324    1.057217
     18          1           0       -3.897632   -2.878828   -0.670447
     19          1           0       -4.835876   -2.026580   -1.905871
     20          1           0       -5.666632   -2.849924   -0.574984
     21          6           0        1.470738   -2.520834    0.608857
     22          6           0        0.760940   -1.448575    0.058431
     23          6           0        1.421941   -0.271654   -0.305554
     24          6           0        2.799543   -0.200926   -0.104305
     25          6           0        3.534593   -1.252003    0.441798
     26          6           0        2.852863   -2.419304    0.798450
     27          1           0        0.949206   -3.431357    0.888760
     28          1           0       -0.312487   -1.524610   -0.089952
     29          1           0        0.897022    0.573665   -0.733705
     30          1           0        4.604096   -1.146554    0.577675
     31          1           0        3.406678   -3.250439    1.225706
     32          7           0        3.510287    1.039935   -0.485757
     33          8           0        4.724414    1.077211   -0.298292
     34          8           0        2.839783    1.951749   -0.964981
 ---------------------------------------------------------------------

 SCF Done:  E(RHF) =  -669.535290141     A.U. after   15 cycles
 E2 =    -0.2092400375D+01 EUMP2 =    -0.67162769051580D+03

 The electronic state is 1-A.
 Alpha  occ. eigenvalues --  -20.60742 -20.60737 -15.85795 -11.31155 -11.27736
 Alpha  occ. eigenvalues --  -11.27697 -11.27477 -11.26753 -11.26719 -11.22302
 Alpha  occ. eigenvalues --  -11.22227 -11.22122 -11.21955 -11.21763 -11.21263
 Alpha  occ. eigenvalues --   -1.59817  -1.39370  -1.19333  -1.09089  -1.08729
 Alpha  occ. eigenvalues --   -1.04737  -1.04085  -0.96524  -0.95564  -0.87536
 Alpha  occ. eigenvalues --   -0.86136  -0.82402  -0.80174  -0.78944  -0.77431
 Alpha  occ. eigenvalues --   -0.72014  -0.71140  -0.70447  -0.65765  -0.64983
 Alpha  occ. eigenvalues --   -0.64742  -0.62097  -0.61466  -0.59892  -0.58136
 Alpha  occ. eigenvalues --   -0.55831  -0.55244  -0.53172  -0.53067  -0.53021
 Alpha  occ. eigenvalues --   -0.52760  -0.50461  -0.48777  -0.48771  -0.48460
 Alpha  occ. eigenvalues --   -0.47212  -0.46453  -0.46349  -0.44776  -0.44359
 Alpha  occ. eigenvalues --   -0.37317  -0.36329
 Alpha virt. eigenvalues --    0.05059   0.11297   0.16490   0.19211   0.22790
 Alpha virt. eigenvalues --    0.23477   0.24591   0.26336   0.27086   0.27906
 Alpha virt. eigenvalues --    0.29253   0.30934   0.31348   0.31422   0.31973

 Mulliken charges:
               1
     1  C   -0.298031
     2  C   -0.304771
     3  C   -0.476901
     4  H    0.153596
     5  H    0.150601
     6  H    0.155044
     7  H    0.146626
     8  H    0.155560
     9  H    0.156301
    10  H    0.168860
    11  C   -0.304267
    12  C   -0.299683
    13  C   -0.475218
    14  H    0.153150
    15  H    0.141211
    16  H    0.155968
    17  H    0.152538
    18  H    0.149351
    19  H    0.157578
    20  H    0.163134
    21  C   -0.172717
    22  C   -0.226857
    23  C   -0.178186
    24  C    0.159096
    25  C   -0.170938
    26  C   -0.218515
    27  H    0.226011
    28  H    0.234993
    29  H    0.280544
    30  H    0.275504
    31  H    0.223331
    32  N    0.488111
    33  O   -0.460660
    34  O   -0.460365
 Sum of Mulliken charges =  -0.00000

 Dipole moment (field-independent basis, Debye):
    X=             -2.6660    Y=             -4.2288    Z=              1.3493  Tot=              5.1780
 Quadrupole moment (field-independent basis, Debye-Ang):
   XX=           -104.1425   YY=            -92.9612   ZZ=            -95.0882
   XY=            -14.5353   XZ=              5.9329   YZ=             -1.3811

 Normal termination of Gaussian 16 at Thu May  6 20:16:54 2021.
