 Gaussian 16, Revision A.03,
 Gaussian 16:  EM64L-G16RevA.03 25-Dec-2016

 -------------
 #p 6-31g* mp2
 -------------

 ------------------------------------------------------
 Input file generated by CHIRIPA (05-May-2021 14:57:24)
 ------------------------------------------------------
 Symbolic Z-matrix:
 Charge =  0 Multiplicity = 1

                         Standard orientation:
 ---------------------------------------------------------------------
 Center     Atomic      Atomic             Coordinates (Angstroms)
 Number     Number       Type             X           Y           Z
 ---------------------------------------------------------------------
      1          6           0        2.119407    2.562084   -0.639874
      2          6           0        1.387156    1.376032   -0.756532
      3          6           0        1.979462    0.144138   -0.463003
      4          6           0        3.312010    0.135070   -0.053710
      5          6           0        4.067868    1.299600    0.072141
      6          6           0        3.455071    2.520157   -0.226638
      7          1           0        1.651330    3.514646   -0.869933
      8          1           0        0.349695    1.405568   -1.077232
      9          1           0        1.435782   -0.789209   -0.544827
     10          1           0        5.100313    1.238283    0.394192
     11          1           0        4.026179    3.439674   -0.135150
     12          7           0        3.949905   -1.163080    0.259815
     13          8           0        5.125357   -1.144158    0.618410
     14          8           0        3.262355   -2.174910    0.141024
     15          6           0       -4.797818    1.577812    0.454879
     16          6           0       -3.802799    1.311135    1.401104
     17          6           0       -2.915797    0.246160    1.217790
     18          6           0       -3.053071   -0.535301    0.071594
     19          6           0       -4.034029   -0.294952   -0.889263
     20          6           0       -4.910058    0.775332   -0.685275
     21          1           0       -5.482601    2.407172    0.605312
     22          1           0       -3.713278    1.932680    2.287509
     23          1           0       -2.136307    0.017340    1.934348
     24          1           0       -4.098470   -0.932149   -1.762901
     25          1           0       -5.681841    0.980093   -1.421800
     26          7           0       -2.119850   -1.665551   -0.133416
     27          8           0       -2.261725   -2.339151   -1.151636
     28          8           0       -1.264186   -1.856442    0.728000
 ---------------------------------------------------------------------

 SCF Done:  E(RHF) =  -868.337823723     A.U. after   16 cycles
 E2 =    -0.2599675037D+01 EUMP2 =    -0.87093749875960D+03

 The electronic state is 1-A.
 Alpha  occ. eigenvalues --  -20.61367 -20.61361 -20.60064 -20.60008 -15.86401
 Alpha  occ. eigenvalues --  -15.85095 -11.31786 -11.30577 -11.28337 -11.28333
 Alpha  occ. eigenvalues --  -11.28069 -11.27339 -11.27329 -11.27252 -11.27066
 Alpha  occ. eigenvalues --  -11.27058 -11.26300 -11.26248  -1.60444  -1.59118
 Alpha  occ. eigenvalues --   -1.39989  -1.38662  -1.19954  -1.18801  -1.09342
 Alpha  occ. eigenvalues --   -1.08194  -1.05340  -1.04218  -0.96167  -0.94989
 Alpha  occ. eigenvalues --   -0.86735  -0.85616  -0.82984  -0.81816  -0.78039
 Alpha  occ. eigenvalues --   -0.76817  -0.72587  -0.71796  -0.71309  -0.71031
 Alpha  occ. eigenvalues --   -0.70449  -0.69914  -0.65588  -0.65322  -0.64457
 Alpha  occ. eigenvalues --   -0.64241  -0.62672  -0.61534  -0.55826  -0.54769
 Alpha  occ. eigenvalues --   -0.53696  -0.53414  -0.52562  -0.52309  -0.49361
 Alpha  occ. eigenvalues --   -0.49354  -0.48099  -0.48045  -0.45375  -0.44041
 Alpha  occ. eigenvalues --   -0.37943  -0.36955  -0.36836  -0.35827
 Alpha virt. eigenvalues --    0.04441   0.05711   0.10690   0.11820   0.15930
 Alpha virt. eigenvalues --    0.17138   0.20909   0.21827   0.26840   0.27465
 Alpha virt. eigenvalues --    0.27856   0.28819   0.30557   0.31365   0.32052

 Mulliken charges:
               1
     1  C   -0.171708
     2  C   -0.221987
     3  C   -0.172064
     4  C    0.156240
     5  C   -0.171106
     6  C   -0.219791
     7  H    0.221248
     8  H    0.218933
     9  H    0.292314
    10  H    0.274120
    11  H    0.220450
    12  N    0.487105
    13  O   -0.465038
    14  O   -0.452087
    15  C   -0.171117
    16  C   -0.219372
    17  C   -0.173473
    18  C    0.154354
    19  C   -0.171975
    20  C   -0.218959
    21  H    0.227203
    22  H    0.225239
    23  H    0.278379
    24  H    0.277252
    25  H    0.225252
    26  N    0.484754
    27  O   -0.456508
    28  O   -0.457659
 Sum of Mulliken charges =  -0.00000

 Dipole moment (field-independent basis, Debye):
    X=             -5.7934    Y=              8.3060    Z=             -0.3443  Tot=             10.1327
 Quadrupole moment (field-independent basis, Debye-Ang):
   XX=            -95.7656   YY=           -107.7410   ZZ=           -101.6011
   XY=              6.7275   XZ=             -2.7033   YZ=              1.3544

 Normal termination of Gaussian 16 at Thu May  6 00:19:04 2021.
