 Gaussian 16, Revision A.03,
 Gaussian 16:  EM64L-G16RevA.03 25-Dec-2016

 -------------
 #p 6-31g* mp2
 -------------

 ------------------------------------------------------
 Input file generated by CHIRIPA (05-May-2021 14:51:14)
 ------------------------------------------------------
 Symbolic Z-matrix:
 Charge =  0 Multiplicity = 1

                         Standard orientation:
 ---------------------------------------------------------------------
 Center     Atomic      Atomic             Coordinates (Angstroms)
 Number     Number       Type             X           Y           Z
 ---------------------------------------------------------------------
      1          6           0       -3.086252   -0.221011    0.641066
      2          6           0       -1.762022   -0.818863    0.164647
      3          6           0       -0.608170   -0.543820    1.129412
      4          1           0       -2.965930    0.863181    0.771430
      5          1           0       -3.329838   -0.629795    1.631498
      6          1           0       -1.521700   -0.410125   -0.825199
      7          1           0       -1.885564   -1.901730    0.035218
      8          1           0       -0.822161   -0.966537    2.116387
      9          1           0       -0.456229    0.533543    1.251081
     10          1           0        0.328818   -0.980060    0.769399
     11          6           0       -4.249302   -0.487563   -0.312869
     12          6           0       -5.573532    0.110288    0.163549
     13          6           0       -6.727384   -0.164754   -0.801215
     14          1           0       -4.005717   -0.078780   -1.303302
     15          1           0       -4.369624   -1.571755   -0.443234
     16          1           0       -5.449990    1.193156    0.292978
     17          1           0       -5.813854   -0.298450    1.153395
     18          1           0       -6.879325   -1.242117   -0.922885
     19          1           0       -6.513394    0.257963   -1.788190
     20          1           0       -7.664372    0.271485   -0.441203
     21          6           0        4.260293   -0.080320    0.044407
     22          6           0        4.210226   -1.493433   -0.537478
     23          6           0        5.402340   -2.350792   -0.111340
     24          1           0        5.194182    0.405743   -0.269503
     25          1           0        4.294175   -0.143778    1.140864
     26          1           0        4.175051   -1.427296   -1.632468
     27          1           0        3.276259   -1.976120   -0.222304
     28          1           0        5.437983   -2.446464    0.978695
     29          1           0        6.341882   -1.894521   -0.439480
     30          1           0        5.346396   -3.356882   -0.538559
     31          6           0        3.075262    0.788894   -0.372603
     32          6           0        3.125328    2.202007    0.209281
     33          6           0        1.933214    3.059367   -0.216856
     34          1           0        3.041379    0.852353   -1.469061
     35          1           0        2.141373    0.302831   -0.058693
     36          1           0        4.059296    2.684695   -0.105892
     37          1           0        3.160502    2.135869    1.304272
     38          1           0        0.993671    2.603095    0.111284
     39          1           0        1.897571    3.155038   -1.306891
     40          1           0        1.989158    4.065455    0.210363
 ---------------------------------------------------------------------

 SCF Done:  E(RHF) =  -470.733021987     A.U. after   11 cycles
 E2 =    -0.1583168028D+01 EUMP2 =    -0.47231619001469D+03

 The electronic state is 1-A.
 Alpha  occ. eigenvalues --  -11.21658 -11.21617 -11.21594 -11.21554 -11.21437
 Alpha  occ. eigenvalues --  -11.21375 -11.21342 -11.21251 -11.21170 -11.21081
 Alpha  occ. eigenvalues --  -11.21058 -11.21056  -1.08469  -1.08384  -1.03580
 Alpha  occ. eigenvalues --   -1.03497  -0.96036  -0.95946  -0.87059  -0.86961
 Alpha  occ. eigenvalues --   -0.79658  -0.79550  -0.78280  -0.78192  -0.65133
 Alpha  occ. eigenvalues --   -0.65001  -0.61051  -0.60828  -0.59424  -0.59309
 Alpha  occ. eigenvalues --   -0.57701  -0.57510  -0.55328  -0.55234  -0.52788
 Alpha  occ. eigenvalues --   -0.52641  -0.52490  -0.52311  -0.49993  -0.49883
 Alpha  occ. eigenvalues --   -0.47961  -0.47874  -0.46739  -0.46536  -0.45822
 Alpha  occ. eigenvalues --   -0.45764  -0.45713  -0.45615  -0.43780  -0.43728
 Alpha virt. eigenvalues --    0.20606   0.22909   0.23484   0.24352   0.26102
 Alpha virt. eigenvalues --    0.26311   0.26970   0.27297   0.27816   0.29231
 Alpha virt. eigenvalues --    0.30422   0.31721   0.31744   0.31981   0.32437

 Mulliken charges:
               1
     1  C   -0.298632
     2  C   -0.299917
     3  C   -0.483015
     4  H    0.149822
     5  H    0.149614
     6  H    0.153114
     7  H    0.152252
     8  H    0.155833
     9  H    0.157514
    10  H    0.163987
    11  C   -0.298367
    12  C   -0.299711
    13  C   -0.475737
    14  H    0.149802
    15  H    0.149705
    16  H    0.152090
    17  H    0.151919
    18  H    0.155183
    19  H    0.155281
    20  H    0.160324
    21  C   -0.297801
    22  C   -0.300341
    23  C   -0.475655
    24  H    0.149430
    25  H    0.149491
    26  H    0.152003
    27  H    0.151389
    28  H    0.155274
    29  H    0.155287
    30  H    0.160136
    31  C   -0.307595
    32  C   -0.298722
    33  C   -0.478635
    34  H    0.148608
    35  H    0.160295
    36  H    0.151671
    37  H    0.151917
    38  H    0.157088
    39  H    0.155016
    40  H    0.160085
 Sum of Mulliken charges =  -0.00000

 Dipole moment (field-independent basis, Debye):
    X=             -0.0425    Y=             -0.0166    Z=              0.0081  Tot=              0.0463
 Quadrupole moment (field-independent basis, Debye-Ang):
   XX=            -86.0505   YY=            -84.5547   ZZ=            -84.2677
   XY=              0.8164   XZ=             -1.2382   YZ=             -0.6123

 Normal termination of Gaussian 16 at Wed May  5 21:38:09 2021.
