 Gaussian 16, Revision A.03,
 Gaussian 16:  EM64L-G16RevA.03 25-Dec-2016

 -------------
 #p 6-31g* mp2
 -------------

 ------------------------------------------------------
 Input file generated by CHIRIPA (05-May-2021 14:51:07)
 ------------------------------------------------------
 Symbolic Z-matrix:
 Charge =  0 Multiplicity = 1

                         Standard orientation:
 ---------------------------------------------------------------------
 Center     Atomic      Atomic             Coordinates (Angstroms)
 Number     Number       Type             X           Y           Z
 ---------------------------------------------------------------------
      1          6           0       -2.633837   -0.641634   -0.479938
      2          6           0       -3.257504    0.713832   -0.145666
      3          6           0       -4.158221    1.241735   -1.262725
      4          1           0       -2.054217   -0.552319   -1.408921
      5          1           0       -3.434903   -1.366711   -0.679817
      6          1           0       -2.455522    1.435791    0.054877
      7          1           0       -3.835550    0.621326    0.782731
      8          1           0       -4.978183    0.543328   -1.458915
      9          1           0       -3.590315    1.362420   -2.190905
     10          1           0       -4.593577    2.211670   -1.002818
     11          6           0       -1.730735   -1.182512    0.627123
     12          6           0       -1.107069   -2.537978    0.292850
     13          6           0       -0.206352   -3.065881    1.409909
     14          1           0       -0.929669   -0.457436    0.827002
     15          1           0       -2.310356   -1.271827    1.556105
     16          1           0       -0.529023   -2.445473   -0.635547
     17          1           0       -1.909050   -3.259937    0.092307
     18          1           0       -0.774258   -3.186567    2.338089
     19          1           0        0.613611   -2.367475    1.606100
     20          1           0        0.229005   -4.035816    1.150003
     21          6           0        2.314780    0.161510   -0.023272
     22          6           0        3.251168   -0.363279   -1.112198
     23          6           0        3.506596   -1.866460   -0.998202
     24          1           0        2.745018   -0.065080    0.961866
     25          1           0        1.359674   -0.378914   -0.079023
     26          1           0        4.203732    0.178938   -1.055297
     27          1           0        2.818742   -0.135243   -2.094860
     28          1           0        2.567608   -2.423848   -1.077071
     29          1           0        3.960467   -2.107881   -0.031601
     30          1           0        4.178464   -2.220420   -1.786343
     31          6           0        2.049793    1.662637   -0.123912
     32          6           0        1.113405    2.187425    0.965014
     33          6           0        0.857977    3.690607    0.851018
     34          1           0        3.004899    2.203061   -0.068161
     35          1           0        1.619553    1.889226   -1.109050
     36          1           0        1.545830    1.959390    1.947675
     37          1           0        0.160841    1.645208    0.908112
     38          1           0        0.404106    3.932028   -0.115584
     39          1           0        1.796965    4.247994    0.929887
     40          1           0        0.186108    4.044566    1.639159
 ---------------------------------------------------------------------

 SCF Done:  E(RHF) =  -470.732501897     A.U. after   11 cycles
 E2 =    -0.1585572928D+01 EUMP2 =    -0.47231807482440D+03

 The electronic state is 1-A.
 Alpha  occ. eigenvalues --  -11.21655 -11.21654 -11.21644 -11.21627 -11.21471
 Alpha  occ. eigenvalues --  -11.21429 -11.21411 -11.21350 -11.21121 -11.21104
 Alpha  occ. eigenvalues --  -11.21099 -11.21018  -1.08550  -1.08421  -1.03602
 Alpha  occ. eigenvalues --   -1.03536  -0.96035  -0.95991  -0.87049  -0.87009
 Alpha  occ. eigenvalues --   -0.79661  -0.79615  -0.78487  -0.78137  -0.65528
 Alpha  occ. eigenvalues --   -0.64745  -0.61150  -0.60815  -0.59403  -0.59365
 Alpha  occ. eigenvalues --   -0.57667  -0.57580  -0.55367  -0.55239  -0.52729
 Alpha  occ. eigenvalues --   -0.52683  -0.52486  -0.52384  -0.49997  -0.49930
 Alpha  occ. eigenvalues --   -0.48026  -0.47902  -0.46872  -0.46675  -0.46367
 Alpha  occ. eigenvalues --   -0.45808  -0.45776  -0.44920  -0.43837  -0.43799
 Alpha virt. eigenvalues --    0.19573   0.21472   0.23981   0.24552   0.25943
 Alpha virt. eigenvalues --    0.26196   0.26641   0.27343   0.28374   0.30169
 Alpha virt. eigenvalues --    0.30806   0.31460   0.31602   0.31697   0.32360

 Mulliken charges:
               1
     1  C   -0.297657
     2  C   -0.303601
     3  C   -0.475573
     4  H    0.148582
     5  H    0.150000
     6  H    0.154887
     7  H    0.152338
     8  H    0.155439
     9  H    0.154956
    10  H    0.160525
    11  C   -0.310082
    12  C   -0.301079
    13  C   -0.478672
    14  H    0.159743
    15  H    0.150253
    16  H    0.151261
    17  H    0.152631
    18  H    0.154884
    19  H    0.159327
    20  H    0.160191
    21  C   -0.307907
    22  C   -0.299173
    23  C   -0.477878
    24  H    0.149747
    25  H    0.159130
    26  H    0.152264
    27  H    0.151618
    28  H    0.157291
    29  H    0.155592
    30  H    0.160449
    31  C   -0.297673
    32  C   -0.310476
    33  C   -0.475201
    34  H    0.150071
    35  H    0.149113
    36  H    0.152281
    37  H    0.161125
    38  H    0.155030
    39  H    0.155549
    40  H    0.160698
 Sum of Mulliken charges =  -0.00000

 Dipole moment (field-independent basis, Debye):
    X=              0.0138    Y=              0.0134    Z=              0.0192  Tot=              0.0272
 Quadrupole moment (field-independent basis, Debye-Ang):
   XX=            -83.9628   YY=            -85.9755   ZZ=            -84.7440
   XY=              1.1463   XZ=             -0.3268   YZ=              0.2319

 Normal termination of Gaussian 16 at Thu May  6 03:39:56 2021.
