 Gaussian 16, Revision A.03,
 Gaussian 16:  EM64L-G16RevA.03 25-Dec-2016

 -------------
 #p 6-31g* mp2
 -------------

 ------------------------------------------------------
 Input file generated by CHIRIPA (05-May-2021 14:51:13)
 ------------------------------------------------------
 Symbolic Z-matrix:
 Charge =  0 Multiplicity = 1

                         Standard orientation:
 ---------------------------------------------------------------------
 Center     Atomic      Atomic             Coordinates (Angstroms)
 Number     Number       Type             X           Y           Z
 ---------------------------------------------------------------------
      1          6           0       -2.972569    0.076488    0.718409
      2          6           0       -1.654937   -0.652000    0.451700
      3          6           0       -0.560733   -0.280207    1.452840
      4          1           0       -2.797706    1.160633    0.686833
      5          1           0       -3.312201   -0.155796    1.737276
      6          1           0       -1.318601   -0.419512   -0.566849
      7          1           0       -1.832996   -1.734537    0.483725
      8          1           0       -0.871478   -0.528181    2.472912
      9          1           0       -0.354160    0.794316    1.416368
     10          1           0        0.372482   -0.812378    1.243642
     11          6           0       -4.076220   -0.284759   -0.274155
     12          6           0       -5.393853    0.443729   -0.007447
     13          6           0       -6.488057    0.071935   -1.008586
     14          1           0       -3.736589   -0.052475   -1.293022
     15          1           0       -4.251084   -1.368905   -0.242579
     16          1           0       -5.215794    1.526266   -0.039471
     17          1           0       -5.730189    0.211241    1.011103
     18          1           0       -6.694629   -1.002587   -0.972115
     19          1           0       -6.177311    0.319910   -2.028658
     20          1           0       -7.421272    0.604107   -0.799389
     21          6           0        3.563123   -0.569635    0.135595
     22          6           0        3.605060   -1.762214   -0.820429
     23          6           0        3.682448   -3.103116   -0.089823
     24          1           0        4.455950   -0.589190    0.775458
     25          1           0        2.697252   -0.674620    0.803908
     26          1           0        4.469806   -1.654306   -1.487653
     27          1           0        2.712125   -1.739710   -1.458219
     28          1           0        2.813710   -3.236902    0.562862
     29          1           0        4.581377   -3.151013    0.533261
     30          1           0        3.711443   -3.941941   -0.792240
     31          6           0        3.485667    0.777907   -0.579849
     32          6           0        3.443730    1.970485    0.376176
     33          6           0        3.366342    3.311387   -0.354431
     34          1           0        4.351537    0.882891   -1.248161
     35          1           0        2.592840    0.797461   -1.219711
     36          1           0        4.336665    1.947981    1.013965
     37          1           0        2.578984    1.862577    1.043399
     38          1           0        2.467413    3.359284   -0.977515
     39          1           0        4.235080    3.445173   -1.007115
     40          1           0        3.337346    4.150212    0.347987
 ---------------------------------------------------------------------

 SCF Done:  E(RHF) =  -470.733309139     A.U. after   11 cycles
 E2 =    -0.1582891961D+01 EUMP2 =    -0.47231620109994D+03

 The electronic state is 1-A.
 Alpha  occ. eigenvalues --  -11.21684 -11.21634 -11.21588 -11.21563 -11.21456
 Alpha  occ. eigenvalues --  -11.21395 -11.21369 -11.21306 -11.21168 -11.21096
 Alpha  occ. eigenvalues --  -11.21071 -11.21057  -1.08486  -1.08404  -1.03590
 Alpha  occ. eigenvalues --   -1.03511  -0.96048  -0.95955  -0.87064  -0.86974
 Alpha  occ. eigenvalues --   -0.79656  -0.79569  -0.78298  -0.78213  -0.65137
 Alpha  occ. eigenvalues --   -0.65038  -0.60996  -0.60906  -0.59425  -0.59321
 Alpha  occ. eigenvalues --   -0.57678  -0.57548  -0.55336  -0.55243  -0.52779
 Alpha  occ. eigenvalues --   -0.52650  -0.52486  -0.52350  -0.49985  -0.49896
 Alpha  occ. eigenvalues --   -0.48007  -0.47860  -0.46700  -0.46586  -0.45836
 Alpha  occ. eigenvalues --   -0.45778  -0.45751  -0.45669  -0.43796  -0.43746
 Alpha virt. eigenvalues --    0.20396   0.23074   0.23721   0.24781   0.25944
 Alpha virt. eigenvalues --    0.26596   0.26970   0.27630   0.27911   0.28986
 Alpha virt. eigenvalues --    0.29960   0.31581   0.31725   0.31877   0.32164

 Mulliken charges:
               1
     1  C   -0.298702
     2  C   -0.299137
     3  C   -0.483260
     4  H    0.149777
     5  H    0.149779
     6  H    0.151681
     7  H    0.152272
     8  H    0.156032
     9  H    0.155968
    10  H    0.165805
    11  C   -0.298302
    12  C   -0.299696
    13  C   -0.475740
    14  H    0.149556
    15  H    0.149781
    16  H    0.152022
    17  H    0.152017
    18  H    0.155240
    19  H    0.155231
    20  H    0.160382
    21  C   -0.305647
    22  C   -0.299681
    23  C   -0.475760
    24  H    0.149753
    25  H    0.156525
    26  H    0.152006
    27  H    0.151829
    28  H    0.154598
    29  H    0.155357
    30  H    0.160318
    31  C   -0.297547
    32  C   -0.301524
    33  C   -0.475663
    34  H    0.149364
    35  H    0.149353
    36  H    0.151853
    37  H    0.154157
    38  H    0.154732
    39  H    0.155132
    40  H    0.160137
 Sum of Mulliken charges =  -0.00000

 Dipole moment (field-independent basis, Debye):
    X=             -0.0288    Y=             -0.0052    Z=              0.0152  Tot=              0.0330
 Quadrupole moment (field-independent basis, Debye-Ang):
   XX=            -84.4267   YY=            -85.3528   ZZ=            -84.9725
   XY=              0.1930   XZ=             -0.7823   YZ=             -0.1858

 Normal termination of Gaussian 16 at Thu May  6 03:57:39 2021.
