 Gaussian 16, Revision A.03,
 Gaussian 16:  EM64L-G16RevA.03 25-Dec-2016

 -------------
 #p 6-31g* mp2
 -------------

 ------------------------------------------------------
 Input file generated by CHIRIPA (05-May-2021 14:57:21)
 ------------------------------------------------------
 Symbolic Z-matrix:
 Charge =  0 Multiplicity = 1

                         Standard orientation:
 ---------------------------------------------------------------------
 Center     Atomic      Atomic             Coordinates (Angstroms)
 Number     Number       Type             X           Y           Z
 ---------------------------------------------------------------------
      1          6           0       -1.203199    1.847817    1.727408
      2          6           0       -2.084662    2.158528    0.686734
      3          6           0       -2.695902    1.142052   -0.053340
      4          6           0       -2.401658   -0.180205    0.275820
      5          6           0       -1.527891   -0.521800    1.306904
      6          6           0       -0.928112    0.511002    2.033632
      7          1           0       -0.732824    2.643781    2.297132
      8          1           0       -2.300164    3.195824    0.446691
      9          1           0       -3.382235    1.354335   -0.864082
     10          1           0       -1.332724   -1.565228    1.522741
     11          1           0       -0.243968    0.266738    2.841300
     12          7           0       -3.042684   -1.264945   -0.500599
     13          8           0       -2.766861   -2.421919   -0.190811
     14          8           0       -3.808807   -0.937649   -1.404242
     15          6           0        1.191741    2.057637   -1.362175
     16          6           0        0.556974    0.814649   -1.454766
     17          6           0        1.159508   -0.331331   -0.927287
     18          6           0        2.402766   -0.197359   -0.311129
     19          6           0        3.060426    1.027029   -0.203211
     20          6           0        2.439241    2.159680   -0.737794
     21          1           0        0.716434    2.942685   -1.774693
     22          1           0       -0.411882    0.732413   -1.939119
     23          1           0        0.690352   -1.305991   -0.985142
     24          1           0        4.025896    1.077524    0.285395
     25          1           0        2.934542    3.123703   -0.664438
     26          7           0        3.050513   -1.403502    0.251050
     27          8           0        4.146108   -1.258895    0.789008
     28          8           0        2.450358   -2.470645    0.143082
 ---------------------------------------------------------------------

 SCF Done:  E(RHF) =  -868.335277211     A.U. after   16 cycles
 E2 =    -0.2606743630D+01 EUMP2 =    -0.87094202084069D+03

 The electronic state is 1-A.
 Alpha  occ. eigenvalues --  -20.61404 -20.61372 -20.60998 -20.60983 -15.86432
 Alpha  occ. eigenvalues --  -15.86043 -11.31770 -11.31363 -11.28407 -11.28279
 Alpha  occ. eigenvalues --  -11.28071 -11.27972 -11.27872 -11.27701 -11.27427
 Alpha  occ. eigenvalues --  -11.27262 -11.27000 -11.26838  -1.60476  -1.60078
 Alpha  occ. eigenvalues --   -1.40022  -1.39629  -1.20015  -1.19527  -1.09365
 Alpha  occ. eigenvalues --   -1.08961  -1.05375  -1.04948  -0.96197  -0.95798
 Alpha  occ. eigenvalues --   -0.86776  -0.86348  -0.83017  -0.82630  -0.78071
 Alpha  occ. eigenvalues --   -0.77683  -0.72630  -0.72256  -0.71843  -0.71417
 Alpha  occ. eigenvalues --   -0.71062  -0.70676  -0.65613  -0.65354  -0.65202
 Alpha  occ. eigenvalues --   -0.64971  -0.62704  -0.62317  -0.55842  -0.55498
 Alpha  occ. eigenvalues --   -0.54602  -0.53438  -0.53073  -0.52352  -0.49407
 Alpha  occ. eigenvalues --   -0.49391  -0.49018  -0.49013  -0.45413  -0.45042
 Alpha  occ. eigenvalues --   -0.38323  -0.37663  -0.36718  -0.36176
 Alpha virt. eigenvalues --    0.04288   0.04965   0.10401   0.11247   0.15844
 Alpha virt. eigenvalues --    0.16387   0.20613   0.21376   0.26493   0.26641
 Alpha virt. eigenvalues --    0.27884   0.28226   0.30109   0.30869   0.31625

 Mulliken charges:
               1
     1  C   -0.165671
     2  C   -0.217925
     3  C   -0.182125
     4  C    0.155117
     5  C   -0.173593
     6  C   -0.214372
     7  H    0.226785
     8  H    0.221566
     9  H    0.274438
    10  H    0.283612
    11  H    0.229364
    12  N    0.485591
    13  O   -0.455101
    14  O   -0.461672
    15  C   -0.171681
    16  C   -0.209469
    17  C   -0.173219
    18  C    0.155375
    19  C   -0.173856
    20  C   -0.221771
    21  H    0.221699
    22  H    0.225343
    23  H    0.279508
    24  H    0.274408
    25  H    0.221217
    26  N    0.486805
    27  O   -0.461650
    28  O   -0.458723
 Sum of Mulliken charges =  -0.00000

 Dipole moment (field-independent basis, Debye):
    X=             -0.1167    Y=              7.9435    Z=              0.9402  Tot=              7.9998
 Quadrupole moment (field-independent basis, Debye-Ang):
   XX=           -124.1627   YY=           -104.8304   ZZ=           -101.0024
   XY=              1.7389   XZ=             -7.4228   YZ=             -1.4823

 Normal termination of Gaussian 16 at Thu May  6 00:09:50 2021.
