 Gaussian 16, Revision A.03,
 Gaussian 16:  EM64L-G16RevA.03 25-Dec-2016

 -------------
 #p 6-31g* mp2
 -------------

 ------------------------------------------------------
 Input file generated by CHIRIPA (05-May-2021 14:51:11)
 ------------------------------------------------------
 Symbolic Z-matrix:
 Charge =  0 Multiplicity = 1

                         Standard orientation:
 ---------------------------------------------------------------------
 Center     Atomic      Atomic             Coordinates (Angstroms)
 Number     Number       Type             X           Y           Z
 ---------------------------------------------------------------------
      1          6           0       -3.107773    0.511913   -0.185884
      2          6           0       -3.143766   -0.684520   -1.137324
      3          6           0       -4.544858   -1.277749   -1.288370
      4          1           0       -3.483934    0.201011    0.798386
      5          1           0       -3.796560    1.284954   -0.553818
      6          1           0       -2.454079   -1.454509   -0.768453
      7          1           0       -2.767296   -0.370781   -2.119390
      8          1           0       -5.240675   -0.527931   -1.678514
      9          1           0       -4.925679   -1.617816   -0.319901
     10          1           0       -4.547583   -2.131771   -1.972839
     11          6           0       -1.713896    1.115901   -0.024535
     12          6           0       -1.677903    2.312335    0.926905
     13          6           0       -0.276811    2.905563    1.077950
     14          1           0       -1.025108    0.342861    0.343399
     15          1           0       -1.337735    1.426804   -1.008805
     16          1           0       -2.054373    1.998595    1.908971
     17          1           0       -2.367590    3.082323    0.558034
     18          1           0        0.104010    3.245630    0.109482
     19          1           0        0.419006    2.155745    1.468094
     20          1           0       -0.274086    3.759586    1.762419
     21          6           0        2.062485   -1.009482    0.756236
     22          6           0        0.944096   -2.033823    0.561516
     23          6           0        0.256730   -2.415070    1.872994
     24          1           0        2.805157   -1.415598    1.456560
     25          1           0        1.646988   -0.108721    1.228874
     26          1           0        1.361309   -2.931849    0.088124
     27          1           0        0.204097   -1.625299   -0.138574
     28          1           0       -0.185939   -1.532823    2.346581
     29          1           0        0.977848   -2.846795    2.574567
     30          1           0       -0.539378   -3.148356    1.710623
     31          6           0        2.759184   -0.618333   -0.545816
     32          6           0        3.877572    0.406009   -0.351097
     33          6           0        4.564939    0.787256   -1.662575
     34          1           0        3.174680   -1.519094   -1.018455
     35          1           0        2.016512   -0.212217   -1.246141
     36          1           0        4.617571   -0.002515    0.348993
     37          1           0        3.460361    1.304034    0.122295
     38          1           0        3.843821    1.218981   -2.364147
     39          1           0        5.007607   -0.094993   -2.136162
     40          1           0        5.361046    1.520541   -1.500204
 ---------------------------------------------------------------------

 SCF Done:  E(RHF) =  -470.732797980     A.U. after   11 cycles
 E2 =    -0.1585031770D+01 EUMP2 =    -0.47231782975070D+03

 The electronic state is 1-A.
 Alpha  occ. eigenvalues --  -11.21666 -11.21637 -11.21600 -11.21569 -11.21442
 Alpha  occ. eigenvalues --  -11.21405 -11.21382 -11.21335 -11.21155 -11.21146
 Alpha  occ. eigenvalues --  -11.21095 -11.21047  -1.08519  -1.08400  -1.03584
 Alpha  occ. eigenvalues --   -1.03541  -0.96044  -0.95983  -0.87050  -0.87009
 Alpha  occ. eigenvalues --   -0.79655  -0.79601  -0.78338  -0.78219  -0.65434
 Alpha  occ. eigenvalues --   -0.64799  -0.61036  -0.60895  -0.59420  -0.59337
 Alpha  occ. eigenvalues --   -0.57663  -0.57587  -0.55458  -0.55152  -0.52728
 Alpha  occ. eigenvalues --   -0.52685  -0.52488  -0.52388  -0.49997  -0.49937
 Alpha  occ. eigenvalues --   -0.47986  -0.47953  -0.46801  -0.46648  -0.46089
 Alpha  occ. eigenvalues --   -0.45793  -0.45633  -0.45285  -0.43832  -0.43785
 Alpha virt. eigenvalues --    0.19378   0.22209   0.23874   0.24216   0.25621
 Alpha virt. eigenvalues --    0.25869   0.26835   0.28104   0.28630   0.29808
 Alpha virt. eigenvalues --    0.30557   0.31331   0.31644   0.32113   0.32392

 Mulliken charges:
               1
     1  C   -0.297636
     2  C   -0.303818
     3  C   -0.475683
     4  H    0.149813
     5  H    0.149707
     6  H    0.155822
     7  H    0.151745
     8  H    0.155328
     9  H    0.155393
    10  H    0.160421
    11  C   -0.308491
    12  C   -0.299176
    13  C   -0.480742
    14  H    0.160717
    15  H    0.148911
    16  H    0.151914
    17  H    0.152407
    18  H    0.155292
    19  H    0.158636
    20  H    0.161012
    21  C   -0.304302
    22  C   -0.307579
    23  C   -0.476979
    24  H    0.149973
    25  H    0.154219
    26  H    0.153254
    27  H    0.157897
    28  H    0.154499
    29  H    0.156062
    30  H    0.160320
    31  C   -0.298136
    32  C   -0.300545
    33  C   -0.475650
    34  H    0.149420
    35  H    0.150760
    36  H    0.151673
    37  H    0.153164
    38  H    0.155111
    39  H    0.155029
    40  H    0.160238
 Sum of Mulliken charges =  -0.00000

 Dipole moment (field-independent basis, Debye):
    X=             -0.0124    Y=             -0.0007    Z=             -0.0038  Tot=              0.0130
 Quadrupole moment (field-independent basis, Debye-Ang):
   XX=            -85.5440   YY=            -84.2346   ZZ=            -84.9485
   XY=             -1.3509   XZ=              0.5455   YZ=             -0.3784

 Normal termination of Gaussian 16 at Thu May  6 03:50:11 2021.
