 Gaussian 16, Revision A.03,
 Gaussian 16:  EM64L-G16RevA.03 25-Dec-2016

 -------------
 #p 6-31g* mp2
 -------------

 ------------------------------------------------------
 Input file generated by CHIRIPA (05-May-2021 14:57:26)
 ------------------------------------------------------
 Symbolic Z-matrix:
 Charge =  0 Multiplicity = 1

                         Standard orientation:
 ---------------------------------------------------------------------
 Center     Atomic      Atomic             Coordinates (Angstroms)
 Number     Number       Type             X           Y           Z
 ---------------------------------------------------------------------
      1          6           0       -2.251909    2.493286   -0.092576
      2          6           0       -3.050628    1.808393    0.829102
      3          6           0       -3.277991    0.436007    0.689785
      4          6           0       -2.688419   -0.223063   -0.387861
      5          6           0       -1.887770    0.431375   -1.322721
      6          6           0       -1.674048    1.803807   -1.163658
      7          1           0       -2.080586    3.559407    0.023318
      8          1           0       -3.500682    2.341274    1.661889
      9          1           0       -3.892039   -0.118866    1.388697
     10          1           0       -1.452617   -0.126994   -2.142650
     11          1           0       -1.053302    2.333120   -1.880977
     12          7           0       -2.921898   -1.675971   -0.545802
     13          8           0       -2.391101   -2.233677   -1.503850
     14          8           0       -3.631274   -2.229544    0.291443
     15          6           0        4.599992   -0.131892   -1.235003
     16          6           0        4.443832   -1.111470   -0.248818
     17          6           0        3.367149   -1.057499    0.641347
     18          6           0        2.461415   -0.005228    0.516207
     19          6           0        2.589803    0.985793   -0.455741
     20          6           0        3.674111    0.911773   -1.335141
     21          1           0        5.439347   -0.181606   -1.922323
     22          1           0        5.161334   -1.923146   -0.168703
     23          1           0        3.222256   -1.802582    1.414182
     24          1           0        1.858243    1.782788   -0.510879
     25          1           0        3.792871    1.673918   -2.100043
     26          7           0        1.317543    0.062522    1.452885
     27          8           0        0.533366    0.999810    1.321763
     28          8           0        1.226813   -0.822947    2.300440
 ---------------------------------------------------------------------

 SCF Done:  E(RHF) =  -868.337127866     A.U. after   16 cycles
 E2 =    -0.2601770478D+01 EUMP2 =    -0.87093889834417D+03

 The electronic state is 1-A.
 Alpha  occ. eigenvalues --  -20.60957 -20.60951 -20.59987 -20.59958 -15.85989
 Alpha  occ. eigenvalues --  -15.85024 -11.31394 -11.30192 -11.28025 -11.27916
 Alpha  occ. eigenvalues --  -11.27695 -11.27023 -11.26937 -11.26847 -11.26728
 Alpha  occ. eigenvalues --  -11.26518 -11.25873 -11.25702  -1.60027  -1.59051
 Alpha  occ. eigenvalues --   -1.39581  -1.38613  -1.19564  -1.18344  -1.08951
 Alpha  occ. eigenvalues --   -1.07794  -1.04978  -1.03771  -0.95786  -0.94671
 Alpha  occ. eigenvalues --   -0.86372  -0.85209  -0.82624  -0.81541  -0.77673
 Alpha  occ. eigenvalues --   -0.76604  -0.72238  -0.71355  -0.71261  -0.70675
 Alpha  occ. eigenvalues --   -0.70356  -0.69543  -0.65222  -0.64986  -0.64059
 Alpha  occ. eigenvalues --   -0.63863  -0.62335  -0.61178  -0.55467  -0.54329
 Alpha  occ. eigenvalues --   -0.53298  -0.53076  -0.52022  -0.51939  -0.49009
 Alpha  occ. eigenvalues --   -0.48953  -0.48020  -0.47997  -0.44937  -0.44064
 Alpha  occ. eigenvalues --   -0.37532  -0.36585  -0.36248  -0.35282
 Alpha virt. eigenvalues --    0.04855   0.05976   0.11067   0.12258   0.16359
 Alpha virt. eigenvalues --    0.17484   0.20929   0.22199   0.26520   0.27617
 Alpha virt. eigenvalues --    0.28699   0.29132   0.30663   0.31511   0.32644

 Mulliken charges:
               1
     1  C   -0.158952
     2  C   -0.209888
     3  C   -0.163969
     4  C    0.161156
     5  C   -0.173028
     6  C   -0.211896
     7  H    0.220556
     8  H    0.221125
     9  H    0.274079
    10  H    0.268874
    11  H    0.210749
    12  N    0.488346
    13  O   -0.466496
    14  O   -0.460378
    15  C   -0.170308
    16  C   -0.217866
    17  C   -0.169192
    18  C    0.159259
    19  C   -0.172418
    20  C   -0.218434
    21  H    0.226416
    22  H    0.225327
    23  H    0.278001
    24  H    0.269181
    25  H    0.221398
    26  N    0.489404
    27  O   -0.463484
    28  O   -0.457560
 Sum of Mulliken charges =  -0.00000

 Dipole moment (field-independent basis, Debye):
    X=              4.9290    Y=              4.8435    Z=             -2.4331  Tot=              7.3263
 Quadrupole moment (field-independent basis, Debye-Ang):
   XX=            -88.1345   YY=           -104.7291   ZZ=           -105.4137
   XY=            -16.7899   XZ=            -10.4399   YZ=             -4.2537

 Normal termination of Gaussian 16 at Fri May  7 09:41:46 2021.
