 Gaussian 16, Revision A.03,
 Gaussian 16:  EM64L-G16RevA.03 25-Dec-2016

 -------------
 #p 6-31g* mp2
 -------------

 ------------------------------------------------------
 Input file generated by CHIRIPA (05-May-2021 14:53:13)
 ------------------------------------------------------
 Symbolic Z-matrix:
 Charge =  0 Multiplicity = 1

                         Standard orientation:
 ---------------------------------------------------------------------
 Center     Atomic      Atomic             Coordinates (Angstroms)
 Number     Number       Type             X           Y           Z
 ---------------------------------------------------------------------
      1          6           0        3.974983    0.111136    0.501428
      2          6           0        5.020571    1.011641   -0.157223
      3          6           0        5.740506    1.913290    0.846031
      4          1           0        3.240641    0.736573    1.027274
      5          1           0        4.463816   -0.507449    1.266797
      6          1           0        4.530158    1.627356   -0.922079
      7          1           0        5.752403    0.383995   -0.681723
      8          1           0        6.255371    1.313035    1.603137
      9          1           0        5.026182    2.563461    1.361414
     10          1           0        6.483508    2.548519    0.353800
     11          6           0        3.246745   -0.796130   -0.488654
     12          6           0        2.201157   -1.696635    0.169997
     13          6           0        1.481222   -2.598284   -0.833257
     14          1           0        2.757912   -0.177545   -1.254023
     15          1           0        3.981087   -1.421567   -1.014500
     16          1           0        1.469325   -1.068989    0.694497
     17          1           0        2.691570   -2.312350    0.934854
     18          1           0        2.195546   -3.248455   -1.348640
     19          1           0        0.966357   -1.998029   -1.590363
     20          1           0        0.738220   -3.233513   -0.341026
     21          6           0       -2.762630   -2.197591    0.529305
     22          6           0       -2.023497   -1.697049   -0.547571
     23          6           0       -2.048348   -0.332953   -0.852818
     24          6           0       -2.826629    0.505899   -0.056643
     25          6           0       -3.573963    0.037463    1.022869
     26          6           0       -3.534144   -1.330268    1.309713
     27          1           0       -2.737511   -3.258664    0.759279
     28          1           0       -1.423441   -2.368285   -1.155370
     29          1           0       -1.485770    0.081255   -1.680680
     30          1           0       -4.162770    0.731225    1.610592
     31          1           0       -4.109173   -1.716195    2.146638
     32          7           0       -2.860861    1.951929   -0.370052
     33          8           0       -3.554430    2.670156    0.346710
     34          8           0       -2.193475    2.339720   -1.326531
 ---------------------------------------------------------------------

 SCF Done:  E(RHF) =  -669.534753159     A.U. after   15 cycles
 E2 =    -0.2092139655D+01 EUMP2 =    -0.67162689281386D+03

 The electronic state is 1-A.
 Alpha  occ. eigenvalues --  -20.60773 -20.60767 -15.85824 -11.31181 -11.27729
 Alpha  occ. eigenvalues --  -11.27723 -11.27455 -11.26758 -11.26659 -11.22120
 Alpha  occ. eigenvalues --  -11.21971 -11.21709 -11.21664 -11.21533 -11.21072
 Alpha  occ. eigenvalues --   -1.59848  -1.39402  -1.19340  -1.08753  -1.08707
 Alpha  occ. eigenvalues --   -1.04744  -1.03873  -0.96363  -0.95577  -0.87409
 Alpha  occ. eigenvalues --   -0.86123  -0.82408  -0.79955  -0.78486  -0.77457
 Alpha  occ. eigenvalues --   -0.72042  -0.71171  -0.70450  -0.65380  -0.64987
 Alpha  occ. eigenvalues --   -0.64757  -0.62184  -0.61202  -0.59748  -0.57937
 Alpha  occ. eigenvalues --   -0.55688  -0.55213  -0.53273  -0.53039  -0.52780
 Alpha  occ. eigenvalues --   -0.52616  -0.50259  -0.48799  -0.48795  -0.48262
 Alpha  occ. eigenvalues --   -0.46947  -0.46042  -0.45928  -0.44810  -0.44113
 Alpha  occ. eigenvalues --   -0.37314  -0.36313
 Alpha virt. eigenvalues --    0.05051   0.11269   0.16502   0.20522   0.22807
 Alpha virt. eigenvalues --    0.24145   0.25753   0.26619   0.26850   0.27900
 Alpha virt. eigenvalues --    0.29151   0.30619   0.30745   0.31416   0.32220

 Mulliken charges:
               1
     1  C   -0.298993
     2  C   -0.300311
     3  C   -0.476121
     4  H    0.152370
     5  H    0.149064
     6  H    0.154502
     7  H    0.151304
     8  H    0.154420
     9  H    0.157075
    10  H    0.161182
    11  C   -0.299332
    12  C   -0.300678
    13  C   -0.476602
    14  H    0.151328
    15  H    0.149850
    16  H    0.156240
    17  H    0.153314
    18  H    0.159106
    19  H    0.148893
    20  H    0.153412
    21  C   -0.173493
    22  C   -0.215999
    23  C   -0.174331
    24  C    0.158613
    25  C   -0.171577
    26  C   -0.218101
    27  H    0.225269
    28  H    0.229459
    29  H    0.274562
    30  H    0.275402
    31  H    0.223285
    32  N    0.488079
    33  O   -0.460391
    34  O   -0.460803
 Sum of Mulliken charges =  -0.00000

 Dipole moment (field-independent basis, Debye):
    X=              0.2440    Y=             -5.0549    Z=              1.1444  Tot=              5.1885
 Quadrupole moment (field-independent basis, Debye-Ang):
   XX=            -93.5766   YY=           -100.5316   ZZ=            -92.6924
   XY=             13.2463   XZ=             -6.2113   YZ=              0.9258

 Normal termination of Gaussian 16 at Thu May  6 02:35:36 2021.
