 Gaussian 16, Revision A.03,
 Gaussian 16:  EM64L-G16RevA.03 25-Dec-2016

 -------------
 #p 6-31g* mp2
 -------------

 ------------------------------------------------------
 Input file generated by CHIRIPA (05-May-2021 14:51:08)
 ------------------------------------------------------
 Symbolic Z-matrix:
 Charge =  0 Multiplicity = 1

                         Standard orientation:
 ---------------------------------------------------------------------
 Center     Atomic      Atomic             Coordinates (Angstroms)
 Number     Number       Type             X           Y           Z
 ---------------------------------------------------------------------
      1          6           0       -2.669552   -0.408332   -0.202153
      2          6           0       -2.369984   -1.263385   -1.433871
      3          6           0       -2.556862   -2.758687   -1.175143
      4          1           0       -2.016237   -0.723604    0.622910
      5          1           0       -3.700936   -0.598588    0.125635
      6          1           0       -1.339923   -1.070540   -1.760064
      7          1           0       -3.023955   -0.945913   -2.256155
      8          1           0       -3.586987   -2.971311   -0.871441
      9          1           0       -1.893387   -3.096646   -0.372531
     10          1           0       -2.337459   -3.351241   -2.068789
     11          6           0       -2.487196    1.088821   -0.445066
     12          6           0       -2.786764    1.943873    0.786653
     13          6           0       -2.599886    3.439176    0.527924
     14          1           0       -1.455812    1.279076   -0.772853
     15          1           0       -3.140511    1.404092   -1.270129
     16          1           0       -2.132794    1.626401    1.608936
     17          1           0       -3.816825    1.751028    1.112845
     18          1           0       -3.263361    3.777134   -0.274688
     19          1           0       -1.569762    3.651799    0.224222
     20          1           0       -2.819289    4.031729    1.421570
     21          6           0        2.793729    0.187312   -0.185055
     22          6           0        4.306779    0.403007   -0.231304
     23          6           0        4.722055    1.461364   -1.253663
     24          1           0        2.440985   -0.106621   -1.183114
     25          1           0        2.301548    1.140658    0.052190
     26          1           0        4.796041   -0.550761   -0.467029
     27          1           0        4.655989    0.696273    0.767026
     28          1           0        4.260697    2.425988   -1.018613
     29          1           0        4.401545    1.171868   -2.259679
     30          1           0        5.807642    1.599531   -1.270082
     31          6           0        2.363020   -0.867800    0.832274
     32          6           0        0.849969   -1.083495    0.878522
     33          6           0        0.434693   -2.141852    1.900882
     34          1           0        2.855200   -1.821146    0.595027
     35          1           0        2.715764   -0.573867    1.830332
     36          1           0        0.500758   -1.376762   -0.119808
     37          1           0        0.360707   -0.129728    1.114247
     38          1           0        0.755204   -1.852357    2.906898
     39          1           0        0.896051   -3.106477    1.665831
     40          1           0       -0.650894   -2.280020    1.917300
 ---------------------------------------------------------------------

 SCF Done:  E(RHF) =  -470.731895189     A.U. after   11 cycles
 E2 =    -0.1585578381D+01 EUMP2 =    -0.47231747357021D+03

 The electronic state is 1-A.
 Alpha  occ. eigenvalues --  -11.21692 -11.21658 -11.21590 -11.21541 -11.21486
 Alpha  occ. eigenvalues --  -11.21427 -11.21322 -11.21228 -11.21178 -11.21113
 Alpha  occ. eigenvalues --  -11.21067 -11.21037  -1.08556  -1.08346  -1.03657
 Alpha  occ. eigenvalues --   -1.03469  -0.96074  -0.95942  -0.87084  -0.86961
 Alpha  occ. eigenvalues --   -0.79703  -0.79561  -0.78366  -0.78181  -0.65165
 Alpha  occ. eigenvalues --   -0.65075  -0.61252  -0.60773  -0.59440  -0.59243
 Alpha  occ. eigenvalues --   -0.57674  -0.57538  -0.55431  -0.55141  -0.52773
 Alpha  occ. eigenvalues --   -0.52650  -0.52515  -0.52359  -0.50061  -0.49850
 Alpha  occ. eigenvalues --   -0.48005  -0.47881  -0.46834  -0.46497  -0.46011
 Alpha  occ. eigenvalues --   -0.45848  -0.45530  -0.45477  -0.43869  -0.43736
 Alpha virt. eigenvalues --    0.20118   0.22590   0.23222   0.24311   0.25600
 Alpha virt. eigenvalues --    0.26256   0.26960   0.27625   0.29205   0.29694
 Alpha virt. eigenvalues --    0.30437   0.30646   0.31626   0.31774   0.32234

 Mulliken charges:
               1
     1  C   -0.306338
     2  C   -0.301433
     3  C   -0.480295
     4  H    0.160809
     5  H    0.148795
     6  H    0.152492
     7  H    0.152211
     8  H    0.155269
     9  H    0.159050
    10  H    0.159834
    11  C   -0.299061
    12  C   -0.300935
    13  C   -0.475532
    14  H    0.150675
    15  H    0.149544
    16  H    0.151703
    17  H    0.152101
    18  H    0.155375
    19  H    0.154814
    20  H    0.160059
    21  C   -0.298569
    22  C   -0.299698
    23  C   -0.475796
    24  H    0.149358
    25  H    0.149172
    26  H    0.152186
    27  H    0.152172
    28  H    0.155246
    29  H    0.155316
    30  H    0.160512
    31  C   -0.297365
    32  C   -0.309328
    33  C   -0.481353
    34  H    0.149879
    35  H    0.149906
    36  H    0.158870
    37  H    0.154173
    38  H    0.155998
    39  H    0.156105
    40  H    0.164079
 Sum of Mulliken charges =  -0.00000

 Dipole moment (field-independent basis, Debye):
    X=              0.0484    Y=             -0.0176    Z=              0.0197  Tot=              0.0552
 Quadrupole moment (field-independent basis, Debye-Ang):
   XX=            -84.1156   YY=            -86.0547   ZZ=            -84.6893
   XY=             -0.5886   XZ=              0.4957   YZ=              1.0010

 Normal termination of Gaussian 16 at Thu May  6 02:05:34 2021.
