 Gaussian 16, Revision A.03,
 Gaussian 16:  EM64L-G16RevA.03 25-Dec-2016

 -------------
 #p 6-31g* mp2
 -------------

 ------------------------------------------------------
 Input file generated by CHIRIPA (05-May-2021 14:57:27)
 ------------------------------------------------------
 Symbolic Z-matrix:
 Charge =  0 Multiplicity = 1

                         Standard orientation:
 ---------------------------------------------------------------------
 Center     Atomic      Atomic             Coordinates (Angstroms)
 Number     Number       Type             X           Y           Z
 ---------------------------------------------------------------------
      1          6           0       -3.096653    2.542197    0.348744
      2          6           0       -2.142903    1.619119   -0.092630
      3          6           0       -2.490958    0.280259   -0.294765
      4          6           0       -3.807776   -0.102770   -0.044629
      5          6           0       -4.780726    0.793191    0.395725
      6          6           0       -4.410205    2.127018    0.591085
      7          1           0       -2.817549    3.580301    0.503136
      8          1           0       -1.122033    1.938720   -0.281638
      9          1           0       -1.772632   -0.455290   -0.635930
     10          1           0       -5.790492    0.444752    0.575674
     11          1           0       -5.152999    2.841698    0.933918
     12          7           0       -4.188138   -1.517498   -0.255035
     13          8           0       -5.354917   -1.829750   -0.027518
     14          8           0       -3.312286   -2.287321   -0.643483
     15          6           0        6.245301    0.206212    0.049380
     16          6           0        5.623382   -0.539250    1.056367
     17          6           0        4.238762   -0.732220    1.044606
     18          6           0        3.503376   -0.162936    0.006141
     19          6           0        4.093866    0.584853   -1.011418
     20          6           0        5.479907    0.764900   -0.979485
     21          1           0        7.321459    0.351097    0.066351
     22          1           0        6.215281   -0.974305    1.856634
     23          1           0        3.731577   -1.304863    1.811589
     24          1           0        3.477328    1.006208   -1.796121
     25          1           0        5.960203    1.344305   -1.762844
     26          7           0        2.036789   -0.360384   -0.016988
     27          8           0        1.411289    0.151565   -0.942891
     28          8           0        1.540547   -1.023355    0.891225
 ---------------------------------------------------------------------

 SCF Done:  E(RHF) =  -868.340693825     A.U. after   16 cycles
 E2 =    -0.2598898675D+01 EUMP2 =    -0.87093959250066D+03

 The electronic state is 1-A.
 Alpha  occ. eigenvalues --  -20.61688 -20.61649 -20.59609 -20.59576 -15.86654
 Alpha  occ. eigenvalues --  -15.84639 -11.31753 -11.29839 -11.28300 -11.28265
 Alpha  occ. eigenvalues --  -11.27979 -11.27245 -11.27222 -11.26523 -11.26229
 Alpha  occ. eigenvalues --  -11.26185 -11.25550 -11.25245  -1.60708  -1.58675
 Alpha  occ. eigenvalues --   -1.40268  -1.38229  -1.19897  -1.18025  -1.09345
 Alpha  occ. eigenvalues --   -1.07482  -1.05257  -1.03367  -0.96223  -0.94325
 Alpha  occ. eigenvalues --   -0.86668  -0.84803  -0.83064  -0.81132  -0.78142
 Alpha  occ. eigenvalues --   -0.76176  -0.72879  -0.71994  -0.71001  -0.70867
 Alpha  occ. eigenvalues --   -0.69995  -0.69165  -0.65553  -0.65257  -0.63673
 Alpha  occ. eigenvalues --   -0.63372  -0.62605  -0.60680  -0.55769  -0.53978
 Alpha  occ. eigenvalues --   -0.53602  -0.53344  -0.51770  -0.51440  -0.49664
 Alpha  occ. eigenvalues --   -0.49615  -0.47630  -0.47605  -0.45719  -0.43668
 Alpha  occ. eigenvalues --   -0.37861  -0.36847  -0.36080  -0.34971
 Alpha virt. eigenvalues --    0.04352   0.06305   0.10812   0.12654   0.15892
 Alpha virt. eigenvalues --    0.17800   0.20971   0.22792   0.26914   0.27797
 Alpha virt. eigenvalues --    0.28815   0.29638   0.30627   0.32030   0.32303

 Mulliken charges:
               1
     1  C   -0.172115
     2  C   -0.223548
     3  C   -0.171183
     4  C    0.156886
     5  C   -0.172795
     6  C   -0.219762
     7  H    0.219585
     8  H    0.233021
     9  H    0.292184
    10  H    0.270989
    11  H    0.217582
    12  N    0.487845
    13  O   -0.466530
    14  O   -0.457820
    15  C   -0.169750
    16  C   -0.218618
    17  C   -0.170044
    18  C    0.157677
    19  C   -0.170829
    20  C   -0.218578
    21  H    0.227662
    22  H    0.225743
    23  H    0.277720
    24  H    0.274795
    25  H    0.224916
    26  N    0.489604
    27  O   -0.471181
    28  O   -0.453456
 Sum of Mulliken charges =  -0.00000

 Dipole moment (field-independent basis, Debye):
    X=              7.2122    Y=              5.4956    Z=              0.8315  Tot=              9.1054
 Quadrupole moment (field-independent basis, Debye-Ang):
   XX=            -75.9744   YY=           -106.1012   ZZ=           -101.9631
   XY=            -18.5671   XZ=             -3.4020   YZ=             -2.8037

 Normal termination of Gaussian 16 at Thu May  6 19:47:12 2021.
