 Gaussian 16, Revision A.03,
 Gaussian 16:  EM64L-G16RevA.03 25-Dec-2016

 -------------
 #p 6-31g* mp2
 -------------

 ------------------------------------------------------
 Input file generated by CHIRIPA (05-May-2021 14:51:09)
 ------------------------------------------------------
 Symbolic Z-matrix:
 Charge =  0 Multiplicity = 1

                         Standard orientation:
 ---------------------------------------------------------------------
 Center     Atomic      Atomic             Coordinates (Angstroms)
 Number     Number       Type             X           Y           Z
 ---------------------------------------------------------------------
      1          6           0       -3.388472    0.846782   -0.029967
      2          6           0       -4.365364    2.022484   -0.067259
      3          6           0       -3.661016    3.378362   -0.009970
      4          1           0       -2.784201    0.909284    0.885400
      5          1           0       -2.688887    0.933498   -0.872853
      6          1           0       -5.063768    1.932826    0.774650
      7          1           0       -4.967511    1.957069   -0.982549
      8          1           0       -2.977420    3.493472   -0.857347
      9          1           0       -3.074223    3.469092    0.909836
     10          1           0       -4.378066    4.204752   -0.037848
     11          6           0       -4.077556   -0.515457   -0.086507
     12          6           0       -3.100664   -1.691159   -0.049214
     13          6           0       -3.805012   -3.047037   -0.106503
     14          1           0       -4.777141   -0.602173    0.756379
     15          1           0       -4.681827   -0.577959   -1.001873
     16          1           0       -2.498517   -1.625744    0.866076
     17          1           0       -2.402260   -1.601501   -0.891123
     18          1           0       -4.391805   -3.137767   -1.026309
     19          1           0       -4.488608   -3.162147    0.740873
     20          1           0       -3.087961   -3.873427   -0.078625
     21          6           0        4.301759    0.305092    0.254071
     22          6           0        5.610024    0.014652   -0.482184
     23          6           0        6.738362    0.964736   -0.079709
     24          1           0        3.998574    1.342029    0.054608
     25          1           0        4.474593    0.232738    1.336795
     26          1           0        5.434448    0.086173   -1.563236
     27          1           0        5.910030   -1.021774   -0.281099
     28          1           0        6.942286    0.888014    0.993198
     29          1           0        6.464002    2.002257   -0.296224
     30          1           0        7.664247    0.739250   -0.617997
     31          6           0        3.164269   -0.636417   -0.137598
     32          6           0        1.856004   -0.345977    0.598657
     33          6           0        0.727666   -1.296061    0.196183
     34          1           0        2.991435   -0.564063   -1.220321
     35          1           0        3.467454   -1.673354    0.061865
     36          1           0        1.555998    0.690449    0.397572
     37          1           0        2.031580   -0.417498    1.679709
     38          1           0        1.002026   -2.333582    0.412698
     39          1           0        0.523742   -1.219339   -0.876724
     40          1           0       -0.198219   -1.070575    0.734471
 ---------------------------------------------------------------------

 SCF Done:  E(RHF) =  -470.732685595     A.U. after   11 cycles
 E2 =    -0.1582962115D+01 EUMP2 =    -0.47231564771058D+03

 The electronic state is 1-A.
 Alpha  occ. eigenvalues --  -11.21604 -11.21581 -11.21535 -11.21524 -11.21396
 Alpha  occ. eigenvalues --  -11.21370 -11.21330 -11.21309 -11.21077 -11.21055
 Alpha  occ. eigenvalues --  -11.21024 -11.20937  -1.08424  -1.08384  -1.03532
 Alpha  occ. eigenvalues --   -1.03461  -0.95968  -0.95926  -0.87019  -0.86915
 Alpha  occ. eigenvalues --   -0.79693  -0.79448  -0.78255  -0.78174  -0.65059
 Alpha  occ. eigenvalues --   -0.65016  -0.60937  -0.60861  -0.59500  -0.59157
 Alpha  occ. eigenvalues --   -0.57585  -0.57529  -0.55256  -0.55216  -0.52798
 Alpha  occ. eigenvalues --   -0.52566  -0.52375  -0.52324  -0.49930  -0.49857
 Alpha  occ. eigenvalues --   -0.47949  -0.47807  -0.46655  -0.46534  -0.45786
 Alpha  occ. eigenvalues --   -0.45757  -0.45699  -0.45624  -0.43794  -0.43610
 Alpha virt. eigenvalues --    0.21948   0.23108   0.23859   0.24465   0.25644
 Alpha virt. eigenvalues --    0.26350   0.26845   0.27606   0.27935   0.29327
 Alpha virt. eigenvalues --    0.30401   0.31119   0.31558   0.32062   0.32123

 Mulliken charges:
               1
     1  C   -0.298788
     2  C   -0.299569
     3  C   -0.475680
     4  H    0.149212
     5  H    0.149811
     6  H    0.151956
     7  H    0.152023
     8  H    0.155028
     9  H    0.155185
    10  H    0.160271
    11  C   -0.298202
    12  C   -0.302847
    13  C   -0.475474
    14  H    0.149136
    15  H    0.149418
    16  H    0.153767
    17  H    0.155548
    18  H    0.154805
    19  H    0.154660
    20  H    0.160614
    21  C   -0.298164
    22  C   -0.299570
    23  C   -0.475671
    24  H    0.149583
    25  H    0.149391
    26  H    0.151826
    27  H    0.151866
    28  H    0.155135
    29  H    0.155152
    30  H    0.160161
    31  C   -0.298457
    32  C   -0.299937
    33  C   -0.479034
    34  H    0.149224
    35  H    0.149433
    36  H    0.151908
    37  H    0.151215
    38  H    0.153891
    39  H    0.153942
    40  H    0.167233
 Sum of Mulliken charges =  -0.00000

 Dipole moment (field-independent basis, Debye):
    X=             -0.0303    Y=             -0.0079    Z=             -0.0034  Tot=              0.0315
 Quadrupole moment (field-independent basis, Debye-Ang):
   XX=            -85.8672   YY=            -85.8763   ZZ=            -83.1967
   XY=             -1.1042   XZ=             -0.0143   YZ=             -0.6592

 Normal termination of Gaussian 16 at Wed May  5 19:42:36 2021.
