 Gaussian 16, Revision A.03,
 Gaussian 16:  EM64L-G16RevA.03 25-Dec-2016

 -------------
 #p 6-31g* mp2
 -------------

 ------------------------------------------------------
 Input file generated by CHIRIPA (05-May-2021 14:55:22)
 ------------------------------------------------------
 Symbolic Z-matrix:
 Charge =  0 Multiplicity = 1

                         Standard orientation:
 ---------------------------------------------------------------------
 Center     Atomic      Atomic             Coordinates (Angstroms)
 Number     Number       Type             X           Y           Z
 ---------------------------------------------------------------------
      1          6           0       -0.777351    0.820102    1.570335
      2          6           0       -0.527805   -0.182199    0.627128
      3          6           0       -1.577851   -0.748821   -0.101495
      4          6           0       -2.870944   -0.287225    0.139606
      5          6           0       -3.151667    0.709826    1.072544
      6          6           0       -2.086179    1.262136    1.789647
      7          1           0        0.044348    1.254708    2.131872
      8          1           0        0.487638   -0.527448    0.454718
      9          1           0       -1.412979   -1.526150   -0.837697
     10          1           0       -4.174557    1.033340    1.222391
     11          1           0       -2.282949    2.040391    2.521525
     12          7           0       -3.990755   -0.879506   -0.625656
     13          8           0       -5.120983   -0.455407   -0.394656
     14          8           0       -3.717031   -1.756620   -1.441979
     15          6           0        3.069747    0.613964   -0.896518
     16          6           0        2.355320    1.876405   -0.412966
     17          6           0        1.622027    2.608156   -1.537518
     18          1           0        3.783617    0.884172   -1.686659
     19          1           0        2.335054   -0.061268   -1.356609
     20          1           0        3.090921    2.548452    0.047318
     21          1           0        1.643206    1.603187    0.376249
     22          1           0        0.867187    1.958303   -1.991948
     23          1           0        2.323127    2.908939   -2.322750
     24          1           0        1.118359    3.507539   -1.169702
     25          6           0        3.807400   -0.128564    0.216249
     26          6           0        4.521826   -1.391005   -0.267303
     27          6           0        5.255120   -2.122756    0.857248
     28          1           0        4.542093    0.546668    0.676339
     29          1           0        3.093530   -0.398771    1.006390
     30          1           0        5.233941   -1.117786   -1.056518
     31          1           0        3.786227   -2.063052   -0.727586
     32          1           0        4.554021   -2.423539    1.642481
     33          1           0        6.009961   -1.472902    1.311680
     34          1           0        5.758790   -3.022138    0.489433
 ---------------------------------------------------------------------

 SCF Done:  E(RHF) =  -669.533693077     A.U. after   15 cycles
 E2 =    -0.2094284622D+01 EUMP2 =    -0.67162797769927D+03

 The electronic state is 1-A.
 Alpha  occ. eigenvalues --  -20.60783 -20.60778 -15.85836 -11.31216 -11.27785
 Alpha  occ. eigenvalues --  -11.27781 -11.27513 -11.26798 -11.26769 -11.22489
 Alpha  occ. eigenvalues --  -11.22445 -11.22384 -11.22331 -11.21741 -11.21700
 Alpha  occ. eigenvalues --   -1.59858  -1.39411  -1.19394  -1.09389  -1.08781
 Alpha  occ. eigenvalues --   -1.04808  -1.04327  -0.96772  -0.95625  -0.87783
 Alpha  occ. eigenvalues --   -0.86210  -0.82456  -0.80420  -0.79204  -0.77500
 Alpha  occ. eigenvalues --   -0.72058  -0.71181  -0.70538  -0.66315  -0.65046
 Alpha  occ. eigenvalues --   -0.64622  -0.62213  -0.61604  -0.60138  -0.58391
 Alpha  occ. eigenvalues --   -0.56107  -0.55293  -0.53421  -0.53202  -0.53089
 Alpha  occ. eigenvalues --   -0.52863  -0.50704  -0.48815  -0.48813  -0.48705
 Alpha  occ. eigenvalues --   -0.47469  -0.46711  -0.46667  -0.44814  -0.44626
 Alpha  occ. eigenvalues --   -0.37320  -0.36381
 Alpha virt. eigenvalues --    0.05009   0.11147   0.16416   0.18978   0.22782
 Alpha virt. eigenvalues --    0.23864   0.25262   0.25509   0.26788   0.28386
 Alpha virt. eigenvalues --    0.29420   0.30867   0.31114   0.31440   0.32091

 Mulliken charges:
               1
     1  C   -0.172343
     2  C   -0.221327
     3  C   -0.174400
     4  C    0.158853
     5  C   -0.170912
     6  C   -0.219439
     7  H    0.226895
     8  H    0.233501
     9  H    0.275730
    10  H    0.275776
    11  H    0.223709
    12  N    0.488076
    13  O   -0.460311
    14  O   -0.460363
    15  C   -0.303000
    16  C   -0.303209
    17  C   -0.475131
    18  H    0.156912
    19  H    0.145857
    20  H    0.153924
    21  H    0.144124
    22  H    0.158953
    23  H    0.157770
    24  H    0.161275
    25  C   -0.300939
    26  C   -0.299829
    27  C   -0.476237
    28  H    0.153902
    29  H    0.140248
    30  H    0.155805
    31  H    0.151319
    32  H    0.154539
    33  H    0.156607
    34  H    0.163664
 Sum of Mulliken charges =  -0.00000

 Dipole moment (field-independent basis, Debye):
    X=              4.0716    Y=              2.1245    Z=              2.6161  Tot=              5.2854
 Quadrupole moment (field-independent basis, Debye-Ang):
   XX=           -114.5022   YY=            -94.5972   ZZ=            -93.7797
   XY=             -8.6744   XZ=             -9.8590   YZ=              1.4557

 Normal termination of Gaussian 16 at Wed May  5 20:38:42 2021.
