 Gaussian 16, Revision A.03,
 Gaussian 16:  EM64L-G16RevA.03 25-Dec-2016

 -------------
 #p 6-31g* mp2
 -------------

 ------------------------------------------------------
 Input file generated by CHIRIPA (05-May-2021 14:57:25)
 ------------------------------------------------------
 Symbolic Z-matrix:
 Charge =  0 Multiplicity = 1

                         Standard orientation:
 ---------------------------------------------------------------------
 Center     Atomic      Atomic             Coordinates (Angstroms)
 Number     Number       Type             X           Y           Z
 ---------------------------------------------------------------------
      1          6           0        3.370050    0.736301   -1.209581
      2          6           0        2.927026    1.480693   -0.111341
      3          6           0        2.072756    0.908676    0.836060
      4          6           0        1.679533   -0.416184    0.653271
      5          6           0        2.103770   -1.183753   -0.430312
      6          6           0        2.957736   -0.591205   -1.365287
      7          1           0        4.033549    1.188632   -1.940719
      8          1           0        3.245609    2.511858    0.012140
      9          1           0        1.714640    1.462094    1.695652
     10          1           0        1.769061   -2.209494   -0.526451
     11          1           0        3.300207   -1.171706   -2.217212
     12          7           0        0.775317   -1.032620    1.649664
     13          8           0        0.443349   -2.201660    1.465873
     14          8           0        0.415682   -0.335070    2.595563
     15          6           0       -1.987497   -2.089557   -1.237884
     16          6           0       -2.585049   -1.689073   -0.038274
     17          6           0       -2.503342   -0.359613    0.386471
     18          6           0       -1.813193    0.547012   -0.416659
     19          6           0       -1.207331    0.178707   -1.616897
     20          6           0       -1.301754   -1.156035   -2.021985
     21          1           0       -2.055909   -3.124365   -1.560202
     22          1           0       -3.118246   -2.411888    0.572695
     23          1           0       -2.956675   -0.022476    1.310724
     24          1           0       -0.682562    0.922115   -2.204588
     25          1           0       -0.836715   -1.464217   -2.954084
     26          7           0       -1.719962    1.957247    0.022594
     27          8           0       -1.106242    2.736676   -0.702991
     28          8           0       -2.262374    2.256458    1.084150
 ---------------------------------------------------------------------

 SCF Done:  E(RHF) =  -868.337956832     A.U. after   16 cycles
 E2 =    -0.2606592744D+01 EUMP2 =    -0.87094454957636D+03

 The electronic state is 1-A.
 Alpha  occ. eigenvalues --  -20.60869 -20.60864 -20.60483 -20.60422 -15.85867
 Alpha  occ. eigenvalues --  -15.85496 -11.31111 -11.30701 -11.27752 -11.27610
 Alpha  occ. eigenvalues --  -11.27440 -11.27347 -11.27137 -11.26991 -11.26772
 Alpha  occ. eigenvalues --  -11.26606 -11.26348 -11.26114  -1.59928  -1.59534
 Alpha  occ. eigenvalues --   -1.39486  -1.39085  -1.19316  -1.18887  -1.08732
 Alpha  occ. eigenvalues --   -1.08303  -1.04692  -1.04242  -0.95582  -0.95162
 Alpha  occ. eigenvalues --   -0.86097  -0.85652  -0.82415  -0.81989  -0.77473
 Alpha  occ. eigenvalues --   -0.77055  -0.72129  -0.71722  -0.71431  -0.70731
 Alpha  occ. eigenvalues --   -0.70412  -0.69977  -0.64961  -0.64693  -0.64524
 Alpha  occ. eigenvalues --   -0.64251  -0.62034  -0.61591  -0.55213  -0.54770
 Alpha  occ. eigenvalues --   -0.53292  -0.52782  -0.52360  -0.52314  -0.48907
 Alpha  occ. eigenvalues --   -0.48865  -0.48488  -0.48462  -0.44951  -0.44508
 Alpha  occ. eigenvalues --   -0.37585  -0.36874  -0.36325  -0.35340
 Alpha virt. eigenvalues --    0.04958   0.05520   0.11216   0.11920   0.16580
 Alpha virt. eigenvalues --    0.17006   0.21374   0.21992   0.27270   0.27922
 Alpha virt. eigenvalues --    0.28377   0.28828   0.30903   0.31481   0.32633

 Mulliken charges:
               1
     1  C   -0.172064
     2  C   -0.213551
     3  C   -0.172116
     4  C    0.157502
     5  C   -0.167870
     6  C   -0.223522
     7  H    0.225741
     8  H    0.228601
     9  H    0.281976
    10  H    0.270045
    11  H    0.219556
    12  N    0.488340
    13  O   -0.464038
    14  O   -0.458313
    15  C   -0.167017
    16  C   -0.203250
    17  C   -0.168677
    18  C    0.147014
    19  C   -0.169906
    20  C   -0.223527
    21  H    0.224151
    22  H    0.227585
    23  H    0.280681
    24  H    0.271332
    25  H    0.216528
    26  N    0.488125
    27  O   -0.467940
    28  O   -0.455386
 Sum of Mulliken charges =  -0.00000

 Dipole moment (field-independent basis, Debye):
    X=              2.7285    Y=             -2.7912    Z=             -4.7199  Tot=              6.1248
 Quadrupole moment (field-independent basis, Debye-Ang):
   XX=            -92.2486   YY=           -108.8967   ZZ=           -104.5328
   XY=             12.8167   XZ=             -3.7888   YZ=              5.7010

 Normal termination of Gaussian 16 at Thu May  6 22:51:34 2021.
