 Gaussian 16, Revision A.03,
 Gaussian 16:  EM64L-G16RevA.03 25-Dec-2016

 -------------
 #p 6-31g* mp2
 -------------

 ------------------------------------------------------
 Input file generated by CHIRIPA (05-May-2021 14:53:18)
 ------------------------------------------------------
 Symbolic Z-matrix:
 Charge =  0 Multiplicity = 1

                         Standard orientation:
 ---------------------------------------------------------------------
 Center     Atomic      Atomic             Coordinates (Angstroms)
 Number     Number       Type             X           Y           Z
 ---------------------------------------------------------------------
      1          6           0       -2.569373    1.068806   -0.411169
      2          6           0       -1.325624    1.193775   -1.291770
      3          6           0       -0.797794    2.626662   -1.369382
      4          1           0       -3.355182    1.729904   -0.801553
      5          1           0       -2.332049    1.428378    0.599662
      6          1           0       -1.564835    0.832783   -2.300273
      7          1           0       -0.542750    0.532159   -0.899357
      8          1           0       -0.531803    2.993729   -0.372832
      9          1           0       -1.559695    3.296061   -1.781709
     10          1           0        0.091477    2.693103   -2.003922
     11          6           0       -3.108872   -0.357733   -0.323682
     12          6           0       -4.352621   -0.482702    0.556919
     13          6           0       -4.880451   -1.915589    0.634531
     14          1           0       -3.346196   -0.717305   -1.334513
     15          1           0       -2.323063   -1.018831    0.066702
     16          1           0       -5.135495    0.178914    0.164505
     17          1           0       -4.113410   -0.121710    1.565422
     18          1           0       -4.118550   -2.584988    1.046857
     19          1           0       -5.146442   -2.282656   -0.362019
     20          1           0       -5.769723   -1.982030    1.269071
     21          6           0        1.777515    1.480074    2.042570
     22          6           0        1.734932    0.124175    2.383516
     23          6           0        1.977401   -0.858420    1.419014
     24          6           0        2.260655   -0.447704    0.117334
     25          6           0        2.310284    0.895201   -0.253386
     26          6           0        2.064549    1.860590    0.727526
     27          1           0        1.587891    2.236694    2.798193
     28          1           0        1.512271   -0.174260    3.404007
     29          1           0        1.950790   -1.915181    1.655585
     30          1           0        2.534900    1.161900   -1.278976
     31          1           0        2.098285    2.912857    0.459873
     32          7           0        2.519075   -1.478825   -0.912427
     33          8           0        2.766380   -1.090984   -2.052188
     34          8           0        2.469426   -2.655335   -0.560294
 ---------------------------------------------------------------------

 SCF Done:  E(RHF) =  -669.534435492     A.U. after   15 cycles
 E2 =    -0.2094335916D+01 EUMP2 =    -0.67162877140822D+03

 The electronic state is 1-A.
 Alpha  occ. eigenvalues --  -20.60823 -20.60817 -15.85877 -11.31265 -11.27833
 Alpha  occ. eigenvalues --  -11.27808 -11.27574 -11.26860 -11.26819 -11.21685
 Alpha  occ. eigenvalues --  -11.21648 -11.21505 -11.21432 -11.21406 -11.21103
 Alpha  occ. eigenvalues --   -1.59898  -1.39450  -1.19454  -1.08836  -1.08523
 Alpha  occ. eigenvalues --   -1.04860  -1.03648  -0.96136  -0.95663  -0.87159
 Alpha  occ. eigenvalues --   -0.86242  -0.82490  -0.79718  -0.78327  -0.77534
 Alpha  occ. eigenvalues --   -0.72093  -0.71228  -0.70546  -0.65180  -0.65091
 Alpha  occ. eigenvalues --   -0.64841  -0.62215  -0.61087  -0.59507  -0.57740
 Alpha  occ. eigenvalues --   -0.55511  -0.55326  -0.53116  -0.52955  -0.52810
 Alpha  occ. eigenvalues --   -0.52524  -0.50070  -0.48855  -0.48847  -0.48026
 Alpha  occ. eigenvalues --   -0.46742  -0.45865  -0.45793  -0.44843  -0.43914
 Alpha  occ. eigenvalues --   -0.37399  -0.36378
 Alpha virt. eigenvalues --    0.04981   0.11109   0.16435   0.20765   0.22836
 Alpha virt. eigenvalues --    0.24102   0.26305   0.26431   0.27038   0.27937
 Alpha virt. eigenvalues --    0.28981   0.30192   0.31136   0.31440   0.32074

 Mulliken charges:
               1
     1  C   -0.297500
     2  C   -0.302844
     3  C   -0.475128
     4  H    0.149106
     5  H    0.145900
     6  H    0.156037
     7  H    0.157073
     8  H    0.149078
     9  H    0.156321
    10  H    0.154318
    11  C   -0.298698
    12  C   -0.299464
    13  C   -0.475720
    14  H    0.152254
    15  H    0.150535
    16  H    0.151883
    17  H    0.149168
    18  H    0.155506
    19  H    0.156950
    20  H    0.159635
    21  C   -0.173317
    22  C   -0.217949
    23  C   -0.172816
    24  C    0.159739
    25  C   -0.172070
    26  C   -0.212733
    27  H    0.225968
    28  H    0.223756
    29  H    0.275858
    30  H    0.276015
    31  H    0.225444
    32  N    0.488066
    33  O   -0.459925
    34  O   -0.460444
 Sum of Mulliken charges =  -0.00000

 Dipole moment (field-independent basis, Debye):
    X=             -0.8744    Y=              3.5679    Z=              3.6076  Tot=              5.1487
 Quadrupole moment (field-independent basis, Debye-Ang):
   XX=            -99.4858   YY=            -96.9202   ZZ=            -91.2515
   XY=              8.8622   XZ=              8.3441   YZ=             -3.8672

 Normal termination of Gaussian 16 at Thu May  6 12:21:15 2021.
