 Gaussian 16, Revision A.03,
 Gaussian 16:  EM64L-G16RevA.03 25-Dec-2016

 -------------
 #p 6-31g* mp2
 -------------

 ------------------------------------------------------
 Input file generated by CHIRIPA (05-May-2021 14:57:22)
 ------------------------------------------------------
 Symbolic Z-matrix:
 Charge =  0 Multiplicity = 1

                         Standard orientation:
 ---------------------------------------------------------------------
 Center     Atomic      Atomic             Coordinates (Angstroms)
 Number     Number       Type             X           Y           Z
 ---------------------------------------------------------------------
      1          6           0        1.787282    1.177902   -0.007637
      2          6           0        2.951319    1.952295   -0.050685
      3          6           0        4.207445    1.342655   -0.121653
      4          6           0        4.262929   -0.050011   -0.147953
      5          6           0        3.121298   -0.848913   -0.106402
      6          6           0        1.875830   -0.217769   -0.035584
      7          1           0        0.815633    1.659837    0.047434
      8          1           0        2.885579    3.036388   -0.029125
      9          1           0        5.124600    1.918027   -0.156161
     10          1           0        3.218738   -1.927520   -0.129399
     11          1           0        0.973500   -0.821703   -0.002276
     12          7           0        5.587091   -0.706792   -0.223004
     13          8           0        5.609036   -1.935480   -0.244903
     14          8           0        6.577953    0.019549   -0.258508
     15          6           0       -1.787208    0.314079    1.199105
     16          6           0       -2.476413    1.387648    0.625548
     17          6           0       -3.727874    1.193017    0.033506
     18          6           0       -4.262936   -0.094228    0.032766
     19          6           0       -3.600845   -1.184033    0.596017
     20          6           0       -2.350630   -0.966078    1.182538
     21          1           0       -0.815528    0.474333    1.656873
     22          1           0       -2.041284    2.382925    0.636956
     23          1           0       -4.283121    2.006329   -0.417758
     24          1           0       -4.060224   -2.164682    0.569279
     25          1           0       -1.817659   -1.801692    1.627213
     26          7           0       -5.587142   -0.312622   -0.591081
     27          8           0       -6.036901   -1.456387   -0.578761
     28          8           0       -6.150220    0.664103   -1.080558
 ---------------------------------------------------------------------

 SCF Done:  E(RHF) =  -868.336484743     A.U. after   16 cycles
 E2 =    -0.2601370890D+01 EUMP2 =    -0.87093785563231D+03

 The electronic state is 1-A.
 Alpha  occ. eigenvalues --  -20.61504 -20.61498 -20.61331 -20.61325 -15.86565
 Alpha  occ. eigenvalues --  -15.86389 -11.32158 -11.31909 -11.28758 -11.28730
 Alpha  occ. eigenvalues --  -11.28594 -11.28493 -11.28466 -11.28331 -11.27890
 Alpha  occ. eigenvalues --  -11.27829 -11.27575 -11.27545  -1.60574  -1.60402
 Alpha  occ. eigenvalues --   -1.40120  -1.39951  -1.20368  -1.20101  -1.09760
 Alpha  occ. eigenvalues --   -1.09479  -1.05794  -1.05520  -0.96557  -0.96274
 Alpha  occ. eigenvalues --   -0.87202  -0.86926  -0.83351  -0.83112  -0.78339
 Alpha  occ. eigenvalues --   -0.78120  -0.72781  -0.72608  -0.71899  -0.71763
 Alpha  occ. eigenvalues --   -0.71726  -0.71038  -0.66027  -0.65866  -0.65752
 Alpha  occ. eigenvalues --   -0.65481  -0.63127  -0.62853  -0.56442  -0.55994
 Alpha  occ. eigenvalues --   -0.54126  -0.53889  -0.53835  -0.53589  -0.49558
 Alpha  occ. eigenvalues --   -0.49519  -0.49376  -0.49349  -0.45475  -0.45322
 Alpha  occ. eigenvalues --   -0.38400  -0.38118  -0.37387  -0.37114
 Alpha virt. eigenvalues --    0.04148   0.04389   0.10050   0.10435   0.15492
 Alpha virt. eigenvalues --    0.15799   0.18796   0.22069   0.24299   0.26269
 Alpha virt. eigenvalues --    0.27565   0.29296   0.29640   0.30157   0.32269

 Mulliken charges:
               1
     1  C   -0.175960
     2  C   -0.218026
     3  C   -0.169910
     4  C    0.159534
     5  C   -0.169985
     6  C   -0.223438
     7  H    0.220635
     8  H    0.224790
     9  H    0.278021
    10  H    0.277292
    11  H    0.223150
    12  N    0.487922
    13  O   -0.458784
    14  O   -0.458300
    15  C   -0.179876
    16  C   -0.221456
    17  C   -0.169020
    18  C    0.159724
    19  C   -0.168958
    20  C   -0.222104
    21  H    0.226987
    22  H    0.221132
    23  H    0.278750
    24  H    0.279361
    25  H    0.225897
    26  N    0.487939
    27  O   -0.457396
    28  O   -0.457923
 Sum of Mulliken charges =  -0.00000

 Dipole moment (field-independent basis, Debye):
    X=             -0.1173    Y=              3.0003    Z=              2.3913  Tot=              3.8385
 Quadrupole moment (field-independent basis, Debye-Ang):
   XX=           -182.1670   YY=            -96.3752   ZZ=           -106.1481
   XY=              8.5850   XZ=             -7.4343   YZ=             -1.9732

 Normal termination of Gaussian 16 at Fri May  7 07:53:24 2021.
