 Gaussian 16, Revision A.03,
 Gaussian 16:  EM64L-G16RevA.03 25-Dec-2016

 -------------
 #p 6-31g* mp2
 -------------

 ------------------------------------------------------
 Input file generated by CHIRIPA (05-May-2021 14:51:13)
 ------------------------------------------------------
 Symbolic Z-matrix:
 Charge =  0 Multiplicity = 1

                         Standard orientation:
 ---------------------------------------------------------------------
 Center     Atomic      Atomic             Coordinates (Angstroms)
 Number     Number       Type             X           Y           Z
 ---------------------------------------------------------------------
      1          6           0        1.893390   -0.591360    0.594419
      2          6           0        2.023552   -2.012524    1.143360
      3          6           0        0.740548   -2.508062    1.811294
      4          1           0        1.618882    0.087518    1.413391
      5          1           0        1.066560   -0.559323   -0.128575
      6          1           0        2.850782   -2.042186    1.864074
      7          1           0        2.297970   -2.688066    0.323023
      8          1           0       -0.090147   -2.507165    1.098169
      9          1           0        0.465806   -1.857615    2.647975
     10          1           0        0.855833   -3.525971    2.196561
     11          6           0        3.167880   -0.081901   -0.076294
     12          6           0        3.037718    1.339262   -0.625235
     13          6           0        4.320723    1.834801   -1.293168
     14          1           0        3.994710   -0.113938    0.646700
     15          1           0        3.442388   -0.760779   -0.895265
     16          1           0        2.763301    2.014805    0.195103
     17          1           0        2.210489    1.368925   -1.345948
     18          1           0        4.595464    1.184354   -2.129850
     19          1           0        5.151417    1.833904   -0.580043
     20          1           0        4.205437    2.852710   -1.678435
     21          6           0       -2.900716    0.897636    0.103903
     22          6           0       -2.020262    2.112004    0.400710
     23          6           0       -2.774834    3.225885    1.127129
     24          1           0       -3.760546    1.215345   -0.501655
     25          1           0       -3.309108    0.510157    1.047551
     26          1           0       -1.612541    2.496239   -0.543083
     27          1           0       -1.162327    1.791334    1.005470
     28          1           0       -3.168076    2.864925    2.082991
     29          1           0       -3.620849    3.573835    0.525638
     30          1           0       -2.126581    4.084211    1.329374
     31          6           0       -2.160554   -0.224375   -0.622029
     32          6           0       -3.041009   -1.438743   -0.918835
     33          6           0       -2.286436   -2.552624   -1.645255
     34          1           0       -1.752161    0.163105   -1.565676
     35          1           0       -1.300724   -0.542083   -0.016471
     36          1           0       -3.898943   -1.118073   -1.523595
     37          1           0       -3.448729   -1.822978    0.024957
     38          1           0       -1.440422   -2.900574   -1.043764
     39          1           0       -1.893195   -2.191663   -2.601116
     40          1           0       -2.934689   -3.410950   -1.847500
 ---------------------------------------------------------------------

 SCF Done:  E(RHF) =  -470.732643398     A.U. after   11 cycles
 E2 =    -0.1584576503D+01 EUMP2 =    -0.47231721990125D+03

 The electronic state is 1-A.
 Alpha  occ. eigenvalues --  -11.21637 -11.21607 -11.21585 -11.21560 -11.21394
 Alpha  occ. eigenvalues --  -11.21368 -11.21333 -11.21304 -11.21145 -11.21117
 Alpha  occ. eigenvalues --  -11.21062 -11.21048  -1.08471  -1.08388  -1.03568
 Alpha  occ. eigenvalues --   -1.03512  -0.96015  -0.95968  -0.87032  -0.86987
 Alpha  occ. eigenvalues --   -0.79664  -0.79547  -0.78466  -0.78030  -0.65210
 Alpha  occ. eigenvalues --   -0.64936  -0.61102  -0.60790  -0.59405  -0.59309
 Alpha  occ. eigenvalues --   -0.57657  -0.57552  -0.55415  -0.55161  -0.52706
 Alpha  occ. eigenvalues --   -0.52667  -0.52488  -0.52355  -0.50045  -0.49831
 Alpha  occ. eigenvalues --   -0.48113  -0.47827  -0.46886  -0.46504  -0.46310
 Alpha  occ. eigenvalues --   -0.45761  -0.45684  -0.44907  -0.43797  -0.43767
 Alpha virt. eigenvalues --    0.20387   0.22943   0.23378   0.24425   0.25650
 Alpha virt. eigenvalues --    0.26441   0.26713   0.27512   0.28189   0.30180
 Alpha virt. eigenvalues --    0.30394   0.31479   0.31781   0.31831   0.32158

 Mulliken charges:
               1
     1  C   -0.305671
     2  C   -0.299334
     3  C   -0.483609
     4  H    0.149027
     5  H    0.157489
     6  H    0.152153
     7  H    0.152098
     8  H    0.161316
     9  H    0.154973
    10  H    0.161042
    11  C   -0.297780
    12  C   -0.299671
    13  C   -0.475742
    14  H    0.149329
    15  H    0.149680
    16  H    0.151965
    17  H    0.152417
    18  H    0.155133
    19  H    0.155110
    20  H    0.160208
    21  C   -0.297385
    22  C   -0.300871
    23  C   -0.475724
    24  H    0.149359
    25  H    0.149459
    26  H    0.151715
    27  H    0.153672
    28  H    0.155035
    29  H    0.155081
    30  H    0.160100
    31  C   -0.309459
    32  C   -0.298764
    33  C   -0.480539
    34  H    0.148117
    35  H    0.161774
    36  H    0.152102
    37  H    0.152169
    38  H    0.157953
    39  H    0.155094
    40  H    0.160980
 Sum of Mulliken charges =  -0.00000

 Dipole moment (field-independent basis, Debye):
    X=              0.0090    Y=             -0.0076    Z=              0.0016  Tot=              0.0119
 Quadrupole moment (field-independent basis, Debye-Ang):
   XX=            -85.5922   YY=            -85.5559   ZZ=            -83.7295
   XY=             -0.0308   XZ=              1.1438   YZ=             -0.2441

 Normal termination of Gaussian 16 at Wed May  5 21:37:20 2021.
