 Gaussian 16, Revision A.03,
 Gaussian 16:  EM64L-G16RevA.03 25-Dec-2016

 -------------
 #p 6-31g* mp2
 -------------

 ------------------------------------------------------
 Input file generated by CHIRIPA (05-May-2021 14:53:18)
 ------------------------------------------------------
 Symbolic Z-matrix:
 Charge =  0 Multiplicity = 1

                         Standard orientation:
 ---------------------------------------------------------------------
 Center     Atomic      Atomic             Coordinates (Angstroms)
 Number     Number       Type             X           Y           Z
 ---------------------------------------------------------------------
      1          6           0       -2.433303   -0.478886    0.200582
      2          6           0       -2.856695   -1.441466   -0.909446
      3          6           0       -2.989687   -2.884456   -0.421709
      4          1           0       -1.476176   -0.814408    0.622812
      5          1           0       -3.168070   -0.524948    1.016297
      6          1           0       -2.122082   -1.392579   -1.723430
      7          1           0       -3.812830   -1.103506   -1.329213
      8          1           0       -3.737078   -2.954398    0.375233
      9          1           0       -2.036723   -3.245114   -0.021225
     10          1           0       -3.293184   -3.555518   -1.231292
     11          6           0       -2.296085    0.967497   -0.271515
     12          6           0       -1.872692    1.930077    0.838513
     13          6           0       -1.739701    3.373067    0.350776
     14          1           0       -1.561317    1.013559   -1.087230
     15          1           0       -3.253211    1.303019   -0.693745
     16          1           0       -0.916557    1.592116    1.258280
     17          1           0       -2.607305    1.881190    1.652497
     18          1           0       -2.692664    3.733725   -0.049708
     19          1           0       -0.992310    3.443009   -0.446166
     20          1           0       -1.436203    4.044129    1.160359
     21          6           0        1.626011   -1.004249    2.405797
     22          6           0        1.766282   -1.924213    1.361521
     23          6           0        1.889741   -1.484880    0.040047
     24          6           0        1.868822   -0.112228   -0.202197
     25          6           0        1.730490    0.829081    0.816671
     26          6           0        1.608593    0.367044    2.130525
     27          1           0        1.530712   -1.354351    3.429390
     28          1           0        1.780138   -2.989768    1.572339
     29          1           0        1.999591   -2.175266   -0.787431
     30          1           0        1.720152    1.885043    0.575314
     31          1           0        1.499788    1.083786    2.939529
     32          7           0        1.998695    0.364891   -1.597148
     33          8           0        1.977332    1.579462   -1.784221
     34          8           0        2.119395   -0.484748   -2.477023
 ---------------------------------------------------------------------

 SCF Done:  E(RHF) =  -669.535140908     A.U. after   15 cycles
 E2 =    -0.2095300876D+01 EUMP2 =    -0.67163044178403D+03

 The electronic state is 1-A.
 Alpha  occ. eigenvalues --  -20.60944 -20.60939 -15.85992 -11.31355 -11.27942
 Alpha  occ. eigenvalues --  -11.27921 -11.27673 -11.26950 -11.26920 -11.21518
 Alpha  occ. eigenvalues --  -11.21511 -11.21302 -11.21228 -11.21145 -11.20981
 Alpha  occ. eigenvalues --   -1.60014  -1.39567  -1.19552  -1.08931  -1.08358
 Alpha  occ. eigenvalues --   -1.04961  -1.03490  -0.95945  -0.95764  -0.86958
 Alpha  occ. eigenvalues --   -0.86336  -0.82601  -0.79558  -0.78170  -0.77640
 Alpha  occ. eigenvalues --   -0.72206  -0.71344  -0.70640  -0.65203  -0.65045
 Alpha  occ. eigenvalues --   -0.64907  -0.62311  -0.60889  -0.59317  -0.57556
 Alpha  occ. eigenvalues --   -0.55438  -0.55231  -0.53331  -0.53021  -0.52633
 Alpha  occ. eigenvalues --   -0.52365  -0.49888  -0.48965  -0.48963  -0.47887
 Alpha  occ. eigenvalues --   -0.46615  -0.45684  -0.45579  -0.44953  -0.43730
 Alpha  occ. eigenvalues --   -0.37514  -0.36429
 Alpha virt. eigenvalues --    0.04861   0.11045   0.16263   0.20850   0.22812
 Alpha virt. eigenvalues --    0.23921   0.26516   0.27113   0.27395   0.27745
 Alpha virt. eigenvalues --    0.28855   0.30555   0.31463   0.31656   0.32079

 Mulliken charges:
               1
     1  C   -0.302679
     2  C   -0.300542
     3  C   -0.474649
     4  H    0.152021
     5  H    0.146505
     6  H    0.156404
     7  H    0.152777
     8  H    0.153900
     9  H    0.149820
    10  H    0.161396
    11  C   -0.299410
    12  C   -0.305938
    13  C   -0.480547
    14  H    0.154289
    15  H    0.150616
    16  H    0.151288
    17  H    0.148789
    18  H    0.157050
    19  H    0.164897
    20  H    0.154671
    21  C   -0.170402
    22  C   -0.218950
    23  C   -0.172029
    24  C    0.159894
    25  C   -0.172120
    26  C   -0.217335
    27  H    0.227027
    28  H    0.224689
    29  H    0.276485
    30  H    0.278593
    31  H    0.225544
    32  N    0.488047
    33  O   -0.460583
    34  O   -0.459520
 Sum of Mulliken charges =  -0.00000

 Dipole moment (field-independent basis, Debye):
    X=             -0.3044    Y=             -1.7010    Z=              4.8402  Tot=              5.1394
 Quadrupole moment (field-independent basis, Debye-Ang):
   XX=            -96.3871   YY=            -91.3189   ZZ=            -96.6751
   XY=             -3.8434   XZ=              9.4320   YZ=              1.5118

 Normal termination of Gaussian 16 at Thu May  6 01:16:27 2021.
