 Gaussian 16, Revision A.03,
 Gaussian 16:  EM64L-G16RevA.03 25-Dec-2016

 -------------
 #p 6-31g* mp2
 -------------

 ------------------------------------------------------
 Input file generated by CHIRIPA (05-May-2021 14:51:07)
 ------------------------------------------------------
 Symbolic Z-matrix:
 Charge =  0 Multiplicity = 1

                         Standard orientation:
 ---------------------------------------------------------------------
 Center     Atomic      Atomic             Coordinates (Angstroms)
 Number     Number       Type             X           Y           Z
 ---------------------------------------------------------------------
      1          6           0       -3.356970    0.794208   -0.507532
      2          6           0       -3.717705    1.835577    0.552377
      3          6           0       -3.799307    3.252970   -0.015189
      4          1           0       -2.394987    1.063620   -0.964643
      5          1           0       -4.104927    0.825594   -1.311877
      6          1           0       -2.970055    1.801281    1.355159
      7          1           0       -4.678848    1.563550    1.007152
      8          1           0       -4.558502    3.309784   -0.801952
      9          1           0       -2.840000    3.548866   -0.451968
     10          1           0       -4.058417    3.981346    0.759531
     11          6           0       -3.271593   -0.627640    0.044544
     12          6           0       -2.910858   -1.669009   -1.015364
     13          6           0       -2.829255   -3.086402   -0.447798
     14          1           0       -2.523636   -0.659026    0.848889
     15          1           0       -4.233576   -0.897052    0.501656
     16          1           0       -1.949715   -1.396982   -1.470139
     17          1           0       -3.658508   -1.634713   -1.818146
     18          1           0       -3.788563   -3.382299   -0.011020
     19          1           0       -2.070060   -3.143217    0.338965
     20          1           0       -2.570145   -3.814778   -1.222519
     21          6           0        2.552127   -0.032830    0.228890
     22          6           0        1.873909   -1.050776    1.146381
     23          6           0        0.349222   -0.937346    1.130355
     24          1           0        2.255176    0.980260    0.532886
     25          1           0        2.183940   -0.171860   -0.797027
     26          1           0        2.244299   -0.910777    2.170015
     27          1           0        2.172662   -2.061553    0.840286
     28          1           0       -0.038451   -1.098367    0.119226
     29          1           0        0.033593    0.058949    1.456510
     30          1           0       -0.115162   -1.674228    1.793086
     31          6           0        4.076436   -0.133738    0.234097
     32          6           0        4.754653    0.884209   -0.683393
     33          6           0        6.279340    0.770778   -0.667367
     34          1           0        4.444623    0.005293    1.260014
     35          1           0        4.373388   -1.146827   -0.069898
     36          1           0        4.455902    1.894986   -0.377298
     37          1           0        4.384264    0.744208   -1.707028
     38          1           0        6.594970   -0.225516   -0.993523
     39          1           0        6.667014    0.931798    0.343762
     40          1           0        6.743725    1.507659   -1.330099
 ---------------------------------------------------------------------

 SCF Done:  E(RHF) =  -470.732507341     A.U. after   11 cycles
 E2 =    -0.1584029589D+01 EUMP2 =    -0.47231653692981D+03

 The electronic state is 1-A.
 Alpha  occ. eigenvalues --  -11.21676 -11.21641 -11.21547 -11.21525 -11.21470
 Alpha  occ. eigenvalues --  -11.21406 -11.21293 -11.21188 -11.21183 -11.21101
 Alpha  occ. eigenvalues --  -11.21032 -11.20985  -1.08501  -1.08333  -1.03619
 Alpha  occ. eigenvalues --   -1.03447  -0.96064  -0.95899  -0.87106  -0.86906
 Alpha  occ. eigenvalues --   -0.79693  -0.79519  -0.78316  -0.78135  -0.65165
 Alpha  occ. eigenvalues --   -0.64960  -0.61168  -0.60731  -0.59452  -0.59244
 Alpha  occ. eigenvalues --   -0.57677  -0.57503  -0.55418  -0.55108  -0.52778
 Alpha  occ. eigenvalues --   -0.52604  -0.52501  -0.52311  -0.50004  -0.49836
 Alpha  occ. eigenvalues --   -0.47993  -0.47822  -0.46715  -0.46537  -0.45931
 Alpha  occ. eigenvalues --   -0.45787  -0.45621  -0.45542  -0.43803  -0.43697
 Alpha virt. eigenvalues --    0.20763   0.22986   0.23745   0.24731   0.25602
 Alpha virt. eigenvalues --    0.26236   0.26907   0.27605   0.28019   0.29590
 Alpha virt. eigenvalues --    0.30074   0.30575   0.31791   0.32159   0.32385

 Mulliken charges:
               1
     1  C   -0.298099
     2  C   -0.299833
     3  C   -0.475652
     4  H    0.149482
     5  H    0.148984
     6  H    0.151593
     7  H    0.151852
     8  H    0.155140
     9  H    0.155022
    10  H    0.159920
    11  C   -0.305600
    12  C   -0.300828
    13  C   -0.478424
    14  H    0.161398
    15  H    0.148763
    16  H    0.150974
    17  H    0.152079
    18  H    0.154928
    19  H    0.158147
    20  H    0.159370
    21  C   -0.298604
    22  C   -0.300792
    23  C   -0.482393
    24  H    0.149605
    25  H    0.149348
    26  H    0.152198
    27  H    0.152478
    28  H    0.161891
    29  H    0.155164
    30  H    0.161199
    31  C   -0.298359
    32  C   -0.299693
    33  C   -0.475750
    34  H    0.149714
    35  H    0.149869
    36  H    0.151980
    37  H    0.151997
    38  H    0.155273
    39  H    0.155254
    40  H    0.160408
 Sum of Mulliken charges =  -0.00000

 Dipole moment (field-independent basis, Debye):
    X=              0.0542    Y=             -0.0063    Z=              0.0300  Tot=              0.0622
 Quadrupole moment (field-independent basis, Debye-Ang):
   XX=            -85.1796   YY=            -85.5804   ZZ=            -84.2488
   XY=              0.2060   XZ=              0.2363   YZ=              0.7911

 Normal termination of Gaussian 16 at Wed May  5 16:33:19 2021.
