 Gaussian 16, Revision A.03,
 Gaussian 16:  EM64L-G16RevA.03 25-Dec-2016

 -------------
 #p 6-31g* mp2
 -------------

 ------------------------------------------------------
 Input file generated by CHIRIPA (05-May-2021 14:53:11)
 ------------------------------------------------------
 Symbolic Z-matrix:
 Charge =  0 Multiplicity = 1

                         Standard orientation:
 ---------------------------------------------------------------------
 Center     Atomic      Atomic             Coordinates (Angstroms)
 Number     Number       Type             X           Y           Z
 ---------------------------------------------------------------------
      1          6           0        2.614870    0.008781    0.124725
      2          6           0        4.042513   -0.403956    0.484542
      3          6           0        4.122349   -1.820101    1.055464
      4          1           0        1.982431   -0.063303    1.020142
      5          1           0        2.206983   -0.705014   -0.604329
      6          1           0        4.448076    0.311194    1.211656
      7          1           0        4.671669   -0.330697   -0.411791
      8          1           0        3.743102   -2.549072    0.332018
      9          1           0        3.518239   -1.903534    1.964689
     10          1           0        5.151839   -2.094600    1.305786
     11          6           0        2.518773    1.422035   -0.447293
     12          6           0        1.091129    1.834772   -0.807110
     13          6           0        1.011294    3.250917   -1.378032
     14          1           0        2.926660    2.135830    0.281761
     15          1           0        3.151212    1.494119   -1.342710
     16          1           0        0.461974    1.761514    0.089223
     17          1           0        0.685567    1.119622   -1.534224
     18          1           0        1.615404    3.334350   -2.287257
     19          1           0        1.390541    3.979888   -0.654586
     20          1           0       -0.018196    3.525416   -1.628354
     21          6           0       -3.053351    1.244423    1.545705
     22          6           0       -1.824056    0.688638    1.915107
     23          6           0       -1.234063   -0.311114    1.136035
     24          6           0       -1.904010   -0.733252   -0.011248
     25          6           0       -3.129729   -0.199074   -0.405658
     26          6           0       -3.701121    0.799578    0.388542
     27          1           0       -3.504447    2.020627    2.156783
     28          1           0       -1.318717    1.032162    2.813255
     29          1           0       -0.283215   -0.758647    1.398750
     30          1           0       -3.609542   -0.562051   -1.306459
     31          1           0       -4.655895    1.229399    0.099221
     32          7           0       -1.289257   -1.791062   -0.844025
     33          8           0       -1.899687   -2.145629   -1.850153
     34          8           0       -0.208622   -2.245577   -0.474857
 ---------------------------------------------------------------------

 SCF Done:  E(RHF) =  -669.534318150     A.U. after   15 cycles
 E2 =    -0.2095161921D+01 EUMP2 =    -0.67162948007120D+03

 The electronic state is 1-A.
 Alpha  occ. eigenvalues --  -20.60875 -20.60863 -15.85900 -11.31194 -11.27809
 Alpha  occ. eigenvalues --  -11.27758 -11.27554 -11.26793 -11.26783 -11.21412
 Alpha  occ. eigenvalues --  -11.21232 -11.21152 -11.21024 -11.20945 -11.20593
 Alpha  occ. eigenvalues --   -1.59935  -1.39491  -1.19403  -1.08803  -1.08158
 Alpha  occ. eigenvalues --   -1.04809  -1.03262  -0.95721  -0.95636  -0.86725
 Alpha  occ. eigenvalues --   -0.86203  -0.82488  -0.79351  -0.78099  -0.77415
 Alpha  occ. eigenvalues --   -0.72127  -0.71245  -0.70526  -0.65084  -0.64897
 Alpha  occ. eigenvalues --   -0.64695  -0.62156  -0.60676  -0.59102  -0.57320
 Alpha  occ. eigenvalues --   -0.55326  -0.54986  -0.53209  -0.52917  -0.52394
 Alpha  occ. eigenvalues --   -0.52096  -0.49650  -0.48900  -0.48885  -0.47637
 Alpha  occ. eigenvalues --   -0.46392  -0.45654  -0.45475  -0.44595  -0.43506
 Alpha  occ. eigenvalues --   -0.37367  -0.36297
 Alpha virt. eigenvalues --    0.04949   0.11202   0.16352   0.20820   0.23245
 Alpha virt. eigenvalues --    0.24341   0.25716   0.27271   0.27778   0.28209
 Alpha virt. eigenvalues --    0.29648   0.30724   0.31603   0.31886   0.32143

 Mulliken charges:
               1
     1  C   -0.304202
     2  C   -0.299339
     3  C   -0.475400
     4  H    0.133703
     5  H    0.174225
     6  H    0.147162
     7  H    0.152614
     8  H    0.165223
     9  H    0.150280
    10  H    0.157762
    11  C   -0.297562
    12  C   -0.304552
    13  C   -0.474718
    14  H    0.145053
    15  H    0.150948
    16  H    0.151560
    17  H    0.153330
    18  H    0.156554
    19  H    0.152435
    20  H    0.157943
    21  C   -0.169791
    22  C   -0.221339
    23  C   -0.171264
    24  C    0.159878
    25  C   -0.170590
    26  C   -0.219157
    27  H    0.225918
    28  H    0.223393
    29  H    0.283033
    30  H    0.275626
    31  H    0.223513
    32  N    0.487727
    33  O   -0.460113
    34  O   -0.459856
 Sum of Mulliken charges =  -0.00000

 Dipole moment (field-independent basis, Debye):
    X=             -2.2458    Y=              3.5344    Z=              2.8061  Tot=              5.0408
 Quadrupole moment (field-independent basis, Debye-Ang):
   XX=            -83.9794   YY=           -102.0484   ZZ=            -92.6657
   XY=             -6.0789   XZ=             -3.5020   YZ=             -1.4000

 Normal termination of Gaussian 16 at Wed May  5 21:41:35 2021.
