 Gaussian 16, Revision A.03,
 Gaussian 16:  EM64L-G16RevA.03 25-Dec-2016

 -------------
 #p 6-31g* mp2
 -------------

 ------------------------------------------------------
 Input file generated by CHIRIPA (05-May-2021 14:57:24)
 ------------------------------------------------------
 Symbolic Z-matrix:
 Charge =  0 Multiplicity = 1

                         Standard orientation:
 ---------------------------------------------------------------------
 Center     Atomic      Atomic             Coordinates (Angstroms)
 Number     Number       Type             X           Y           Z
 ---------------------------------------------------------------------
      1          6           0       -1.379398   -0.458440    1.521924
      2          6           0       -1.477397    0.664358    0.693527
      3          6           0       -2.674263    0.957011    0.032912
      4          6           0       -3.758185    0.101551    0.224205
      5          6           0       -3.691829   -1.024696    1.043018
      6          6           0       -2.484978   -1.297904    1.693722
      7          1           0       -0.445765   -0.678227    2.031256
      8          1           0       -0.620416    1.318062    0.558245
      9          1           0       -2.777734    1.819560   -0.614175
     10          1           0       -4.563257   -1.657744    1.158260
     11          1           0       -2.411764   -2.170585    2.336461
     12          7           0       -5.030539    0.401076   -0.469913
     13          8           0       -5.970998   -0.368285   -0.284824
     14          8           0       -5.063259    1.399534   -1.185908
     15          6           0        5.446767    0.996272    0.951043
     16          6           0        5.481334   -0.366746    0.638782
     17          6           0        4.435086   -0.958306   -0.075341
     18          6           0        3.364966   -0.153546   -0.463282
     19          6           0        3.301515    1.207214   -0.167318
     20          6           0        4.358886    1.777525    0.547708
     21          1           0        6.263838    1.447556    1.506142
     22          1           0        6.324924   -0.975918    0.950731
     23          1           0        4.436247   -2.011080   -0.330451
     24          1           0        2.447169    1.788760   -0.491841
     25          1           0        4.329357    2.836317    0.788813
     26          7           0        2.251463   -0.768555   -1.219770
     27          8           0        1.320012   -0.037859   -1.550100
     28          8           0        2.331235   -1.969651   -1.468051
 ---------------------------------------------------------------------

 SCF Done:  E(RHF) =  -868.337902845     A.U. after   16 cycles
 E2 =    -0.2599726792D+01 EUMP2 =    -0.87093762963708D+03

 The electronic state is 1-A.
 Alpha  occ. eigenvalues --  -20.61600 -20.61586 -20.60132 -20.60126 -15.86631
 Alpha  occ. eigenvalues --  -15.85181 -11.32001 -11.30442 -11.28596 -11.28516
 Alpha  occ. eigenvalues --  -11.28241 -11.27557 -11.27517 -11.27006 -11.26960
 Alpha  occ. eigenvalues --  -11.26751 -11.26044 -11.25985  -1.60661  -1.59207
 Alpha  occ. eigenvalues --   -1.40217  -1.38764  -1.20156  -1.18596  -1.09541
 Alpha  occ. eigenvalues --   -1.08024  -1.05552  -1.03986  -0.96380  -0.94881
 Alpha  occ. eigenvalues --   -0.86947  -0.85405  -0.83209  -0.81717  -0.78275
 Alpha  occ. eigenvalues --   -0.76770  -0.72843  -0.71996  -0.71407  -0.71242
 Alpha  occ. eigenvalues --   -0.70523  -0.69753  -0.65800  -0.65537  -0.64267
 Alpha  occ. eigenvalues --   -0.64014  -0.62900  -0.61353  -0.56020  -0.54546
 Alpha  occ. eigenvalues --   -0.53887  -0.53633  -0.52301  -0.52107  -0.49611
 Alpha  occ. eigenvalues --   -0.49590  -0.48164  -0.48156  -0.45610  -0.44193
 Alpha  occ. eigenvalues --   -0.38124  -0.37161  -0.36563  -0.35540
 Alpha virt. eigenvalues --    0.04227   0.05764   0.10463   0.12093   0.15756
 Alpha virt. eigenvalues --    0.17295   0.20260   0.21941   0.25626   0.27040
 Alpha virt. eigenvalues --    0.28485   0.28876   0.30148   0.30968   0.32628

 Mulliken charges:
               1
     1  C   -0.169671
     2  C   -0.203911
     3  C   -0.170116
     4  C    0.158713
     5  C   -0.171629
     6  C   -0.217290
     7  H    0.220032
     8  H    0.219752
     9  H    0.274000
    10  H    0.273367
    11  H    0.220715
    12  N    0.488264
    13  O   -0.462407
    14  O   -0.461549
    15  C   -0.170685
    16  C   -0.218153
    17  C   -0.171427
    18  C    0.157342
    19  C   -0.175395
    20  C   -0.218024
    21  H    0.228282
    22  H    0.226075
    23  H    0.277312
    24  H    0.272081
    25  H    0.225345
    26  N    0.487504
    27  O   -0.462220
    28  O   -0.456308
 Sum of Mulliken charges =  -0.00000

 Dipole moment (field-independent basis, Debye):
    X=              8.7366    Y=              1.0677    Z=              5.0362  Tot=             10.1406
 Quadrupole moment (field-independent basis, Debye-Ang):
   XX=           -110.8597   YY=            -98.8282   ZZ=           -106.9430
   XY=             10.7297   XZ=             -1.4920   YZ=             -3.4186

 Normal termination of Gaussian 16 at Wed May  5 19:29:27 2021.
