 Gaussian 16, Revision A.03,
 Gaussian 16:  EM64L-G16RevA.03 25-Dec-2016

 -------------
 #p 6-31g* mp2
 -------------

 ------------------------------------------------------
 Input file generated by CHIRIPA (05-May-2021 14:55:20)
 ------------------------------------------------------
 Symbolic Z-matrix:
 Charge =  0 Multiplicity = 1

                         Standard orientation:
 ---------------------------------------------------------------------
 Center     Atomic      Atomic             Coordinates (Angstroms)
 Number     Number       Type             X           Y           Z
 ---------------------------------------------------------------------
      1          6           0       -3.955521   -2.348340    0.604042
      2          6           0       -4.718367   -1.444236   -0.142405
      3          6           0       -4.188816   -0.204364   -0.512323
      4          6           0       -2.887141    0.100101   -0.117058
      5          6           0       -2.102089   -0.779393    0.626899
      6          6           0       -2.652115   -2.013623    0.985639
      7          1           0       -4.374842   -3.309312    0.887061
      8          1           0       -5.730893   -1.701498   -0.440153
      9          1           0       -4.757316    0.514346   -1.089974
     10          1           0       -1.095733   -0.494658    0.909022
     11          1           0       -2.057366   -2.713793    1.565364
     12          7           0       -2.315691    1.409712   -0.502757
     13          8           0       -1.166398    1.654068   -0.142128
     14          8           0       -3.027902    2.167033   -1.158393
     15          6           0        3.669704    0.715460    0.558524
     16          6           0        2.522456    1.622048    0.111415
     17          6           0        2.241563    2.752236    1.102157
     18          1           0        3.430684    0.290868    1.543174
     19          1           0        4.576467    1.321713    0.691316
     20          1           0        1.618471    1.014040   -0.021829
     21          1           0        2.764148    2.044381   -0.872370
     22          1           0        3.127454    3.383022    1.228277
     23          1           0        1.975267    2.346828    2.083652
     24          1           0        1.417867    3.388061    0.762876
     25          6           0        3.962483   -0.419171   -0.421588
     26          6           0        5.109731   -1.325757    0.025520
     27          6           0        5.390624   -2.455945   -0.965221
     28          1           0        3.055721   -1.025423   -0.554380
     29          1           0        4.201503    0.005422   -1.406239
     30          1           0        4.868038   -1.748090    1.009306
     31          1           0        6.013716   -0.717750    0.158764
     32          1           0        5.656921   -2.050538   -1.946716
     33          1           0        4.504733   -3.086732   -1.091342
     34          1           0        6.214319   -3.091772   -0.625941
 ---------------------------------------------------------------------

 SCF Done:  E(RHF) =  -669.535938570     A.U. after   15 cycles
 E2 =    -0.2091367611D+01 EUMP2 =    -0.67162730618108D+03

 The electronic state is 1-A.
 Alpha  occ. eigenvalues --  -20.60934 -20.60928 -15.85968 -11.31298 -11.27868
 Alpha  occ. eigenvalues --  -11.27857 -11.27599 -11.26872 -11.26862 -11.21349
 Alpha  occ. eigenvalues --  -11.20990 -11.20911 -11.20754 -11.20513 -11.19905
 Alpha  occ. eigenvalues --   -1.59996  -1.39552  -1.19467  -1.08869  -1.07879
 Alpha  occ. eigenvalues --   -1.04866  -1.02878  -0.95715  -0.95347  -0.86380
 Alpha  occ. eigenvalues --   -0.86265  -0.82547  -0.78993  -0.77697  -0.77528
 Alpha  occ. eigenvalues --   -0.72198  -0.71309  -0.70577  -0.65128  -0.64870
 Alpha  occ. eigenvalues --   -0.64524  -0.62216  -0.60285  -0.58752  -0.56898
 Alpha  occ. eigenvalues --   -0.55368  -0.54674  -0.53196  -0.52959  -0.52006
 Alpha  occ. eigenvalues --   -0.51777  -0.49351  -0.48961  -0.48937  -0.47283
 Alpha  occ. eigenvalues --   -0.46064  -0.45228  -0.45144  -0.44813  -0.43139
 Alpha  occ. eigenvalues --   -0.37445  -0.36467
 Alpha virt. eigenvalues --    0.04922   0.11185   0.16412   0.20902   0.23121
 Alpha virt. eigenvalues --    0.24527   0.26401   0.27429   0.27673   0.28572
 Alpha virt. eigenvalues --    0.28856   0.30543   0.31611   0.32136   0.32942

 Mulliken charges:
               1
     1  C   -0.170524
     2  C   -0.218565
     3  C   -0.170709
     4  C    0.157839
     5  C   -0.171077
     6  C   -0.218817
     7  H    0.226037
     8  H    0.223861
     9  H    0.275885
    10  H    0.276380
    11  H    0.223876
    12  N    0.493314
    13  O   -0.464961
    14  O   -0.459228
    15  C   -0.298147
    16  C   -0.302367
    17  C   -0.475377
    18  H    0.143947
    19  H    0.147799
    20  H    0.163399
    21  H    0.151126
    22  H    0.147880
    23  H    0.147748
    24  H    0.176525
    25  C   -0.296477
    26  C   -0.298838
    27  C   -0.475054
    28  H    0.144838
    29  H    0.150703
    30  H    0.149210
    31  H    0.152300
    32  H    0.155806
    33  H    0.152761
    34  H    0.158906
 Sum of Mulliken charges =  -0.00000

 Dipole moment (field-independent basis, Debye):
    X=             -2.2881    Y=             -4.5110    Z=              1.2789  Tot=              5.2173
 Quadrupole moment (field-independent basis, Debye-Ang):
   XX=            -80.0590   YY=            -96.3221   ZZ=            -95.0141
   XY=             13.0119   XZ=             -1.8079   YZ=             -1.0547

 Normal termination of Gaussian 16 at Wed May  5 22:09:20 2021.
