 Gaussian 16, Revision A.03,
 Gaussian 16:  EM64L-G16RevA.03 25-Dec-2016

 -------------
 #p 6-31g* mp2
 -------------

 ------------------------------------------------------
 Input file generated by CHIRIPA (05-May-2021 14:57:21)
 ------------------------------------------------------
 Symbolic Z-matrix:
 Charge =  0 Multiplicity = 1

                         Standard orientation:
 ---------------------------------------------------------------------
 Center     Atomic      Atomic             Coordinates (Angstroms)
 Number     Number       Type             X           Y           Z
 ---------------------------------------------------------------------
      1          6           0       -4.558505   -1.551871    0.697279
      2          6           0       -4.899842   -0.229519    0.394962
      3          6           0       -3.954999    0.638426   -0.160459
      4          6           0       -2.672366    0.148516   -0.401564
      5          6           0       -2.301787   -1.163626   -0.111317
      6          6           0       -3.262851   -2.013890    0.443622
      7          1           0       -5.298782   -2.219243    1.128555
      8          1           0       -5.905299    0.132028    0.590880
      9          1           0       -4.192341    1.666867   -0.404172
     10          1           0       -1.291449   -1.495197   -0.317942
     11          1           0       -2.994944   -3.040351    0.677391
     12          7           0       -1.663517    1.058011   -0.989308
     13          8           0       -0.540312    0.602054   -1.192161
     14          8           0       -2.015090    2.209609   -1.235999
     15          6           0        1.849148    1.640522    1.947879
     16          6           0        2.089073    0.318397    2.336393
     17          6           0        2.636991   -0.598422    1.434297
     18          6           0        2.934297   -0.157087    0.145840
     19          6           0        2.706871    1.153493   -0.271230
     20          6           0        2.158268    2.053123    0.647600
     21          1           0        1.423246    2.346052    2.655149
     22          1           0        1.849995   -0.004833    3.345556
     23          1           0        2.832985   -1.627866    1.708615
     24          1           0        2.955605    1.446223   -1.284077
     25          1           0        1.973014    3.079284    0.343102
     26          7           0        3.514716   -1.118582   -0.818026
     27          8           0        3.767856   -0.704876   -1.947364
     28          8           0        3.705518   -2.267705   -0.425916
 ---------------------------------------------------------------------

 SCF Done:  E(RHF) =  -868.338424322     A.U. after   16 cycles
 E2 =    -0.2600411244D+01 EUMP2 =    -0.87093883556599D+03

 The electronic state is 1-A.
 Alpha  occ. eigenvalues --  -20.61153 -20.61094 -20.60029 -20.59988 -15.86152
 Alpha  occ. eigenvalues --  -15.85057 -11.31435 -11.30230 -11.28011 -11.27965
 Alpha  occ. eigenvalues --  -11.27726 -11.27002 -11.26968 -11.26911 -11.26708
 Alpha  occ. eigenvalues --  -11.26582 -11.25926 -11.25691  -1.60195  -1.59087
 Alpha  occ. eigenvalues --   -1.39750  -1.38647  -1.19603  -1.18404  -1.09016
 Alpha  occ. eigenvalues --   -1.07860  -1.04989  -1.03790  -0.95866  -0.94721
 Alpha  occ. eigenvalues --   -0.86390  -0.85223  -0.82699  -0.81562  -0.77755
 Alpha  occ. eigenvalues --   -0.76616  -0.72402  -0.71511  -0.71292  -0.70707
 Alpha  occ. eigenvalues --   -0.70393  -0.69583  -0.65256  -0.64988  -0.64089
 Alpha  occ. eigenvalues --   -0.63836  -0.62331  -0.61164  -0.55497  -0.54371
 Alpha  occ. eigenvalues --   -0.53334  -0.53076  -0.52120  -0.51918  -0.49156
 Alpha  occ. eigenvalues --   -0.49137  -0.48054  -0.48026  -0.45155  -0.44095
 Alpha  occ. eigenvalues --   -0.37589  -0.36594  -0.36412  -0.35281
 Alpha virt. eigenvalues --    0.04745   0.05948   0.11064   0.12281   0.16270
 Alpha virt. eigenvalues --    0.17441   0.21225   0.22257   0.27142   0.28095
 Alpha virt. eigenvalues --    0.28199   0.29124   0.30773   0.31736   0.32315

 Mulliken charges:
               1
     1  C   -0.170714
     2  C   -0.218854
     3  C   -0.171585
     4  C    0.157539
     5  C   -0.170655
     6  C   -0.219287
     7  H    0.226372
     8  H    0.223663
     9  H    0.274855
    10  H    0.278236
    11  H    0.225345
    12  N    0.489416
    13  O   -0.459562
    14  O   -0.464120
    15  C   -0.173716
    16  C   -0.220421
    17  C   -0.175964
    18  C    0.158376
    19  C   -0.150581
    20  C   -0.211024
    21  H    0.221544
    22  H    0.216915
    23  H    0.269394
    24  H    0.277316
    25  H    0.225815
    26  N    0.487947
    27  O   -0.458534
    28  O   -0.467715
 Sum of Mulliken charges =  -0.00000

 Dipole moment (field-independent basis, Debye):
    X=             -5.7295    Y=              0.3394    Z=              5.2123  Tot=              7.7531
 Quadrupole moment (field-independent basis, Debye-Ang):
   XX=            -97.0744   YY=           -102.1688   ZZ=           -104.7493
   XY=             16.5559   XZ=              4.7819   YZ=             -1.5130

 Normal termination of Gaussian 16 at Wed May  5 20:58:05 2021.
