 Gaussian 16, Revision A.03,
 Gaussian 16:  EM64L-G16RevA.03 25-Dec-2016

 -------------
 #p 6-31g* mp2
 -------------

 ------------------------------------------------------
 Input file generated by CHIRIPA (05-May-2021 14:53:13)
 ------------------------------------------------------
 Symbolic Z-matrix:
 Charge =  0 Multiplicity = 1

                         Standard orientation:
 ---------------------------------------------------------------------
 Center     Atomic      Atomic             Coordinates (Angstroms)
 Number     Number       Type             X           Y           Z
 ---------------------------------------------------------------------
      1          6           0        4.577513    0.347133   -0.346181
      2          6           0        5.773739   -0.163927    0.457464
      3          6           0        7.046883    0.642710    0.200100
      4          1           0        4.822820    0.316144   -1.416605
      5          1           0        4.400801    1.402497   -0.096432
      6          1           0        5.947282   -1.218403    0.207304
      7          1           0        5.525486   -0.131898    1.526089
      8          1           0        6.897620    1.693821    0.467470
      9          1           0        7.321813    0.601142   -0.858809
     10          1           0        7.889467    0.260310    0.784636
     11          6           0        3.297318   -0.449130   -0.099618
     12          6           0        2.101091    0.061930   -0.903262
     13          6           0        0.827948   -0.744707   -0.645899
     14          1           0        3.474029   -1.504494   -0.349367
     15          1           0        3.052011   -0.418141    0.970806
     16          1           0        2.349345    0.029901   -1.971888
     17          1           0        1.927548    1.116406   -0.653102
     18          1           0        0.553018   -0.703139    0.413010
     19          1           0        0.977211   -1.795818   -0.913269
     20          1           0       -0.014636   -0.362307   -1.230435
     21          6           0       -2.738227   -2.457256    0.301662
     22          6           0       -2.140891   -1.620704    1.250288
     23          6           0       -2.321257   -0.235674    1.189382
     24          6           0       -3.108771    0.281253    0.161812
     25          6           0       -3.717105   -0.526042   -0.798133
     26          6           0       -3.523043   -1.908223   -0.717725
     27          1           0       -2.592794   -3.532073    0.356549
     28          1           0       -1.530876   -2.044307    2.043060
     29          1           0       -1.870463    0.435058    1.910714
     30          1           0       -4.319759   -0.074451   -1.576780
     31          1           0       -3.988161   -2.555478   -1.455810
     32          7           0       -3.306966    1.746013    0.087010
     33          8           0       -4.005358    2.176671   -0.828097
     34          8           0       -2.760166    2.435699    0.944903
 ---------------------------------------------------------------------

 SCF Done:  E(RHF) =  -669.534357450     A.U. after   15 cycles
 E2 =    -0.2092783608D+01 EUMP2 =    -0.67162714105821D+03

 The electronic state is 1-A.
 Alpha  occ. eigenvalues --  -20.60767 -20.60762 -15.85821 -11.31170 -11.27746
 Alpha  occ. eigenvalues --  -11.27725 -11.27478 -11.26761 -11.26732 -11.21685
 Alpha  occ. eigenvalues --  -11.21632 -11.21516 -11.21428 -11.21170 -11.21119
 Alpha  occ. eigenvalues --   -1.59844  -1.39397  -1.19351  -1.08745  -1.08516
 Alpha  occ. eigenvalues --   -1.04764  -1.03606  -0.96071  -0.95581  -0.87091
 Alpha  occ. eigenvalues --   -0.86152  -0.82421  -0.79677  -0.78335  -0.77467
 Alpha  occ. eigenvalues --   -0.72040  -0.71168  -0.70459  -0.65154  -0.65002
 Alpha  occ. eigenvalues --   -0.64763  -0.62114  -0.61016  -0.59442  -0.57679
 Alpha  occ. eigenvalues --   -0.55422  -0.55250  -0.53454  -0.52854  -0.52541
 Alpha  occ. eigenvalues --   -0.52315  -0.50002  -0.48797  -0.48795  -0.48002
 Alpha  occ. eigenvalues --   -0.46710  -0.45880  -0.45799  -0.44804  -0.43850
 Alpha  occ. eigenvalues --   -0.37317  -0.36245
 Alpha virt. eigenvalues --    0.05062   0.11271   0.16480   0.21167   0.22801
 Alpha virt. eigenvalues --    0.24169   0.26347   0.26925   0.27504   0.28187
 Alpha virt. eigenvalues --    0.28339   0.30791   0.31363   0.31729   0.32013

 Mulliken charges:
               1
     1  C   -0.298472
     2  C   -0.299561
     3  C   -0.475807
     4  H    0.150140
     5  H    0.151579
     6  H    0.150911
     7  H    0.151342
     8  H    0.156227
     9  H    0.155415
    10  H    0.160059
    11  C   -0.297795
    12  C   -0.301474
    13  C   -0.472129
    14  H    0.147491
    15  H    0.147094
    16  H    0.152076
    17  H    0.156076
    18  H    0.149333
    19  H    0.149776
    20  H    0.163392
    21  C   -0.170304
    22  C   -0.214173
    23  C   -0.168366
    24  C    0.158793
    25  C   -0.172509
    26  C   -0.218288
    27  H    0.225546
    28  H    0.223211
    29  H    0.274918
    30  H    0.275496
    31  H    0.223355
    32  N    0.487890
    33  O   -0.460561
    34  O   -0.460681
 Sum of Mulliken charges =  -0.00000

 Dipole moment (field-independent basis, Debye):
    X=              0.6628    Y=             -5.1486    Z=              0.2567  Tot=              5.1974
 Quadrupole moment (field-independent basis, Debye-Ang):
   XX=            -99.0830   YY=            -98.0830   ZZ=            -91.1016
   XY=             16.4094   XZ=              1.8348   YZ=              0.2828

 Normal termination of Gaussian 16 at Thu May  6 15:23:52 2021.
