 Gaussian 16, Revision A.03,
 Gaussian 16:  EM64L-G16RevA.03 25-Dec-2016

 -------------
 #p 6-31g* mp2
 -------------

 ------------------------------------------------------
 Input file generated by CHIRIPA (05-May-2021 14:55:20)
 ------------------------------------------------------
 Symbolic Z-matrix:
 Charge =  0 Multiplicity = 1

                         Standard orientation:
 ---------------------------------------------------------------------
 Center     Atomic      Atomic             Coordinates (Angstroms)
 Number     Number       Type             X           Y           Z
 ---------------------------------------------------------------------
      1          6           0       -4.652193   -1.849910   -0.330931
      2          6           0       -4.806575   -0.736128   -1.162903
      3          6           0       -4.055091    0.422468   -0.945018
      4          6           0       -3.154354    0.432731    0.118870
      5          6           0       -2.977906   -0.660791    0.965253
      6          6           0       -3.739959   -1.808759    0.728624
      7          1           0       -5.240069   -2.745807   -0.507470
      8          1           0       -5.514275   -0.765244   -1.986529
      9          1           0       -4.154639    1.298984   -1.573689
     10          1           0       -2.264499   -0.601812    1.778267
     11          1           0       -3.617970   -2.672241    1.376361
     12          7           0       -2.353197    1.653659    0.359457
     13          8           0       -1.566347    1.637411    1.303512
     14          8           0       -2.527270    2.603752   -0.400581
     15          6           0        4.911485   -0.508923    0.101947
     16          6           0        6.005863    0.390473   -0.473738
     17          6           0        7.410522   -0.047622   -0.058047
     18          1           0        4.986919   -0.511761    1.197961
     19          1           0        5.086171   -1.542988   -0.226062
     20          1           0        5.828380    1.422762   -0.145874
     21          1           0        5.927696    0.391321   -1.568501
     22          1           0        7.612382   -1.068266   -0.398838
     23          1           0        7.512502   -0.030965    1.031871
     24          1           0        8.177382    0.609052   -0.480618
     25          6           0        3.501683   -0.083736   -0.304745
     26          6           0        2.407307   -0.983131    0.270940
     27          6           0        1.002648   -0.545037   -0.144751
     28          1           0        3.326999    0.950329    0.023264
     29          1           0        3.426251   -0.080897   -1.400759
     30          1           0        2.485474   -0.983980    1.365703
     31          1           0        2.584789   -2.015421   -0.056924
     32          1           0        0.900666   -0.561693   -1.234670
     33          1           0        0.800787    0.475608    0.196040
     34          1           0        0.235788   -1.201711    0.277819
 ---------------------------------------------------------------------

 SCF Done:  E(RHF) =  -669.536084628     A.U. after   15 cycles
 E2 =    -0.2091673879D+01 EUMP2 =    -0.67162775850716D+03

 The electronic state is 1-A.
 Alpha  occ. eigenvalues --  -20.60851 -20.60842 -15.85874 -11.31209 -11.27776
 Alpha  occ. eigenvalues --  -11.27772 -11.27520 -11.26792 -11.26782 -11.21257
 Alpha  occ. eigenvalues --  -11.21151 -11.21014 -11.20896 -11.20790 -11.20432
 Alpha  occ. eigenvalues --   -1.59905  -1.39462  -1.19380  -1.08781  -1.08014
 Alpha  occ. eigenvalues --   -1.04783  -1.03111  -0.95637  -0.95542  -0.86579
 Alpha  occ. eigenvalues --   -0.86177  -0.82461  -0.79188  -0.77828  -0.77505
 Alpha  occ. eigenvalues --   -0.72106  -0.71214  -0.70494  -0.65040  -0.64789
 Alpha  occ. eigenvalues --   -0.64638  -0.62135  -0.60494  -0.58949  -0.57179
 Alpha  occ. eigenvalues --   -0.55289  -0.54818  -0.53131  -0.52883  -0.52245
 Alpha  occ. eigenvalues --   -0.51975  -0.49488  -0.48866  -0.48853  -0.47504
 Alpha  occ. eigenvalues --   -0.46240  -0.45391  -0.45315  -0.44720  -0.43376
 Alpha  occ. eigenvalues --   -0.37350  -0.36370
 Alpha virt. eigenvalues --    0.04990   0.11219   0.16471   0.21293   0.23289
 Alpha virt. eigenvalues --    0.24610   0.27024   0.27110   0.27846   0.27939
 Alpha virt. eigenvalues --    0.28911   0.30891   0.31600   0.31942   0.32244

 Mulliken charges:
               1
     1  C   -0.170495
     2  C   -0.218488
     3  C   -0.170848
     4  C    0.159910
     5  C   -0.169567
     6  C   -0.219415
     7  H    0.225682
     8  H    0.223503
     9  H    0.275610
    10  H    0.276227
    11  H    0.223565
    12  N    0.488360
    13  O   -0.459351
    14  O   -0.459503
    15  C   -0.298021
    16  C   -0.299605
    17  C   -0.475504
    18  H    0.149437
    19  H    0.147425
    20  H    0.153476
    21  H    0.151375
    22  H    0.153983
    23  H    0.154966
    24  H    0.159710
    25  C   -0.298956
    26  C   -0.298888
    27  C   -0.484698
    28  H    0.154590
    29  H    0.148515
    30  H    0.151548
    31  H    0.147246
    32  H    0.151168
    33  H    0.177396
    34  H    0.149646
 Sum of Mulliken charges =  -0.00000

 Dipole moment (field-independent basis, Debye):
    X=             -2.9481    Y=             -4.1550    Z=             -0.8162  Tot=              5.1596
 Quadrupole moment (field-independent basis, Debye-Ang):
   XX=            -77.9893   YY=            -97.8454   ZZ=            -91.6368
   XY=             11.9105   XZ=              4.2434   YZ=             -2.3562

 Normal termination of Gaussian 16 at Thu May  6 04:32:38 2021.
