 Gaussian 16, Revision A.03,
 Gaussian 16:  EM64L-G16RevA.03 25-Dec-2016

 -------------
 #p 6-31g* mp2
 -------------

 ------------------------------------------------------
 Input file generated by CHIRIPA (05-May-2021 14:51:09)
 ------------------------------------------------------
 Symbolic Z-matrix:
 Charge =  0 Multiplicity = 1

                         Standard orientation:
 ---------------------------------------------------------------------
 Center     Atomic      Atomic             Coordinates (Angstroms)
 Number     Number       Type             X           Y           Z
 ---------------------------------------------------------------------
      1          6           0       -3.490641   -0.326311   -0.165186
      2          6           0       -3.176134   -1.677023   -0.809117
      3          6           0       -4.122434   -2.786149   -0.348520
      4          1           0       -3.436007   -0.426595    0.927473
      5          1           0       -4.526744   -0.047422   -0.402054
      6          1           0       -2.140492   -1.952627   -0.572259
      7          1           0       -3.231336   -1.573466   -1.900376
      8          1           0       -5.158683   -2.537158   -0.599104
      9          1           0       -4.061640   -2.918474    0.736559
     10          1           0       -3.879635   -3.743001   -0.821112
     11          6           0       -2.553177    0.792567   -0.615742
     12          6           0       -2.867684    2.143279    0.028189
     13          6           0       -1.921385    3.252405   -0.432408
     14          1           0       -1.517074    0.513678   -0.378874
     15          1           0       -2.607812    0.892851   -1.708401
     16          1           0       -2.812483    2.039722    1.119448
     17          1           0       -3.903327    2.418883   -0.208669
     18          1           0       -1.982178    3.384730   -1.517487
     19          1           0       -0.885136    3.003414   -0.181824
     20          1           0       -2.164184    4.209257    0.040184
     21          6           0        2.263370   -0.258236    0.476600
     22          6           0        1.816621   -0.195939    1.937600
     23          6           0        0.296481   -0.247161    2.093637
     24          1           0        1.808398    0.575713   -0.075193
     25          1           0        1.878044   -1.181243    0.021654
     26          1           0        2.203838    0.726004    2.390039
     27          1           0        2.272862   -1.030022    2.486021
     28          1           0       -0.103484   -1.173151    1.667995
     29          1           0       -0.172900    0.592851    1.571466
     30          1           0       -0.000848   -0.201331    3.145945
     31          6           0        3.780449   -0.208021    0.304328
     32          6           0        4.227198   -0.270317   -1.156672
     33          6           0        5.747337   -0.219094   -1.312709
     34          1           0        4.165774    0.714987    0.759274
     35          1           0        4.235421   -1.041969    0.856121
     36          1           0        3.770956    0.563765   -1.705094
     37          1           0        3.839981   -1.192259   -1.609111
     38          1           0        6.216719   -1.059106   -0.790538
     39          1           0        6.147303    0.706896   -0.887067
     40          1           0        6.044667   -0.264926   -2.365017
 ---------------------------------------------------------------------

 SCF Done:  E(RHF) =  -470.733101032     A.U. after   11 cycles
 E2 =    -0.1583629184D+01 EUMP2 =    -0.47231673021621D+03

 The electronic state is 1-A.
 Alpha  occ. eigenvalues --  -11.21683 -11.21626 -11.21567 -11.21555 -11.21469
 Alpha  occ. eigenvalues --  -11.21403 -11.21315 -11.21241 -11.21171 -11.21094
 Alpha  occ. eigenvalues --  -11.21089 -11.21037  -1.08494  -1.08368  -1.03595
 Alpha  occ. eigenvalues --   -1.03496  -0.96053  -0.95936  -0.87071  -0.86955
 Alpha  occ. eigenvalues --   -0.79668  -0.79551  -0.78329  -0.78151  -0.65166
 Alpha  occ. eigenvalues --   -0.64989  -0.61112  -0.60789  -0.59414  -0.59309
 Alpha  occ. eigenvalues --   -0.57669  -0.57539  -0.55346  -0.55223  -0.52734
 Alpha  occ. eigenvalues --   -0.52648  -0.52495  -0.52345  -0.50082  -0.49799
 Alpha  occ. eigenvalues --   -0.48040  -0.47859  -0.46747  -0.46536  -0.46020
 Alpha  occ. eigenvalues --   -0.45764  -0.45692  -0.45365  -0.43843  -0.43736
 Alpha virt. eigenvalues --    0.19912   0.22779   0.23194   0.24405   0.26148
 Alpha virt. eigenvalues --    0.26482   0.26901   0.27646   0.28281   0.29558
 Alpha virt. eigenvalues --    0.30316   0.31450   0.31631   0.31819   0.32356

 Mulliken charges:
               1
     1  C   -0.298157
     2  C   -0.300780
     3  C   -0.475721
     4  H    0.150784
     5  H    0.149099
     6  H    0.152521
     7  H    0.151784
     8  H    0.155142
     9  H    0.155225
    10  H    0.159879
    11  C   -0.303646
    12  C   -0.300877
    13  C   -0.476448
    14  H    0.155833
    15  H    0.149060
    16  H    0.152666
    17  H    0.152156
    18  H    0.155545
    19  H    0.153925
    20  H    0.160428
    21  C   -0.299392
    22  C   -0.299754
    23  C   -0.482615
    24  H    0.149921
    25  H    0.149630
    26  H    0.152305
    27  H    0.152361
    28  H    0.156114
    29  H    0.161319
    30  H    0.160707
    31  C   -0.298305
    32  C   -0.299777
    33  C   -0.475769
    34  H    0.149729
    35  H    0.149881
    36  H    0.152284
    37  H    0.152077
    38  H    0.155182
    39  H    0.155254
    40  H    0.160428
 Sum of Mulliken charges =  -0.00000

 Dipole moment (field-independent basis, Debye):
    X=              0.0356    Y=             -0.0055    Z=              0.0184  Tot=              0.0404
 Quadrupole moment (field-independent basis, Debye-Ang):
   XX=            -85.9108   YY=            -84.5673   ZZ=            -84.3084
   XY=             -0.7779   XZ=              0.8986   YZ=             -0.0115

 Normal termination of Gaussian 16 at Wed May  5 19:43:42 2021.
