 Gaussian 16, Revision A.03,
 Gaussian 16:  EM64L-G16RevA.03 25-Dec-2016

 -------------
 #p 6-31g* mp2
 -------------

 ------------------------------------------------------
 Input file generated by CHIRIPA (05-May-2021 14:55:23)
 ------------------------------------------------------
 Symbolic Z-matrix:
 Charge =  0 Multiplicity = 1

                         Standard orientation:
 ---------------------------------------------------------------------
 Center     Atomic      Atomic             Coordinates (Angstroms)
 Number     Number       Type             X           Y           Z
 ---------------------------------------------------------------------
      1          6           0        2.415305    2.018670    1.395806
      2          6           0        3.680937    1.423440    1.415770
      3          6           0        3.932441    0.264875    0.674810
      4          6           0        2.890633   -0.274128   -0.078450
      5          6           0        1.618977    0.295565   -0.118824
      6          6           0        1.390172    1.453828    0.629923
      7          1           0        2.228747    2.918554    1.974426
      8          1           0        4.478959    1.859905    2.009658
      9          1           0        4.902831   -0.216535    0.672192
     10          1           0        0.843391   -0.162683   -0.720400
     11          1           0        0.406278    1.913932    0.612523
     12          7           0        3.144874   -1.500490   -0.866992
     13          8           0        2.210220   -1.955801   -1.522545
     14          8           0        4.273989   -1.983179   -0.814568
     15          6           0       -3.599198   -0.412647    0.505348
     16          6           0       -4.495591   -1.635768    0.309286
     17          6           0       -4.390178   -2.636555    1.460420
     18          1           0       -2.556860   -0.743112    0.611505
     19          1           0       -3.867706    0.082609    1.448757
     20          1           0       -4.226401   -2.127776   -0.634153
     21          1           0       -5.535893   -1.302339    0.203392
     22          1           0       -4.678702   -2.167263    2.406528
     23          1           0       -3.361770   -2.997391    1.564223
     24          1           0       -5.039160   -3.503079    1.299742
     25          6           0       -3.693553    0.596991   -0.637218
     26          6           0       -2.797160    1.820111   -0.441157
     27          6           0       -2.902574    2.820899   -1.592290
     28          1           0       -3.425045    0.101736   -1.580628
     29          1           0       -4.735891    0.927456   -0.743375
     30          1           0       -1.756858    1.486683   -0.335263
     31          1           0       -3.066350    2.312120    0.502283
     32          1           0       -3.930983    3.181734   -1.696093
     33          1           0       -2.614050    2.351607   -2.538397
     34          1           0       -2.253592    3.687423   -1.431613
 ---------------------------------------------------------------------

 SCF Done:  E(RHF) =  -669.535527001     A.U. after   15 cycles
 E2 =    -0.2091326363D+01 EUMP2 =    -0.67162685336396D+03

 The electronic state is 1-A.
 Alpha  occ. eigenvalues --  -20.60760 -20.60755 -15.85812 -11.31168 -11.27731
 Alpha  occ. eigenvalues --  -11.27727 -11.27463 -11.26747 -11.26700 -11.22505
 Alpha  occ. eigenvalues --  -11.21939 -11.21854 -11.21790 -11.21760 -11.21210
 Alpha  occ. eigenvalues --   -1.59835  -1.39389  -1.19334  -1.08953  -1.08730
 Alpha  occ. eigenvalues --   -1.04737  -1.04025  -0.96437  -0.95569  -0.87457
 Alpha  occ. eigenvalues --   -0.86134  -0.82408  -0.80138  -0.78743  -0.77449
 Alpha  occ. eigenvalues --   -0.72031  -0.71158  -0.70446  -0.65604  -0.64984
 Alpha  occ. eigenvalues --   -0.64740  -0.62138  -0.61376  -0.59836  -0.58056
 Alpha  occ. eigenvalues --   -0.55705  -0.55236  -0.53155  -0.53065  -0.52890
 Alpha  occ. eigenvalues --   -0.52800  -0.50376  -0.48795  -0.48787  -0.48413
 Alpha  occ. eigenvalues --   -0.47169  -0.46275  -0.46172  -0.44797  -0.44272
 Alpha  occ. eigenvalues --   -0.37313  -0.36337
 Alpha virt. eigenvalues --    0.05078   0.11315   0.16572   0.19300   0.22700
 Alpha virt. eigenvalues --    0.23795   0.24985   0.26411   0.27021   0.28342
 Alpha virt. eigenvalues --    0.29476   0.30133   0.31099   0.31412   0.32408

 Mulliken charges:
               1
     1  C   -0.171228
     2  C   -0.218401
     3  C   -0.171170
     4  C    0.158866
     5  C   -0.173541
     6  C   -0.224014
     7  H    0.225928
     8  H    0.223303
     9  H    0.275487
    10  H    0.274643
    11  H    0.231766
    12  N    0.488186
    13  O   -0.460856
    14  O   -0.460447
    15  C   -0.298703
    16  C   -0.300377
    17  C   -0.476439
    18  H    0.147991
    19  H    0.149053
    20  H    0.155254
    21  H    0.152294
    22  H    0.154248
    23  H    0.157621
    24  H    0.162135
    25  C   -0.298681
    26  C   -0.305123
    27  C   -0.475912
    28  H    0.153420
    29  H    0.152657
    30  H    0.142984
    31  H    0.152554
    32  H    0.159194
    33  H    0.159186
    34  H    0.158119
 Sum of Mulliken charges =  -0.00000

 Dipole moment (field-independent basis, Debye):
    X=             -1.0762    Y=              4.2873    Z=              2.7418  Tot=              5.2016
 Quadrupole moment (field-independent basis, Debye-Ang):
   XX=            -94.1829   YY=            -98.1119   ZZ=            -95.6202
   XY=             12.4645   XZ=              9.8811   YZ=             -0.2707

 Normal termination of Gaussian 16 at Wed May  5 19:05:54 2021.
