 Gaussian 16, Revision A.03,
 Gaussian 16:  EM64L-G16RevA.03 25-Dec-2016

 -------------
 #p 6-31g* mp2
 -------------

 ------------------------------------------------------
 Input file generated by CHIRIPA (05-May-2021 14:53:16)
 ------------------------------------------------------
 Symbolic Z-matrix:
 Charge =  0 Multiplicity = 1

                         Standard orientation:
 ---------------------------------------------------------------------
 Center     Atomic      Atomic             Coordinates (Angstroms)
 Number     Number       Type             X           Y           Z
 ---------------------------------------------------------------------
      1          6           0        4.056526   -0.445803    0.546468
      2          6           0        2.575141   -0.109166    0.372800
      3          6           0        1.665828   -0.975891    1.244426
      4          1           0        4.215968   -1.505555    0.304705
      5          1           0        4.332285   -0.321268    1.602802
      6          1           0        2.302592   -0.232965   -0.683139
      7          1           0        2.419240    0.949955    0.614819
      8          1           0        1.909348   -0.845583    2.303822
      9          1           0        1.792037   -2.035224    0.998489
     10          1           0        0.611307   -0.718434    1.104558
     11          6           0        4.978209    0.412260   -0.318377
     12          6           0        6.459593    0.075624   -0.144709
     13          6           0        7.368907    0.942348   -1.016335
     14          1           0        4.702450    0.287725   -1.374712
     15          1           0        4.818767    1.472012   -0.076614
     16          1           0        6.615495   -0.983497   -0.386728
     17          1           0        6.732143    0.199422    0.911230
     18          1           0        7.242697    2.001681   -0.770398
     19          1           0        7.125387    0.812041   -2.075731
     20          1           0        8.423427    0.684891   -0.876468
     21          6           0       -4.354945    2.388942    0.109508
     22          6           0       -5.138464    1.427272   -0.536876
     23          6           0       -4.690961    0.107858   -0.652780
     24          6           0       -3.449362   -0.216584   -0.108298
     25          6           0       -2.645665    0.718891    0.541506
     26          6           0       -3.113236    2.032311    0.645690
     27          1           0       -4.710372    3.411566    0.194995
     28          1           0       -6.103205    1.701381   -0.954232
     29          1           0       -5.277187   -0.656627   -1.148076
     30          1           0       -1.688303    0.415553    0.947538
     31          1           0       -2.502612    2.777060    1.148217
     32          7           0       -2.964989   -1.610216   -0.224798
     33          8           0       -1.867475   -1.870645    0.263341
     34          8           0       -3.692021   -2.415728   -0.802044
 ---------------------------------------------------------------------

 SCF Done:  E(RHF) =  -669.535570455     A.U. after   15 cycles
 E2 =    -0.2091285195D+01 EUMP2 =    -0.67162685564995D+03

 The electronic state is 1-A.
 Alpha  occ. eigenvalues --  -20.60841 -20.60836 -15.85882 -11.31237 -11.27807
 Alpha  occ. eigenvalues --  -11.27800 -11.27545 -11.26819 -11.26809 -11.21420
 Alpha  occ. eigenvalues --  -11.21244 -11.21172 -11.21062 -11.20936 -11.20415
 Alpha  occ. eigenvalues --   -1.59912  -1.39467  -1.19409  -1.08806  -1.08158
 Alpha  occ. eigenvalues --   -1.04811  -1.03220  -0.95688  -0.95605  -0.86658
 Alpha  occ. eigenvalues --   -0.86210  -0.82477  -0.79290  -0.77978  -0.77528
 Alpha  occ. eigenvalues --   -0.72110  -0.71228  -0.70522  -0.65065  -0.64821
 Alpha  occ. eigenvalues --   -0.64790  -0.62179  -0.60615  -0.59021  -0.57269
 Alpha  occ. eigenvalues --   -0.55314  -0.54927  -0.53139  -0.52938  -0.52293
 Alpha  occ. eigenvalues --   -0.52065  -0.49584  -0.48862  -0.48853  -0.47591
 Alpha  occ. eigenvalues --   -0.46333  -0.45512  -0.45444  -0.44871  -0.43454
 Alpha  occ. eigenvalues --   -0.37389  -0.36412
 Alpha virt. eigenvalues --    0.05004   0.11237   0.16501   0.20733   0.23082
 Alpha virt. eigenvalues --    0.24026   0.26377   0.26907   0.27670   0.27790
 Alpha virt. eigenvalues --    0.29118   0.30239   0.31553   0.31737   0.32110

 Mulliken charges:
               1
     1  C   -0.298032
     2  C   -0.300148
     3  C   -0.483715
     4  H    0.151760
     5  H    0.148201
     6  H    0.153729
     7  H    0.143929
     8  H    0.149283
     9  H    0.163428
    10  H    0.172475
    11  C   -0.297815
    12  C   -0.299487
    13  C   -0.475519
    14  H    0.149713
    15  H    0.147293
    16  H    0.152774
    17  H    0.151353
    18  H    0.154043
    19  H    0.155197
    20  H    0.159899
    21  C   -0.170262
    22  C   -0.218932
    23  C   -0.170065
    24  C    0.155187
    25  C   -0.172121
    26  C   -0.221739
    27  H    0.225823
    28  H    0.223619
    29  H    0.275753
    30  H    0.284391
    31  H    0.224311
    32  N    0.490558
    33  O   -0.465044
    34  O   -0.459838
 Sum of Mulliken charges =  -0.00000

 Dipole moment (field-independent basis, Debye):
    X=             -1.8340    Y=              4.8050    Z=              0.3762  Tot=              5.1569
 Quadrupole moment (field-independent basis, Debye-Ang):
   XX=            -80.6133   YY=            -96.8379   ZZ=            -94.2329
   XY=            -16.3102   XZ=              1.5893   YZ=              0.9257

 Normal termination of Gaussian 16 at Thu May  6 17:15:22 2021.
