 Gaussian 16, Revision A.03,
 Gaussian 16:  EM64L-G16RevA.03 25-Dec-2016

 -------------
 #p 6-31g* mp2
 -------------

 ------------------------------------------------------
 Input file generated by CHIRIPA (05-May-2021 14:53:13)
 ------------------------------------------------------
 Symbolic Z-matrix:
 Charge =  0 Multiplicity = 1

                         Standard orientation:
 ---------------------------------------------------------------------
 Center     Atomic      Atomic             Coordinates (Angstroms)
 Number     Number       Type             X           Y           Z
 ---------------------------------------------------------------------
      1          6           0        4.127169   -0.586034   -0.292407
      2          6           0        2.833533   -0.723262    0.511121
      3          6           0        1.820155   -1.654797   -0.154539
      4          1           0        3.888978   -0.212652   -1.297791
      5          1           0        4.574719   -1.580608   -0.426254
      6          1           0        2.389276    0.271442    0.644598
      7          1           0        3.074851   -1.096178    1.514771
      8          1           0        2.240000   -2.658887   -0.273423
      9          1           0        1.550529   -1.283496   -1.148541
     10          1           0        0.902924   -1.738414    0.436693
     11          6           0        5.150153    0.342029    0.360227
     12          6           0        6.443790    0.479257   -0.443301
     13          6           0        7.457167    1.410792    0.222358
     14          1           0        4.702603    1.336604    0.494073
     15          1           0        5.388344   -0.031352    1.365610
     16          1           0        6.202471    0.852174   -1.446952
     17          1           0        6.888046   -0.515446   -0.576779
     18          1           0        7.726793    1.039492    1.216360
     19          1           0        7.037322    2.414883    0.341242
     20          1           0        8.374398    1.494409   -0.368874
     21          6           0       -5.935369    1.099610    0.094633
     22          6           0       -4.820827    1.926975   -0.077954
     23          6           0       -3.535417    1.381469   -0.146444
     24          6           0       -3.400495   -0.001777   -0.038202
     25          6           0       -4.491328   -0.852440    0.134274
     26          6           0       -5.767358   -0.285015    0.200010
     27          1           0       -6.930264    1.531887    0.146768
     28          1           0       -4.948304    3.002637   -0.160092
     29          1           0       -2.655270    1.998745   -0.279594
     30          1           0       -4.332607   -1.921099    0.212984
     31          1           0       -6.631112   -0.929992    0.334092
     32          7           0       -2.044653   -0.590882   -0.109252
     33          8           0       -1.952504   -1.812576   -0.011214
     34          8           0       -1.099766    0.180224   -0.261634
 ---------------------------------------------------------------------

 SCF Done:  E(RHF) =  -669.536008600     A.U. after   15 cycles
 E2 =    -0.2091934486D+01 EUMP2 =    -0.67162794308581D+03

 The electronic state is 1-A.
 Alpha  occ. eigenvalues --  -20.61064 -20.61047 -15.86068 -11.31364 -11.27919
 Alpha  occ. eigenvalues --  -11.27915 -11.27649 -11.26916 -11.26907 -11.20832
 Alpha  occ. eigenvalues --  -11.20456 -11.20408 -11.20102 -11.19887 -11.18670
 Alpha  occ. eigenvalues --   -1.60103  -1.39659  -1.19525  -1.08936  -1.07265
 Alpha  occ. eigenvalues --   -1.04915  -1.02209  -0.95786  -0.94618  -0.86317
 Alpha  occ. eigenvalues --   -0.85641  -0.82613  -0.78358  -0.77675  -0.76993
 Alpha  occ. eigenvalues --   -0.72271  -0.71413  -0.70633  -0.65179  -0.64920
 Alpha  occ. eigenvalues --   -0.63913  -0.62262  -0.59619  -0.58139  -0.56233
 Alpha  occ. eigenvalues --   -0.55413  -0.53948  -0.53249  -0.53004  -0.51384
 Alpha  occ. eigenvalues --   -0.51079  -0.49092  -0.48980  -0.48412  -0.46612
 Alpha  occ. eigenvalues --   -0.45432  -0.45077  -0.44533  -0.44415  -0.42385
 Alpha  occ. eigenvalues --   -0.37501  -0.36514
 Alpha virt. eigenvalues --    0.04842   0.11142   0.16349   0.21282   0.23907
 Alpha virt. eigenvalues --    0.25743   0.27204   0.27718   0.28173   0.28571
 Alpha virt. eigenvalues --    0.29486   0.30863   0.32378   0.32627   0.32748

 Mulliken charges:
               1
     1  C   -0.296950
     2  C   -0.301217
     3  C   -0.469998
     4  H    0.147987
     5  H    0.146129
     6  H    0.153917
     7  H    0.144044
     8  H    0.139797
     9  H    0.155138
    10  H    0.181151
    11  C   -0.296931
    12  C   -0.298611
    13  C   -0.474946
    14  H    0.147653
    15  H    0.147340
    16  H    0.150694
    17  H    0.150686
    18  H    0.154030
    19  H    0.153797
    20  H    0.157730
    21  C   -0.170440
    22  C   -0.218587
    23  C   -0.170805
    24  C    0.159887
    25  C   -0.170672
    26  C   -0.218595
    27  H    0.226248
    28  H    0.224051
    29  H    0.275819
    30  H    0.276075
    31  H    0.224087
    32  N    0.487588
    33  O   -0.458394
    34  O   -0.457700
 Sum of Mulliken charges =  -0.00000

 Dipole moment (field-independent basis, Debye):
    X=             -5.3307    Y=              2.1084    Z=              0.2353  Tot=              5.7373
 Quadrupole moment (field-independent basis, Debye-Ang):
   XX=            -64.2563   YY=            -90.7007   ZZ=            -95.6319
   XY=             -5.8640   XZ=             -1.1078   YZ=             -1.3786

 Normal termination of Gaussian 16 at Wed May  5 20:10:12 2021.
