 Gaussian 16, Revision A.03,
 Gaussian 16:  EM64L-G16RevA.03 25-Dec-2016

 -------------
 #p 6-31g* mp2
 -------------

 ------------------------------------------------------
 Input file generated by CHIRIPA (05-May-2021 14:55:22)
 ------------------------------------------------------
 Symbolic Z-matrix:
 Charge =  0 Multiplicity = 1

                         Standard orientation:
 ---------------------------------------------------------------------
 Center     Atomic      Atomic             Coordinates (Angstroms)
 Number     Number       Type             X           Y           Z
 ---------------------------------------------------------------------
      1          6           0       -6.120462   -0.344561    1.028360
      2          6           0       -5.719468    0.977273    0.808178
      3          6           0       -4.490788    1.254840    0.201672
      4          6           0       -3.684367    0.181500   -0.173717
      5          6           0       -4.055935   -1.146220    0.032166
      6          6           0       -5.288882   -1.400227    0.640335
      7          1           0       -7.076588   -0.551030    1.500154
      8          1           0       -6.363240    1.799111    1.108487
      9          1           0       -4.155687    2.268679    0.019312
     10          1           0       -3.392650   -1.944464   -0.278121
     11          1           0       -5.597714   -2.427775    0.810083
     12          7           0       -2.381360    0.462876   -0.816678
     13          8           0       -1.689088   -0.500471   -1.138173
     14          8           0       -2.077007    1.641439   -0.986962
     15          6           0        4.449386   -0.447317   -0.376913
     16          6           0        3.051469   -0.422563    0.242120
     17          6           0        1.979003   -0.974577   -0.697504
     18          1           0        4.441256    0.134802   -1.308585
     19          1           0        4.701102   -1.479935   -0.655726
     20          1           0        2.803022    0.609495    0.520947
     21          1           0        3.062975   -1.004651    1.172527
     22          1           0        2.199777   -2.012592   -0.966543
     23          1           0        1.938348   -0.389275   -1.621825
     24          1           0        0.987458   -0.947537   -0.234937
     25          6           0        5.532357    0.101396    0.550350
     26          6           0        6.930274    0.076642   -0.068681
     27          6           0        8.002740    0.628656    0.870941
     28          1           0        5.280641    1.134014    0.829163
     29          1           0        5.540487   -0.480723    1.482023
     30          1           0        6.918769    0.658730   -0.999089
     31          1           0        7.178720   -0.955416   -0.347510
     32          1           0        8.043395    0.043354    1.795262
     33          1           0        7.781966    1.666671    1.139981
     34          1           0        8.994285    0.601616    0.408374
 ---------------------------------------------------------------------

 SCF Done:  E(RHF) =  -669.535895156     A.U. after   15 cycles
 E2 =    -0.2090685309D+01 EUMP2 =    -0.67162658046517D+03

 The electronic state is 1-A.
 Alpha  occ. eigenvalues --  -20.60912 -20.60906 -15.85943 -11.31279 -11.27844
 Alpha  occ. eigenvalues --  -11.27840 -11.27584 -11.26854 -11.26844 -11.21013
 Alpha  occ. eigenvalues --  -11.20665 -11.20589 -11.20481 -11.20418 -11.19414
 Alpha  occ. eigenvalues --   -1.59974  -1.39530  -1.19449  -1.08851  -1.07587
 Alpha  occ. eigenvalues --   -1.04847  -1.02598  -0.95692  -0.95015  -0.86247
 Alpha  occ. eigenvalues --   -0.86024  -0.82522  -0.78691  -0.77575  -0.77375
 Alpha  occ. eigenvalues --   -0.72163  -0.71292  -0.70557  -0.65104  -0.64850
 Alpha  occ. eigenvalues --   -0.64228  -0.62194  -0.60004  -0.58438  -0.56621
 Alpha  occ. eigenvalues --   -0.55351  -0.54317  -0.53179  -0.52939  -0.51671
 Alpha  occ. eigenvalues --   -0.51451  -0.49033  -0.48922  -0.48842  -0.46993
 Alpha  occ. eigenvalues --   -0.45756  -0.44953  -0.44893  -0.44833  -0.42794
 Alpha  occ. eigenvalues --   -0.37428  -0.36449
 Alpha virt. eigenvalues --    0.04928   0.11206   0.16408   0.21341   0.23652
 Alpha virt. eigenvalues --    0.25312   0.27258   0.27445   0.28185   0.28292
 Alpha virt. eigenvalues --    0.29064   0.30887   0.32299   0.32391   0.32551

 Mulliken charges:
               1
     1  C   -0.170633
     2  C   -0.218566
     3  C   -0.170754
     4  C    0.157994
     5  C   -0.170924
     6  C   -0.218541
     7  H    0.225935
     8  H    0.223755
     9  H    0.275801
    10  H    0.275919
    11  H    0.223803
    12  N    0.488617
    13  O   -0.459325
    14  O   -0.459198
    15  C   -0.297352
    16  C   -0.300848
    17  C   -0.476065
    18  H    0.149940
    19  H    0.146980
    20  H    0.152005
    21  H    0.145692
    22  H    0.146012
    23  H    0.159421
    24  H    0.175873
    25  C   -0.297447
    26  C   -0.299014
    27  C   -0.475222
    28  H    0.148969
    29  H    0.147440
    30  H    0.151798
    31  H    0.150757
    32  H    0.153970
    33  H    0.154664
    34  H    0.158547
 Sum of Mulliken charges =  -0.00000

 Dipole moment (field-independent basis, Debye):
    X=             -4.9398    Y=             -0.9465    Z=              2.2044  Tot=              5.4915
 Quadrupole moment (field-independent basis, Debye-Ang):
   XX=            -63.4144   YY=            -89.6571   ZZ=            -96.6141
   XY=              1.5792   XZ=             -8.4945   YZ=              0.3693

 Normal termination of Gaussian 16 at Wed May  5 17:31:28 2021.
