 Gaussian 16, Revision A.03,
 Gaussian 16:  EM64L-G16RevA.03 25-Dec-2016

 -------------
 #p 6-31g* mp2
 -------------

 ------------------------------------------------------
 Input file generated by CHIRIPA (05-May-2021 14:51:11)
 ------------------------------------------------------
 Symbolic Z-matrix:
 Charge =  0 Multiplicity = 1

                         Standard orientation:
 ---------------------------------------------------------------------
 Center     Atomic      Atomic             Coordinates (Angstroms)
 Number     Number       Type             X           Y           Z
 ---------------------------------------------------------------------
      1          6           0        2.287225   -0.612704    0.854813
      2          6           0        1.564401   -1.954820    0.974125
      3          6           0        1.456329   -2.441611    2.419514
      4          1           0        3.292485   -0.705060    1.288250
      5          1           0        1.755125    0.137177    1.456430
      6          1           0        2.096917   -2.701620    0.371354
      7          1           0        0.560814   -1.859311    0.540181
      8          1           0        0.906225   -1.717912    3.029633
      9          1           0        2.451056   -2.565007    2.859848
     10          1           0        0.936216   -3.402590    2.481663
     11          6           0        2.403160   -0.112870   -0.584094
     12          6           0        3.125985    1.229246   -0.703406
     13          6           0        3.234056    1.716037   -2.148795
     14          1           0        2.935260   -0.862751   -1.185711
     15          1           0        1.397900   -0.020514   -1.017531
     16          1           0        4.129572    1.133737   -0.269462
     17          1           0        2.593468    1.976046   -0.100635
     18          1           0        2.239329    1.839433   -2.589128
     19          1           0        3.784161    0.992338   -2.758914
     20          1           0        3.754169    2.677016   -2.210943
     21          6           0       -2.573233    0.833971    0.420892
     22          6           0       -1.603513    1.989073    0.672624
     23          6           0       -2.073495    2.923022    1.788264
     24          1           0       -3.561425    1.241773    0.167678
     25          1           0       -2.700051    0.261709    1.350315
     26          1           0       -1.477489    2.558164   -0.257359
     27          1           0       -0.617465    1.578474    0.925081
     28          1           0       -2.181351    2.374780    2.729750
     29          1           0       -3.046263    3.360036    1.540592
     30          1           0       -1.365514    3.741544    1.951500
     31          6           0       -2.117154   -0.108397   -0.691611
     32          6           0       -3.086872   -1.263499   -0.943343
     33          6           0       -2.616890   -2.197448   -2.058982
     34          1           0       -1.990334    0.463864   -1.621035
     35          1           0       -1.128960   -0.516199   -0.438397
     36          1           0       -4.072920   -0.852901   -1.195800
     37          1           0       -3.212895   -1.832590   -0.013360
     38          1           0       -1.644122   -2.634462   -1.811310
     39          1           0       -2.509034   -1.649206   -3.000470
     40          1           0       -3.324871   -3.015970   -2.222219
 ---------------------------------------------------------------------

 SCF Done:  E(RHF) =  -470.733104903     A.U. after   11 cycles
 E2 =    -0.1584608307D+01 EUMP2 =    -0.47231771321027D+03

 The electronic state is 1-A.
 Alpha  occ. eigenvalues --  -11.21688 -11.21661 -11.21647 -11.21585 -11.21468
 Alpha  occ. eigenvalues --  -11.21431 -11.21406 -11.21341 -11.21136 -11.21131
 Alpha  occ. eigenvalues --  -11.21096 -11.21050  -1.08528  -1.08428  -1.03591
 Alpha  occ. eigenvalues --   -1.03549  -0.96036  -0.95997  -0.87052  -0.87014
 Alpha  occ. eigenvalues --   -0.79673  -0.79603  -0.78415  -0.78180  -0.65430
 Alpha  occ. eigenvalues --   -0.64818  -0.61033  -0.60910  -0.59409  -0.59361
 Alpha  occ. eigenvalues --   -0.57667  -0.57591  -0.55326  -0.55289  -0.52727
 Alpha  occ. eigenvalues --   -0.52699  -0.52460  -0.52423  -0.50002  -0.49936
 Alpha  occ. eigenvalues --   -0.48024  -0.47918  -0.46875  -0.46570  -0.46329
 Alpha  occ. eigenvalues --   -0.45798  -0.45703  -0.45131  -0.43844  -0.43800
 Alpha virt. eigenvalues --    0.19110   0.22422   0.23927   0.24402   0.25350
 Alpha virt. eigenvalues --    0.26729   0.26898   0.27690   0.27820   0.30414
 Alpha virt. eigenvalues --    0.31249   0.31625   0.31710   0.31960   0.32453

 Mulliken charges:
               1
     1  C   -0.300566
     2  C   -0.307022
     3  C   -0.475244
     4  H    0.150255
     5  H    0.151036
     6  H    0.152597
     7  H    0.157050
     8  H    0.154756
     9  H    0.155688
    10  H    0.160312
    11  C   -0.303317
    12  C   -0.299861
    13  C   -0.475747
    14  H    0.149453
    15  H    0.154990
    16  H    0.151714
    17  H    0.152472
    18  H    0.155549
    19  H    0.155070
    20  H    0.160106
    21  C   -0.297511
    22  C   -0.304334
    23  C   -0.475611
    24  H    0.150215
    25  H    0.149490
    26  H    0.152114
    27  H    0.154961
    28  H    0.155281
    29  H    0.155639
    30  H    0.160420
    31  C   -0.310821
    32  C   -0.299071
    33  C   -0.476708
    34  H    0.149483
    35  H    0.161170
    36  H    0.152277
    37  H    0.151937
    38  H    0.155944
    39  H    0.155325
    40  H    0.160512
 Sum of Mulliken charges =  -0.00000

 Dipole moment (field-independent basis, Debye):
    X=             -0.0142    Y=             -0.0021    Z=             -0.0063  Tot=              0.0157
 Quadrupole moment (field-independent basis, Debye-Ang):
   XX=            -83.7623   YY=            -85.0108   ZZ=            -85.8883
   XY=             -0.6764   XZ=              0.5838   YZ=             -0.4555

 Normal termination of Gaussian 16 at Wed May  5 18:17:05 2021.
