 Gaussian 16, Revision A.03,
 Gaussian 16:  EM64L-G16RevA.03 25-Dec-2016

 -------------
 #p 6-31g* mp2
 -------------

 ------------------------------------------------------
 Input file generated by CHIRIPA (05-May-2021 14:53:11)
 ------------------------------------------------------
 Symbolic Z-matrix:
 Charge =  0 Multiplicity = 1

                         Standard orientation:
 ---------------------------------------------------------------------
 Center     Atomic      Atomic             Coordinates (Angstroms)
 Number     Number       Type             X           Y           Z
 ---------------------------------------------------------------------
      1          6           0       -3.409199    0.953690   -0.071516
      2          6           0       -2.393060    1.764129    0.733864
      3          6           0       -2.807556    3.225441    0.908664
      4          1           0       -3.541138    1.419375   -1.057759
      5          1           0       -4.385827    1.001320    0.429807
      6          1           0       -1.418315    1.713843    0.231909
      7          1           0       -2.263382    1.296351    1.718234
      8          1           0       -3.767971    3.293767    1.429755
      9          1           0       -2.918102    3.713631   -0.065015
     10          1           0       -2.066981    3.786346    1.487278
     11          6           0       -3.008847   -0.509135   -0.254783
     12          6           0       -4.024985   -1.319574   -1.060163
     13          6           0       -3.610490   -2.780886   -1.234963
     14          1           0       -2.032219   -0.556764   -0.756106
     15          1           0       -2.876908   -0.974820    0.731460
     16          1           0       -4.154664   -0.851796   -2.044533
     17          1           0       -4.999730   -1.269288   -0.558208
     18          1           0       -3.499944   -3.269076   -0.261284
     19          1           0       -2.650075   -2.849212   -1.756055
     20          1           0       -4.351065   -3.341790   -1.813578
     21          6           0        1.260545   -1.641554    1.757620
     22          6           0        2.533175   -2.013734    1.312179
     23          6           0        3.233028   -1.208116    0.409000
     24          6           0        2.627557   -0.031743   -0.030137
     25          6           0        1.361058    0.366196    0.395207
     26          6           0        0.679573   -0.454869    1.298522
     27          1           0        0.724017   -2.273378    2.459285
     28          1           0        2.986829   -2.934779    1.667031
     29          1           0        4.219538   -1.472309    0.047866
     30          1           0        0.934790    1.290138    0.023664
     31          1           0       -0.308633   -0.163321    1.642750
     32          7           0        3.358737    0.829305   -0.986364
     33          8           0        2.803401    1.860795   -1.358209
     34          8           0        4.473327    0.456401   -1.345905
 ---------------------------------------------------------------------

 SCF Done:  E(RHF) =  -669.534625486     A.U. after   15 cycles
 E2 =    -0.2093427444D+01 EUMP2 =    -0.67162805293014D+03

 The electronic state is 1-A.
 Alpha  occ. eigenvalues --  -20.60718 -20.60713 -15.85767 -11.31100 -11.27659
 Alpha  occ. eigenvalues --  -11.27626 -11.27371 -11.26681 -11.26555 -11.22656
 Alpha  occ. eigenvalues --  -11.22180 -11.22141 -11.22090 -11.21729 -11.21562
 Alpha  occ. eigenvalues --   -1.59793  -1.39347  -1.19259  -1.09204  -1.08657
 Alpha  occ. eigenvalues --   -1.04663  -1.04232  -0.96638  -0.95505  -0.87661
 Alpha  occ. eigenvalues --   -0.86055  -0.82364  -0.80372  -0.79077  -0.77339
 Alpha  occ. eigenvalues --   -0.71987  -0.71115  -0.70383  -0.65845  -0.64903
 Alpha  occ. eigenvalues --   -0.64646  -0.62089  -0.61593  -0.59992  -0.58277
 Alpha  occ. eigenvalues --   -0.55905  -0.55164  -0.53362  -0.53095  -0.52952
 Alpha  occ. eigenvalues --   -0.52743  -0.50573  -0.48768  -0.48748  -0.48611
 Alpha  occ. eigenvalues --   -0.47378  -0.46495  -0.46451  -0.44760  -0.44489
 Alpha  occ. eigenvalues --   -0.37237  -0.36232
 Alpha virt. eigenvalues --    0.05112   0.11374   0.16550   0.20124   0.22687
 Alpha virt. eigenvalues --    0.23512   0.24316   0.25479   0.27272   0.28465
 Alpha virt. eigenvalues --    0.29236   0.30178   0.31300   0.31468   0.31892

 Mulliken charges:
               1
     1  C   -0.296902
     2  C   -0.311213
     3  C   -0.474923
     4  H    0.155330
     5  H    0.152150
     6  H    0.151203
     7  H    0.146200
     8  H    0.157615
     9  H    0.160897
    10  H    0.162888
    11  C   -0.302439
    12  C   -0.300129
    13  C   -0.476226
    14  H    0.153977
    15  H    0.141994
    16  H    0.155524
    17  H    0.152879
    18  H    0.152519
    19  H    0.157627
    20  H    0.162677
    21  C   -0.173216
    22  C   -0.218388
    23  C   -0.171448
    24  C    0.160791
    25  C   -0.183166
    26  C   -0.221216
    27  H    0.225298
    28  H    0.222958
    29  H    0.275104
    30  H    0.279535
    31  H    0.235348
    32  N    0.488596
    33  O   -0.461187
    34  O   -0.460658
 Sum of Mulliken charges =  -0.00000

 Dipole moment (field-independent basis, Debye):
    X=             -2.7991    Y=             -2.9578    Z=              3.2726  Tot=              5.2243
 Quadrupole moment (field-independent basis, Debye-Ang):
   XX=           -104.9339   YY=            -93.5822   ZZ=            -94.9805
   XY=            -10.8210   XZ=              8.9317   YZ=             -0.4556

 Normal termination of Gaussian 16 at Wed May  5 23:19:42 2021.
