 Gaussian 16, Revision A.03,
 Gaussian 16:  EM64L-G16RevA.03 25-Dec-2016

 -------------
 #p 6-31g* mp2
 -------------

 ------------------------------------------------------
 Input file generated by CHIRIPA (05-May-2021 14:53:14)
 ------------------------------------------------------
 Symbolic Z-matrix:
 Charge =  0 Multiplicity = 1

                         Standard orientation:
 ---------------------------------------------------------------------
 Center     Atomic      Atomic             Coordinates (Angstroms)
 Number     Number       Type             X           Y           Z
 ---------------------------------------------------------------------
      1          6           0       -3.963329   -0.262941    0.424584
      2          6           0       -2.641538    0.044895   -0.279753
      3          6           0       -1.425132   -0.193932    0.615295
      4          1           0       -4.043389    0.357442    1.327723
      5          1           0       -3.955613   -1.308280    0.763112
      6          1           0       -2.652303    1.088946   -0.618071
      7          1           0       -2.564703   -0.576155   -1.181424
      8          1           0       -1.386592   -1.238016    0.942410
      9          1           0       -1.474689    0.436545    1.508964
     10          1           0       -0.490944    0.032304    0.091874
     11          6           0       -5.188564   -0.029016   -0.457349
     12          6           0       -6.510355   -0.336852    0.246988
     13          6           0       -7.726761   -0.098025   -0.648060
     14          1           0       -5.196280    1.016323   -0.795877
     15          1           0       -5.108504   -0.649399   -1.360488
     16          1           0       -6.587190    0.284198    1.148658
     17          1           0       -6.499591   -1.380903    0.585306
     18          1           0       -7.677204   -0.728502   -1.541729
     19          1           0       -7.765302    0.946059   -0.975175
     20          1           0       -8.660950   -0.324261   -0.124639
     21          6           0        2.444652    2.352882    0.288371
     22          6           0        3.609410    2.246483   -0.478791
     23          6           0        4.244130    1.011077   -0.638326
     24          6           0        3.684233   -0.102397   -0.013843
     25          6           0        2.524927   -0.028605    0.756779
     26          6           0        1.907076    1.217002    0.902625
     27          1           0        1.958137    3.316537    0.406985
     28          1           0        4.029146    3.126936   -0.956984
     29          1           0        5.146881    0.900278   -1.226698
     30          1           0        2.130193   -0.924054    1.221294
     31          1           0        1.002617    1.296653    1.498995
     32          7           0        4.347253   -1.415665   -0.175489
     33          8           0        3.833991   -2.381635    0.384956
     34          8           0        5.367638   -1.454167   -0.859573
 ---------------------------------------------------------------------

 SCF Done:  E(RHF) =  -669.534347262     A.U. after   15 cycles
 E2 =    -0.2092206737D+01 EUMP2 =    -0.67162655399900D+03

 The electronic state is 1-A.
 Alpha  occ. eigenvalues --  -20.60741 -20.60736 -15.85794 -11.31160 -11.27720
 Alpha  occ. eigenvalues --  -11.27694 -11.27449 -11.26750 -11.26652 -11.22159
 Alpha  occ. eigenvalues --  -11.21884 -11.21818 -11.21788 -11.21709 -11.21304
 Alpha  occ. eigenvalues --   -1.59817  -1.39370  -1.19332  -1.08848  -1.08723
 Alpha  occ. eigenvalues --   -1.04744  -1.03973  -0.96455  -0.95559  -0.87504
 Alpha  occ. eigenvalues --   -0.86116  -0.82396  -0.80061  -0.78638  -0.77430
 Alpha  occ. eigenvalues --   -0.72012  -0.71140  -0.70431  -0.65486  -0.64980
 Alpha  occ. eigenvalues --   -0.64746  -0.62141  -0.61362  -0.59796  -0.58045
 Alpha  occ. eigenvalues --   -0.55758  -0.55224  -0.53509  -0.53009  -0.52801
 Alpha  occ. eigenvalues --   -0.52551  -0.50374  -0.48769  -0.48767  -0.48361
 Alpha  occ. eigenvalues --   -0.47066  -0.46186  -0.46094  -0.44776  -0.44225
 Alpha  occ. eigenvalues --   -0.37312  -0.36263
 Alpha virt. eigenvalues --    0.05069   0.11295   0.16472   0.20916   0.22562
 Alpha virt. eigenvalues --    0.24000   0.25785   0.26289   0.27276   0.28151
 Alpha virt. eigenvalues --    0.28885   0.29784   0.31335   0.31835   0.31997

 Mulliken charges:
               1
     1  C   -0.299032
     2  C   -0.298371
     3  C   -0.488684
     4  H    0.148518
     5  H    0.151681
     6  H    0.150470
     7  H    0.156331
     8  H    0.159936
     9  H    0.147048
    10  H    0.167571
    11  C   -0.298636
    12  C   -0.299937
    13  C   -0.475922
    14  H    0.148984
    15  H    0.151207
    16  H    0.151615
    17  H    0.153042
    18  H    0.156037
    19  H    0.154976
    20  H    0.161134
    21  C   -0.173486
    22  C   -0.218355
    23  C   -0.171482
    24  C    0.158729
    25  C   -0.172770
    26  C   -0.221027
    27  H    0.225512
    28  H    0.223243
    29  H    0.275436
    30  H    0.276940
    31  H    0.232087
    32  N    0.488093
    33  O   -0.460301
    34  O   -0.460586
 Sum of Mulliken charges =  -0.00000

 Dipole moment (field-independent basis, Debye):
    X=             -2.4373    Y=              4.5929    Z=              0.5266  Tot=              5.2261
 Quadrupole moment (field-independent basis, Debye-Ang):
   XX=           -110.5368   YY=            -94.3807   ZZ=            -93.9654
   XY=             19.3620   XZ=             -0.5559   YZ=             -1.1393

 Normal termination of Gaussian 16 at Wed May  5 23:28:05 2021.
