 Gaussian 16, Revision A.03,
 Gaussian 16:  EM64L-G16RevA.03 25-Dec-2016

 -------------
 #p 6-31g* mp2
 -------------

 ------------------------------------------------------
 Input file generated by CHIRIPA (05-May-2021 14:53:13)
 ------------------------------------------------------
 Symbolic Z-matrix:
 Charge =  0 Multiplicity = 1

                         Standard orientation:
 ---------------------------------------------------------------------
 Center     Atomic      Atomic             Coordinates (Angstroms)
 Number     Number       Type             X           Y           Z
 ---------------------------------------------------------------------
      1          6           0       -3.733494    0.688413   -0.015049
      2          6           0       -3.524207    1.589124    1.202697
      3          6           0       -2.570870    2.751018    0.921725
      4          1           0       -2.761633    0.295805   -0.344125
      5          1           0       -4.124368    1.291925   -0.845943
      6          1           0       -3.135149    0.983825    2.031468
      7          1           0       -4.496701    1.979481    1.529029
      8          1           0       -2.956939    3.378997    0.112284
      9          1           0       -1.587652    2.377683    0.617579
     10          1           0       -2.435585    3.382075    1.805651
     11          6           0       -4.684083   -0.477682    0.250150
     12          6           0       -4.893370   -1.378393   -0.967595
     13          6           0       -5.846707   -2.540287   -0.686623
     14          1           0       -4.293209   -1.081194    1.081045
     15          1           0       -5.655943   -0.085074    0.579226
     16          1           0       -3.920875   -1.768750   -1.293928
     17          1           0       -5.282427   -0.773094   -1.796367
     18          1           0       -6.829925   -2.166952   -0.382478
     19          1           0       -5.460637   -3.168265    0.122817
     20          1           0       -5.981991   -3.171344   -1.570549
     21          6           0        2.029545    1.949353   -0.900687
     22          6           0        3.402314    1.833972   -1.142992
     23          6           0        4.109812    0.712696   -0.699445
     24          6           0        3.409790   -0.278731   -0.013640
     25          6           0        2.042341   -0.192755    0.243229
     26          6           0        1.355128    0.937405   -0.209567
     27          1           0        1.487822    2.823838   -1.248838
     28          1           0        3.928672    2.618310   -1.679469
     29          1           0        5.172808    0.597801   -0.873395
     30          1           0        1.545012   -0.990996    0.780718
     31          1           0        0.289043    1.024331   -0.019959
     32          7           0        4.148049   -1.470478    0.460820
     33          8           0        3.508220   -2.330103    1.062734
     34          8           0        5.352546   -1.522379    0.221803
 ---------------------------------------------------------------------

 SCF Done:  E(RHF) =  -669.535466240     A.U. after   15 cycles
 E2 =    -0.2091007383D+01 EUMP2 =    -0.67162647362317D+03

 The electronic state is 1-A.
 Alpha  occ. eigenvalues --  -20.60754 -20.60749 -15.85808 -11.31171 -11.27744
 Alpha  occ. eigenvalues --  -11.27740 -11.27477 -11.26753 -11.26739 -11.22421
 Alpha  occ. eigenvalues --  -11.22173 -11.22132 -11.22047 -11.21928 -11.21396
 Alpha  occ. eigenvalues --   -1.59830  -1.39383  -1.19344  -1.09103  -1.08738
 Alpha  occ. eigenvalues --   -1.04750  -1.04191  -0.96656  -0.95573  -0.87673
 Alpha  occ. eigenvalues --   -0.86149  -0.82408  -0.80263  -0.78887  -0.77458
 Alpha  occ. eigenvalues --   -0.72026  -0.71153  -0.70448  -0.65762  -0.64997
 Alpha  occ. eigenvalues --   -0.64767  -0.62155  -0.61543  -0.60026  -0.58246
 Alpha  occ. eigenvalues --   -0.55974  -0.55239  -0.53332  -0.53135  -0.53069
 Alpha  occ. eigenvalues --   -0.52805  -0.50598  -0.48795  -0.48781  -0.48559
 Alpha  occ. eigenvalues --   -0.47290  -0.46433  -0.46335  -0.44790  -0.44435
 Alpha  occ. eigenvalues --   -0.37321  -0.36352
 Alpha virt. eigenvalues --    0.05083   0.11274   0.16570   0.18811   0.22591
 Alpha virt. eigenvalues --    0.23662   0.25192   0.26503   0.27024   0.28290
 Alpha virt. eigenvalues --    0.28680   0.30249   0.31057   0.31526   0.31833

 Mulliken charges:
               1
     1  C   -0.298837
     2  C   -0.300665
     3  C   -0.478757
     4  H    0.143290
     5  H    0.151219
     6  H    0.153680
     7  H    0.156371
     8  H    0.157728
     9  H    0.144612
    10  H    0.165482
    11  C   -0.298887
    12  C   -0.300177
    13  C   -0.476201
    14  H    0.151056
    15  H    0.151711
    16  H    0.152157
    17  H    0.152250
    18  H    0.155778
    19  H    0.156640
    20  H    0.161975
    21  C   -0.172861
    22  C   -0.218594
    23  C   -0.171133
    24  C    0.158985
    25  C   -0.172421
    26  C   -0.226382
    27  H    0.226201
    28  H    0.223446
    29  H    0.275572
    30  H    0.275737
    31  H    0.234076
    32  N    0.487983
    33  O   -0.460555
    34  O   -0.460477
 Sum of Mulliken charges =  -0.00000

 Dipole moment (field-independent basis, Debye):
    X=             -2.8063    Y=              4.2053    Z=             -1.6491  Tot=              5.3179
 Quadrupole moment (field-independent basis, Debye-Ang):
   XX=           -107.9352   YY=            -97.2461   ZZ=            -94.5390
   XY=             15.9049   XZ=             -7.5109   YZ=             -0.5292

 Normal termination of Gaussian 16 at Wed May  5 18:32:14 2021.
