 Gaussian 16, Revision A.03,
 Gaussian 16:  EM64L-G16RevA.03 25-Dec-2016

 -------------
 #p 6-31g* mp2
 -------------

 ------------------------------------------------------
 Input file generated by CHIRIPA (05-May-2021 14:53:14)
 ------------------------------------------------------
 Symbolic Z-matrix:
 Charge =  0 Multiplicity = 1

                         Standard orientation:
 ---------------------------------------------------------------------
 Center     Atomic      Atomic             Coordinates (Angstroms)
 Number     Number       Type             X           Y           Z
 ---------------------------------------------------------------------
      1          6           0        2.405950   -0.587696    0.794765
      2          6           0        1.596471   -1.843389    0.469243
      3          6           0        0.408614   -2.041696    1.411295
      4          1           0        2.764494   -0.648801    1.831422
      5          1           0        1.745774    0.289196    0.743536
      6          1           0        2.258287   -2.717499    0.519716
      7          1           0        1.239974   -1.779376   -0.566821
      8          1           0       -0.274407   -1.187929    1.355031
      9          1           0        0.749692   -2.131383    2.447742
     10          1           0       -0.156139   -2.945064    1.160613
     11          6           0        3.596801   -0.375784   -0.138345
     12          6           0        4.406279    0.879909    0.187177
     13          6           0        5.594137    1.078216   -0.754875
     14          1           0        4.256976   -1.252676   -0.087116
     15          1           0        3.238257   -0.314679   -1.175002
     16          1           0        4.762776    0.815896    1.223241
     17          1           0        3.744463    1.754019    0.136704
     18          1           0        5.253058    1.167903   -1.791322
     19          1           0        6.277157    0.224449   -0.698611
     20          1           0        6.158889    1.981584   -0.504192
     21          6           0       -2.100125    2.807674    0.371881
     22          6           0       -1.147098    2.197868   -0.450552
     23          6           0       -1.272566    0.851355   -0.805104
     24          6           0       -2.368481    0.141309   -0.317155
     25          6           0       -3.334631    0.720600    0.503981
     26          6           0       -3.188930    2.068397    0.845687
     27          1           0       -1.994801    3.854176    0.642316
     28          1           0       -0.300489    2.769548   -0.819986
     29          1           0       -0.549434    0.354318   -1.440282
     30          1           0       -4.167744    0.124882    0.856771
     31          1           0       -3.930603    2.539365    1.484560
     32          7           0       -2.512018   -1.284864   -0.685704
     33          8           0       -3.486663   -1.888600   -0.242752
     34          8           0       -1.647159   -1.771958   -1.410546
 ---------------------------------------------------------------------

 SCF Done:  E(RHF) =  -669.535475501     A.U. after   15 cycles
 E2 =    -0.2094470932D+01 EUMP2 =    -0.67162994643287D+03

 The electronic state is 1-A.
 Alpha  occ. eigenvalues --  -20.60907 -20.60902 -15.85924 -11.31284 -11.27865
 Alpha  occ. eigenvalues --  -11.27858 -11.27597 -11.26883 -11.26863 -11.21768
 Alpha  occ. eigenvalues --  -11.21412 -11.21259 -11.21225 -11.21084 -11.20489
 Alpha  occ. eigenvalues --   -1.59957  -1.39515  -1.19475  -1.08864  -1.08351
 Alpha  occ. eigenvalues --   -1.04872  -1.03364  -0.95834  -0.95695  -0.86858
 Alpha  occ. eigenvalues --   -0.86267  -0.82532  -0.79464  -0.78129  -0.77583
 Alpha  occ. eigenvalues --   -0.72162  -0.71301  -0.70572  -0.65132  -0.65038
 Alpha  occ. eigenvalues --   -0.64831  -0.62224  -0.60757  -0.59204  -0.57407
 Alpha  occ. eigenvalues --   -0.55369  -0.55163  -0.53221  -0.52957  -0.52475
 Alpha  occ. eigenvalues --   -0.52231  -0.49822  -0.48931  -0.48914  -0.47750
 Alpha  occ. eigenvalues --   -0.46520  -0.45675  -0.45593  -0.44856  -0.43625
 Alpha  occ. eigenvalues --   -0.37410  -0.36450
 Alpha virt. eigenvalues --    0.04892   0.11135   0.16337   0.20450   0.22926
 Alpha virt. eigenvalues --    0.24275   0.26031   0.26829   0.27605   0.28146
 Alpha virt. eigenvalues --    0.29245   0.30472   0.31574   0.31631   0.32373

 Mulliken charges:
               1
     1  C   -0.300130
     2  C   -0.304574
     3  C   -0.478639
     4  H    0.149310
     5  H    0.142416
     6  H    0.152066
     7  H    0.163669
     8  H    0.146785
     9  H    0.150463
    10  H    0.173981
    11  C   -0.297816
    12  C   -0.298096
    13  C   -0.475492
    14  H    0.152090
    15  H    0.146580
    16  H    0.152973
    17  H    0.145460
    18  H    0.154240
    19  H    0.157052
    20  H    0.159407
    21  C   -0.170475
    22  C   -0.218826
    23  C   -0.170670
    24  C    0.156373
    25  C   -0.171472
    26  C   -0.218274
    27  H    0.226277
    28  H    0.224229
    29  H    0.276981
    30  H    0.276275
    31  H    0.224069
    32  N    0.492754
    33  O   -0.459032
    34  O   -0.459951
 Sum of Mulliken charges =  -0.00000

 Dipole moment (field-independent basis, Debye):
    X=              0.3443    Y=              4.9009    Z=              1.2373  Tot=              5.0664
 Quadrupole moment (field-independent basis, Debye-Ang):
   XX=            -94.1734   YY=            -93.3057   ZZ=            -94.8922
   XY=            -12.4899   XZ=             -5.0659   YZ=             -1.6318

 Normal termination of Gaussian 16 at Thu May  6 18:46:01 2021.
