 Gaussian 16, Revision A.03,
 Gaussian 16:  EM64L-G16RevA.03 25-Dec-2016

 -------------
 #p 6-31g* mp2
 -------------

 ------------------------------------------------------
 Input file generated by CHIRIPA (05-May-2021 14:55:24)
 ------------------------------------------------------
 Symbolic Z-matrix:
 Charge =  0 Multiplicity = 1

                         Standard orientation:
 ---------------------------------------------------------------------
 Center     Atomic      Atomic             Coordinates (Angstroms)
 Number     Number       Type             X           Y           Z
 ---------------------------------------------------------------------
      1          6           0        4.517844    0.609422   -1.576789
      2          6           0        4.747890   -0.614677   -0.940250
      3          6           0        3.845229   -1.101577    0.009844
      4          6           0        2.717804   -0.334956    0.300522
      5          6           0        2.460799    0.888325   -0.316585
      6          6           0        3.377044    1.355701   -1.263477
      7          1           0        5.224329    0.980074   -2.313601
      8          1           0        5.633001   -1.196382   -1.181585
      9          1           0        3.998790   -2.045986    0.517712
     10          1           0        1.569528    1.445699   -0.055074
     11          1           0        3.195816    2.306693   -1.756240
     12          7           0        1.755007   -0.840080    1.304649
     13          8           0        0.769299   -0.145691    1.543062
     14          8           0        2.004306   -1.920821    1.834259
     15          6           0       -3.646596   -0.394836   -0.433740
     16          6           0       -5.018895   -1.049582   -0.595259
     17          6           0       -4.931763   -2.483779   -1.118022
     18          1           0       -3.127349   -0.402827   -1.401863
     19          1           0       -3.037887   -0.999847    0.252430
     20          1           0       -5.625317   -0.442772   -1.279839
     21          1           0       -5.535014   -1.039859    0.373319
     22          1           0       -4.349233   -3.108652   -0.433337
     23          1           0       -4.440049   -2.508171   -2.095888
     24          1           0       -5.924065   -2.932718   -1.225965
     25          6           0       -3.717204    1.039202    0.088063
     26          6           0       -2.344906    1.693948    0.249582
     27          6           0       -2.432037    3.128144    0.772345
     28          1           0       -4.325914    1.644213   -0.598107
     29          1           0       -4.236453    1.047193    1.056186
     30          1           0       -1.828787    1.684225   -0.718996
     31          1           0       -1.738484    1.087137    0.934162
     32          1           0       -2.923752    3.152537    1.750212
     33          1           0       -3.014569    3.753017    0.087660
     34          1           0       -1.439737    3.577084    0.880288
 ---------------------------------------------------------------------

 SCF Done:  E(RHF) =  -669.536140435     A.U. after   15 cycles
 E2 =    -0.2091098671D+01 EUMP2 =    -0.67162723910599D+03

 The electronic state is 1-A.
 Alpha  occ. eigenvalues --  -20.60897 -20.60890 -15.85940 -11.31251 -11.27819
 Alpha  occ. eigenvalues --  -11.27807 -11.27558 -11.26826 -11.26815 -11.21053
 Alpha  occ. eigenvalues --  -11.20796 -11.20734 -11.20675 -11.20577 -11.20572
 Alpha  occ. eigenvalues --   -1.59962  -1.39518  -1.19422  -1.08828  -1.07781
 Alpha  occ. eigenvalues --   -1.04818  -1.02930  -0.95672  -0.95408  -0.86425
 Alpha  occ. eigenvalues --   -0.86218  -0.82509  -0.78985  -0.77652  -0.77480
 Alpha  occ. eigenvalues --   -0.72168  -0.71277  -0.70532  -0.65081  -0.64822
 Alpha  occ. eigenvalues --   -0.64400  -0.62165  -0.60317  -0.58778  -0.57016
 Alpha  occ. eigenvalues --   -0.55325  -0.54695  -0.53151  -0.52909  -0.52125
 Alpha  occ. eigenvalues --   -0.51833  -0.49347  -0.48925  -0.48916  -0.47303
 Alpha  occ. eigenvalues --   -0.45988  -0.45190  -0.45090  -0.44778  -0.43181
 Alpha  occ. eigenvalues --   -0.37403  -0.36419
 Alpha virt. eigenvalues --    0.04962   0.11233   0.16450   0.21004   0.23419
 Alpha virt. eigenvalues --    0.24302   0.26702   0.27324   0.27623   0.28490
 Alpha virt. eigenvalues --    0.29066   0.30689   0.31629   0.31959   0.32474

 Mulliken charges:
               1
     1  C   -0.170547
     2  C   -0.218668
     3  C   -0.170752
     4  C    0.157735
     5  C   -0.171559
     6  C   -0.218881
     7  H    0.225838
     8  H    0.223643
     9  H    0.275671
    10  H    0.277838
    11  H    0.223858
    12  N    0.493812
    13  O   -0.466139
    14  O   -0.459589
    15  C   -0.299635
    16  C   -0.299198
    17  C   -0.475611
    18  H    0.145629
    19  H    0.158932
    20  H    0.149212
    21  H    0.152111
    22  H    0.157626
    23  H    0.153110
    24  H    0.158274
    25  C   -0.297386
    26  C   -0.311472
    27  C   -0.473924
    28  H    0.144926
    29  H    0.150091
    30  H    0.141273
    31  H    0.181914
    32  H    0.156931
    33  H    0.150840
    34  H    0.154098
 Sum of Mulliken charges =  -0.00000

 Dipole moment (field-independent basis, Debye):
    X=              3.5578    Y=              1.6515    Z=             -3.3963  Tot=              5.1885
 Quadrupole moment (field-independent basis, Debye-Ang):
   XX=            -75.7100   YY=            -94.4091   ZZ=            -96.7981
   XY=              1.2192   XZ=             -8.8921   YZ=              0.3058

 Normal termination of Gaussian 16 at Thu May  6 11:03:53 2021.
