 Gaussian 16, Revision A.03,
 Gaussian 16:  EM64L-G16RevA.03 25-Dec-2016

 -------------
 #p 6-31g* mp2
 -------------

 ------------------------------------------------------
 Input file generated by CHIRIPA (05-May-2021 14:53:15)
 ------------------------------------------------------
 Symbolic Z-matrix:
 Charge =  0 Multiplicity = 1

                         Standard orientation:
 ---------------------------------------------------------------------
 Center     Atomic      Atomic             Coordinates (Angstroms)
 Number     Number       Type             X           Y           Z
 ---------------------------------------------------------------------
      1          6           0       -2.810506   -0.371231    0.282294
      2          6           0       -3.302448   -1.409438   -0.726718
      3          6           0       -2.998798   -2.844220   -0.294293
      4          1           0       -1.727772   -0.491558    0.424257
      5          1           0       -3.277359   -0.567884    1.257369
      6          1           0       -2.835870   -1.210047   -1.699942
      7          1           0       -4.384104   -1.286500   -0.866440
      8          1           0       -3.477536   -3.067022    0.664753
      9          1           0       -1.920505   -2.990135   -0.173485
     10          1           0       -3.359041   -3.570022   -1.030021
     11          6           0       -3.106747    1.067873   -0.135974
     12          6           0       -2.614805    2.106079    0.873039
     13          6           0       -2.918455    3.540861    0.440614
     14          1           0       -2.639894    1.264525   -1.111049
     15          1           0       -4.189481    1.188200   -0.277936
     16          1           0       -1.533149    1.983142    1.012760
     17          1           0       -3.081383    1.906689    1.846263
     18          1           0       -3.996748    3.686776    0.319806
     19          1           0       -2.439717    3.763663   -0.518433
     20          1           0       -2.558212    4.266664    1.176341
     21          6           0        1.060485   -2.406569    0.438041
     22          6           0        0.715463   -1.635569   -0.676877
     23          6           0        1.401733   -0.451135   -0.960944
     24          6           0        2.432363   -0.065775   -0.105030
     25          6           0        2.799614   -0.812322    1.013489
     26          6           0        2.099628   -1.993213    1.278183
     27          1           0        0.522047   -3.325290    0.651185
     28          1           0       -0.091115   -1.954138   -1.331088
     29          1           0        1.155360    0.164824   -1.817282
     30          1           0        3.608224   -0.468952    1.647260
     31          1           0        2.369750   -2.589982    2.144755
     32          7           0        3.166146    1.186257   -0.395505
     33          8           0        4.070273    1.503973    0.374073
     34          8           0        2.823267    1.826178   -1.387257
 ---------------------------------------------------------------------

 SCF Done:  E(RHF) =  -669.534356876     A.U. after   15 cycles
 E2 =    -0.2094077233D+01 EUMP2 =    -0.67162843410822D+03

 The electronic state is 1-A.
 Alpha  occ. eigenvalues --  -20.60836 -20.60831 -15.85890 -11.31283 -11.27847
 Alpha  occ. eigenvalues --  -11.27835 -11.27574 -11.26857 -11.26834 -11.22405
 Alpha  occ. eigenvalues --  -11.22126 -11.21795 -11.21742 -11.21670 -11.21071
 Alpha  occ. eigenvalues --   -1.59911  -1.39464  -1.19459  -1.08932  -1.08806
 Alpha  occ. eigenvalues --   -1.04869  -1.04015  -0.96466  -0.95674  -0.87489
 Alpha  occ. eigenvalues --   -0.86266  -0.82505  -0.80101  -0.78633  -0.77553
 Alpha  occ. eigenvalues --   -0.72108  -0.71235  -0.70567  -0.65735  -0.65109
 Alpha  occ. eigenvalues --   -0.64768  -0.62287  -0.61295  -0.59860  -0.58042
 Alpha  occ. eigenvalues --   -0.55791  -0.55349  -0.53238  -0.53143  -0.52961
 Alpha  occ. eigenvalues --   -0.52840  -0.50445  -0.48869  -0.48861  -0.48388
 Alpha  occ. eigenvalues --   -0.47140  -0.46177  -0.46073  -0.44863  -0.44221
 Alpha  occ. eigenvalues --   -0.37397  -0.36408
 Alpha virt. eigenvalues --    0.04966   0.11078   0.16403   0.19642   0.22868
 Alpha virt. eigenvalues --    0.23968   0.25540   0.25986   0.27330   0.28442
 Alpha virt. eigenvalues --    0.28830   0.29756   0.31108   0.31505   0.32205

 Mulliken charges:
               1
     1  C   -0.306723
     2  C   -0.301508
     3  C   -0.479047
     4  H    0.157026
     5  H    0.149987
     6  H    0.146382
     7  H    0.157343
     8  H    0.160159
     9  H    0.143214
    10  H    0.163040
    11  C   -0.297765
    12  C   -0.300274
    13  C   -0.476199
    14  H    0.148021
    15  H    0.150215
    16  H    0.154440
    17  H    0.151382
    18  H    0.154213
    19  H    0.157955
    20  H    0.162572
    21  C   -0.172353
    22  C   -0.221101
    23  C   -0.172559
    24  C    0.158511
    25  C   -0.170810
    26  C   -0.218280
    27  H    0.227986
    28  H    0.230337
    29  H    0.275847
    30  H    0.276015
    31  H    0.224157
    32  N    0.488073
    33  O   -0.459980
    34  O   -0.460277
 Sum of Mulliken charges =  -0.00000

 Dipole moment (field-independent basis, Debye):
    X=             -2.5855    Y=             -4.3356    Z=              1.0826  Tot=              5.1628
 Quadrupole moment (field-independent basis, Debye-Ang):
   XX=           -105.1903   YY=            -95.8140   ZZ=            -91.8064
   XY=            -11.0232   XZ=              4.9546   YZ=             -0.2284

 Normal termination of Gaussian 16 at Wed May  5 21:53:44 2021.
