 Gaussian 16, Revision A.03,
 Gaussian 16:  EM64L-G16RevA.03 25-Dec-2016

 -------------
 #p 6-31g* mp2
 -------------

 ------------------------------------------------------
 Input file generated by CHIRIPA (05-May-2021 14:57:26)
 ------------------------------------------------------
 Symbolic Z-matrix:
 Charge =  0 Multiplicity = 1

                         Standard orientation:
 ---------------------------------------------------------------------
 Center     Atomic      Atomic             Coordinates (Angstroms)
 Number     Number       Type             X           Y           Z
 ---------------------------------------------------------------------
      1          6           0       -6.378952    0.837813    0.181589
      2          6           0       -6.089197   -0.148600   -0.766857
      3          6           0       -4.807680   -0.701578   -0.847348
      4          6           0       -3.835566   -0.242687    0.040179
      5          6           0       -4.093322    0.738687    0.996085
      6          6           0       -5.381848    1.277534    1.058488
      7          1           0       -7.377188    1.261891    0.237091
      8          1           0       -6.861588   -0.492016   -1.449149
      9          1           0       -4.556065   -1.466474   -1.571946
     10          1           0       -3.302581    1.060762    1.662729
     11          1           0       -5.604015    2.043464    1.796076
     12          7           0       -2.475172   -0.820619   -0.035458
     13          8           0       -1.636285   -0.399231    0.757850
     14          8           0       -2.273541   -1.684047   -0.886619
     15          6           0        6.541750   -0.151684    0.288317
     16          6           0        5.643604   -1.071666    0.839213
     17          6           0        4.266303   -0.915867    0.656688
     18          6           0        3.819827    0.176354   -0.085607
     19          6           0        4.689554    1.109951   -0.647090
     20          6           0        6.062703    0.934274   -0.451771
     21          1           0        7.610057   -0.280432    0.435076
     22          1           0        6.012789   -1.915984    1.414430
     23          1           0        3.548826   -1.613092    1.072046
     24          1           0        4.291506    1.941614   -1.215693
     25          1           0        6.757892    1.650317   -0.880771
     26          7           0        2.363939    0.351813   -0.285610
     27          8           0        1.995945    1.322499   -0.943627
     28          8           0        1.618374   -0.484670    0.219431
 ---------------------------------------------------------------------

 SCF Done:  E(RHF) =  -868.334442939     A.U. after   16 cycles
 E2 =    -0.2600490941D+01 EUMP2 =    -0.87093493388008D+03

 The electronic state is 1-A.
 Alpha  occ. eigenvalues --  -20.59559 -20.59443 -20.59428 -20.59335 -15.84568
 Alpha  occ. eigenvalues --  -15.84459 -11.30340 -11.30248 -11.26980 -11.26935
 Alpha  occ. eigenvalues --  -11.26880 -11.26858 -11.26791 -11.26706 -11.26083
 Alpha  occ. eigenvalues --  -11.26057 -11.25994 -11.25980  -1.58581  -1.58447
 Alpha  occ. eigenvalues --   -1.38124  -1.37995  -1.18556  -1.18464  -1.07879
 Alpha  occ. eigenvalues --   -1.07779  -1.04019  -1.03933  -0.94648  -0.94529
 Alpha  occ. eigenvalues --   -0.85399  -0.85312  -0.81479  -0.81366  -0.76450
 Alpha  occ. eigenvalues --   -0.76351  -0.70873  -0.70538  -0.69938  -0.69798
 Alpha  occ. eigenvalues --   -0.69665  -0.69577  -0.64199  -0.64108  -0.64028
 Alpha  occ. eigenvalues --   -0.63942  -0.61361  -0.61278  -0.54517  -0.54428
 Alpha  occ. eigenvalues --   -0.52330  -0.52237  -0.52118  -0.52035  -0.47826
 Alpha  occ. eigenvalues --   -0.47551  -0.47422  -0.47032  -0.43446  -0.43299
 Alpha  occ. eigenvalues --   -0.36565  -0.36471  -0.35642  -0.35555
 Alpha virt. eigenvalues --    0.06090   0.06203   0.12005   0.12093   0.17507
 Alpha virt. eigenvalues --    0.17615   0.22084   0.22155   0.27967   0.28033
 Alpha virt. eigenvalues --    0.29017   0.29088   0.31603   0.31668   0.33296

 Mulliken charges:
               1
     1  C   -0.172292
     2  C   -0.218549
     3  C   -0.171618
     4  C    0.160058
     5  C   -0.170939
     6  C   -0.218577
     7  H    0.222198
     8  H    0.220347
     9  H    0.274299
    10  H    0.276202
    11  H    0.220613
    12  N    0.487206
    13  O   -0.445124
    14  O   -0.463740
    15  C   -0.172230
    16  C   -0.218678
    17  C   -0.171535
    18  C    0.159163
    19  C   -0.171925
    20  C   -0.218611
    21  H    0.222533
    22  H    0.221299
    23  H    0.278006
    24  H    0.273828
    25  H    0.220404
    26  N    0.485836
    27  O   -0.467149
    28  O   -0.441028
 Sum of Mulliken charges =  -0.00000

 Dipole moment (field-independent basis, Debye):
    X=              0.3514    Y=              1.2992    Z=              1.0790  Tot=              1.7250
 Quadrupole moment (field-independent basis, Debye-Ang):
   XX=            -33.2344   YY=           -101.9419   ZZ=           -101.8093
   XY=             -6.6611   XZ=              1.8738   YZ=              0.1962

 Normal termination of Gaussian 16 at Thu May  6 13:08:12 2021.
