 Gaussian 16, Revision A.03,
 Gaussian 16:  EM64L-G16RevA.03 25-Dec-2016

 -------------
 #p 6-31g* mp2
 -------------

 ------------------------------------------------------
 Input file generated by CHIRIPA (05-May-2021 14:57:26)
 ------------------------------------------------------
 Symbolic Z-matrix:
 Charge =  0 Multiplicity = 1

                         Standard orientation:
 ---------------------------------------------------------------------
 Center     Atomic      Atomic             Coordinates (Angstroms)
 Number     Number       Type             X           Y           Z
 ---------------------------------------------------------------------
      1          6           0        4.304399   -1.701027   -0.971454
      2          6           0        2.930029   -1.854868   -0.761788
      3          6           0        2.163249   -0.793236   -0.272364
      4          6           0        2.806268    0.413724   -0.002061
      5          6           0        4.173718    0.598083   -0.200513
      6          6           0        4.920771   -0.477200   -0.690642
      7          1           0        4.892390   -2.531030   -1.351924
      8          1           0        2.448673   -2.804164   -0.978993
      9          1           0        1.097608   -0.884908   -0.100833
     10          1           0        4.625380    1.556443    0.025243
     11          1           0        5.987952   -0.354850   -0.852506
     12          7           0        2.004955    1.544852    0.516444
     13          8           0        2.595245    2.598008    0.746784
     14          8           0        0.801769    1.356855    0.682689
     15          6           0       -3.970980    1.209901   -1.710822
     16          6           0       -3.363554    1.806266   -0.600911
     17          6           0       -2.788201    1.019795    0.401577
     18          6           0       -2.838502   -0.366243    0.261373
     19          6           0       -3.436420   -0.990127   -0.832497
     20          6           0       -4.005413   -0.183936   -1.822875
     21          1           0       -4.415458    1.828510   -2.484874
     22          1           0       -3.335334    2.888490   -0.511246
     23          1           0       -2.311533    1.455265    1.271387
     24          1           0       -3.448964   -2.071549   -0.894044
     25          1           0       -4.476475   -0.649829   -2.683742
     26          7           0       -2.232768   -1.209284    1.316251
     27          8           0       -2.290243   -2.428185    1.169232
     28          8           0       -1.711988   -0.635195    2.270111
 ---------------------------------------------------------------------

 SCF Done:  E(RHF) =  -868.339069631     A.U. after   16 cycles
 E2 =    -0.2599879093D+01 EUMP2 =    -0.87093894872351D+03

 The electronic state is 1-A.
 Alpha  occ. eigenvalues --  -20.60656 -20.60624 -20.60363 -20.60260 -15.85682
 Alpha  occ. eigenvalues --  -15.85352 -11.30923 -11.30553 -11.27509 -11.27449
 Alpha  occ. eigenvalues --  -11.27245 -11.27226 -11.26988 -11.26924 -11.26507
 Alpha  occ. eigenvalues --  -11.26440 -11.26210 -11.26035  -1.59707  -1.59402
 Alpha  occ. eigenvalues --   -1.39264  -1.38945  -1.19090  -1.18746  -1.08514
 Alpha  occ. eigenvalues --   -1.08188  -1.04473  -1.04112  -0.95371  -0.95032
 Alpha  occ. eigenvalues --   -0.85881  -0.85527  -0.82205  -0.81859  -0.77270
 Alpha  occ. eigenvalues --   -0.76898  -0.71949  -0.71565  -0.71012  -0.70719
 Alpha  occ. eigenvalues --   -0.70209  -0.69859  -0.64751  -0.64480  -0.64400
 Alpha  occ. eigenvalues --   -0.64124  -0.61819  -0.61440  -0.54999  -0.54669
 Alpha  occ. eigenvalues --   -0.52812  -0.52567  -0.52470  -0.52202  -0.48684
 Alpha  occ. eigenvalues --   -0.48664  -0.48350  -0.48301  -0.44713  -0.44341
 Alpha  occ. eigenvalues --   -0.37075  -0.36761  -0.36067  -0.35687
 Alpha virt. eigenvalues --    0.05271   0.05592   0.11587   0.11946   0.16761
 Alpha virt. eigenvalues --    0.17107   0.21629   0.22052   0.27481   0.27962
 Alpha virt. eigenvalues --    0.28315   0.29004   0.30985   0.31593   0.32485

 Mulliken charges:
               1
     1  C   -0.170646
     2  C   -0.219066
     3  C   -0.166798
     4  C    0.157852
     5  C   -0.171128
     6  C   -0.218919
     7  H    0.225088
     8  H    0.226128
     9  H    0.276363
    10  H    0.274289
    11  H    0.222307
    12  N    0.491213
    13  O   -0.462539
    14  O   -0.464249
    15  C   -0.170714
    16  C   -0.220470
    17  C   -0.157233
    18  C    0.151384
    19  C   -0.174175
    20  C   -0.220140
    21  H    0.223467
    22  H    0.225602
    23  H    0.287977
    24  H    0.270863
    25  H    0.219653
    26  N    0.485572
    27  O   -0.470402
    28  O   -0.451279
 Sum of Mulliken charges =  -0.00000

 Dipole moment (field-independent basis, Debye):
    X=              0.7951    Y=             -0.8086    Z=             -5.3645  Tot=              5.4831
 Quadrupole moment (field-independent basis, Debye-Ang):
   XX=            -74.8331   YY=           -106.1508   ZZ=           -106.8984
   XY=            -14.9024   XZ=              5.4451   YZ=              4.0804

 Normal termination of Gaussian 16 at Thu May  6 03:36:10 2021.
