 Gaussian 16, Revision A.03,
 Gaussian 16:  EM64L-G16RevA.03 25-Dec-2016

 -------------
 #p 6-31g* mp2
 -------------

 ------------------------------------------------------
 Input file generated by CHIRIPA (05-May-2021 14:55:24)
 ------------------------------------------------------
 Symbolic Z-matrix:
 Charge =  0 Multiplicity = 1

                         Standard orientation:
 ---------------------------------------------------------------------
 Center     Atomic      Atomic             Coordinates (Angstroms)
 Number     Number       Type             X           Y           Z
 ---------------------------------------------------------------------
      1          6           0        0.262122   -2.350919    1.440957
      2          6           0        0.516040   -2.616651    0.091352
      3          6           0        1.319424   -1.756189   -0.662787
      4          6           0        1.855150   -0.634115   -0.032519
      5          6           0        1.620557   -0.342212    1.310257
      6          6           0        0.814218   -1.216548    2.045037
      7          1           0       -0.363114   -3.024736    2.019271
      8          1           0        0.088602   -3.496867   -0.380412
      9          1           0        1.532227   -1.937955   -1.709255
     10          1           0        2.060625    0.543153    1.752849
     11          1           0        0.618723   -1.007666    3.092985
     12          7           0        2.707221    0.284162   -0.820646
     13          8           0        3.167396    1.266023   -0.242005
     14          8           0        2.898765    0.004658   -2.002096
     15          6           0       -2.822330    0.592530    0.014063
     16          6           0       -3.050214   -0.525071   -1.004280
     17          6           0       -4.309393   -1.342164   -0.713384
     18          1           0       -2.753258    0.155261    1.019532
     19          1           0       -3.697831    1.256488    0.021433
     20          1           0       -2.173955   -1.185937   -1.010721
     21          1           0       -3.118560   -0.085109   -2.007464
     22          1           0       -5.196527   -0.700752   -0.726951
     23          1           0       -4.246554   -1.807834    0.275456
     24          1           0       -4.453026   -2.135549   -1.453497
     25          6           0       -1.567349    1.418241   -0.263338
     26          6           0       -1.339465    2.535842    0.755004
     27          6           0       -0.080286    3.352936    0.464108
     28          1           0       -0.691848    0.754284   -0.270709
     29          1           0       -1.636420    1.855510   -1.268809
     30          1           0       -1.271119    2.095881    1.758188
     31          1           0       -2.215725    3.196709    0.761445
     32          1           0       -0.143125    3.818606   -0.524732
     33          1           0        0.806848    2.711524    0.477675
     34          1           0        0.063347    4.146321    1.204222
 ---------------------------------------------------------------------

 SCF Done:  E(RHF) =  -669.535346899     A.U. after   15 cycles
 E2 =    -0.2096399095D+01 EUMP2 =    -0.67163174599349D+03

 The electronic state is 1-A.
 Alpha  occ. eigenvalues --  -20.61011 -20.61005 -15.86023 -11.31377 -11.27979
 Alpha  occ. eigenvalues --  -11.27963 -11.27735 -11.27007 -11.26990 -11.21726
 Alpha  occ. eigenvalues --  -11.21449 -11.21440 -11.21371 -11.21182 -11.20588
 Alpha  occ. eigenvalues --   -1.60060  -1.39617  -1.19602  -1.08981  -1.08405
 Alpha  occ. eigenvalues --   -1.04995  -1.03501  -0.95930  -0.95809  -0.86941
 Alpha  occ. eigenvalues --   -0.86383  -0.82640  -0.79569  -0.78223  -0.77687
 Alpha  occ. eigenvalues --   -0.72252  -0.71381  -0.70683  -0.65243  -0.65079
 Alpha  occ. eigenvalues --   -0.64983  -0.62344  -0.60909  -0.59335  -0.57545
 Alpha  occ. eigenvalues --   -0.55491  -0.55258  -0.53371  -0.53069  -0.52619
 Alpha  occ. eigenvalues --   -0.52319  -0.49894  -0.49010  -0.49005  -0.47891
 Alpha  occ. eigenvalues --   -0.46655  -0.45739  -0.45629  -0.44871  -0.43738
 Alpha  occ. eigenvalues --   -0.37513  -0.36557
 Alpha virt. eigenvalues --    0.04794   0.10951   0.16226   0.20891   0.22949
 Alpha virt. eigenvalues --    0.23932   0.26512   0.26772   0.27319   0.27880
 Alpha virt. eigenvalues --    0.28437   0.30294   0.31467   0.31768   0.31892

 Mulliken charges:
               1
     1  C   -0.171088
     2  C   -0.216386
     3  C   -0.172159
     4  C    0.160072
     5  C   -0.174042
     6  C   -0.216258
     7  H    0.227177
     8  H    0.225415
     9  H    0.276963
    10  H    0.277113
    11  H    0.224946
    12  N    0.488950
    13  O   -0.458659
    14  O   -0.457925
    15  C   -0.295309
    16  C   -0.302963
    17  C   -0.475129
    18  H    0.144202
    19  H    0.149370
    20  H    0.150411
    21  H    0.153690
    22  H    0.157089
    23  H    0.150254
    24  H    0.158532
    25  C   -0.304464
    26  C   -0.298855
    27  C   -0.484554
    28  H    0.155696
    29  H    0.151458
    30  H    0.143463
    31  H    0.150994
    32  H    0.158426
    33  H    0.165682
    34  H    0.157886
 Sum of Mulliken charges =  -0.00000

 Dipole moment (field-independent basis, Debye):
    X=             -2.7467    Y=             -3.3092    Z=              2.7122  Tot=              5.0844
 Quadrupole moment (field-independent basis, Debye-Ang):
   XX=           -107.3722   YY=            -89.4297   ZZ=            -91.5373
   XY=             -4.6578   XZ=              6.2674   YZ=              0.3881

 Normal termination of Gaussian 16 at Thu May  6 17:42:28 2021.
