 Gaussian 16, Revision A.03,
 Gaussian 16:  EM64L-G16RevA.03 25-Dec-2016

 -------------
 #p 6-31g* mp2
 -------------

 ------------------------------------------------------
 Input file generated by CHIRIPA (05-May-2021 14:55:23)
 ------------------------------------------------------
 Symbolic Z-matrix:
 Charge =  0 Multiplicity = 1

                         Standard orientation:
 ---------------------------------------------------------------------
 Center     Atomic      Atomic             Coordinates (Angstroms)
 Number     Number       Type             X           Y           Z
 ---------------------------------------------------------------------
      1          6           0       -0.926224   -1.482183    0.175630
      2          6           0       -1.013671   -0.112782   -0.095690
      3          6           0       -2.259864    0.512516   -0.198415
      4          6           0       -3.403335   -0.265378   -0.023355
      5          6           0       -3.348983   -1.631666    0.247926
      6          6           0       -2.092103   -2.235926    0.346271
      7          1           0        0.046000   -1.959759    0.253728
      8          1           0       -0.109910    0.475074   -0.228679
      9          1           0       -2.356482    1.570967   -0.407617
     10          1           0       -4.267560   -2.191433    0.375578
     11          1           0       -2.027222   -3.299598    0.557070
     12          7           0       -4.728280    0.385461   -0.129787
     13          8           0       -5.720767   -0.322015    0.028593
     14          8           0       -4.749198    1.590742   -0.369573
     15          6           0        4.377431   -0.086272   -0.411809
     16          6           0        5.301873   -1.007818    0.384526
     17          6           0        5.895643   -2.129666   -0.467934
     18          1           0        3.566551   -0.682442   -0.852261
     19          1           0        4.938078    0.347466   -1.251417
     20          1           0        4.740025   -1.438611    1.223191
     21          1           0        6.110540   -0.409354    0.823291
     22          1           0        6.479793   -1.716039   -1.296355
     23          1           0        5.101491   -2.751144   -0.894184
     24          1           0        6.553268   -2.776432    0.121205
     25          6           0        3.776086    1.040240    0.426692
     26          6           0        2.851645    1.961786   -0.369642
     27          6           0        2.257874    3.083635    0.482817
     28          1           0        3.215440    0.606503    1.266300
     29          1           0        4.586967    1.636411    0.867144
     30          1           0        2.042978    1.363324   -0.808408
     31          1           0        3.413493    2.392579   -1.208308
     32          1           0        3.052027    3.705112    0.909066
     33          1           0        1.673724    2.670008    1.311238
     34          1           0        1.600250    3.730400   -0.106322
 ---------------------------------------------------------------------

 SCF Done:  E(RHF) =  -669.535490444     A.U. after   15 cycles
 E2 =    -0.2091237214D+01 EUMP2 =    -0.67162672765757D+03

 The electronic state is 1-A.
 Alpha  occ. eigenvalues --  -20.60748 -20.60743 -15.85801 -11.31169 -11.27742
 Alpha  occ. eigenvalues --  -11.27731 -11.27490 -11.26761 -11.26727 -11.22674
 Alpha  occ. eigenvalues --  -11.22377 -11.22332 -11.22253 -11.21968 -11.21751
 Alpha  occ. eigenvalues --   -1.59823  -1.39376  -1.19343  -1.09348  -1.08740
 Alpha  occ. eigenvalues --   -1.04748  -1.04407  -0.96831  -0.95574  -0.87841
 Alpha  occ. eigenvalues --   -0.86148  -0.82406  -0.80473  -0.79147  -0.77451
 Alpha  occ. eigenvalues --   -0.72020  -0.71146  -0.70457  -0.66050  -0.64995
 Alpha  occ. eigenvalues --   -0.64743  -0.62210  -0.61693  -0.60196  -0.58437
 Alpha  occ. eigenvalues --   -0.56128  -0.55249  -0.53510  -0.53242  -0.53077
 Alpha  occ. eigenvalues --   -0.52841  -0.50775  -0.48819  -0.48774  -0.48730
 Alpha  occ. eigenvalues --   -0.47522  -0.46680  -0.46615  -0.44781  -0.44658
 Alpha  occ. eigenvalues --   -0.37329  -0.36348
 Alpha virt. eigenvalues --    0.05083   0.11286   0.16565   0.18569   0.22787
 Alpha virt. eigenvalues --    0.23352   0.25319   0.26448   0.26685   0.28324
 Alpha virt. eigenvalues --    0.29392   0.29813   0.30924   0.31075   0.31949

 Mulliken charges:
               1
     1  C   -0.173543
     2  C   -0.227758
     3  C   -0.173201
     4  C    0.158979
     5  C   -0.171204
     6  C   -0.218436
     7  H    0.225294
     8  H    0.236916
     9  H    0.276321
    10  H    0.275546
    11  H    0.223299
    12  N    0.488035
    13  O   -0.460577
    14  O   -0.460321
    15  C   -0.297730
    16  C   -0.300163
    17  C   -0.475829
    18  H    0.143676
    19  H    0.153137
    20  H    0.150409
    21  H    0.154850
    22  H    0.157346
    23  H    0.153472
    24  H    0.162523
    25  C   -0.299325
    26  C   -0.304910
    27  C   -0.478635
    28  H    0.147288
    29  H    0.154523
    30  H    0.143385
    31  H    0.158339
    32  H    0.160801
    33  H    0.154787
    34  H    0.162705
 Sum of Mulliken charges =  -0.00000

 Dipole moment (field-independent basis, Debye):
    X=              4.9030    Y=             -2.2034    Z=              0.3943  Tot=              5.3898
 Quadrupole moment (field-independent basis, Debye-Ang):
   XX=           -124.5730   YY=            -89.7947   ZZ=            -95.6763
   XY=             10.0856   XZ=             -1.7840   YZ=             -1.5228

 Normal termination of Gaussian 16 at Wed May  5 17:32:18 2021.
