 Gaussian 16, Revision A.03,
 Gaussian 16:  EM64L-G16RevA.03 25-Dec-2016

 -------------
 #p 6-31g* mp2
 -------------

 ------------------------------------------------------
 Input file generated by CHIRIPA (05-May-2021 14:51:09)
 ------------------------------------------------------
 Symbolic Z-matrix:
 Charge =  0 Multiplicity = 1

                         Standard orientation:
 ---------------------------------------------------------------------
 Center     Atomic      Atomic             Coordinates (Angstroms)
 Number     Number       Type             X           Y           Z
 ---------------------------------------------------------------------
      1          6           0       -4.095092   -0.011885   -0.224638
      2          6           0       -5.300781   -0.909100   -0.506248
      3          6           0       -6.262593   -0.303122   -1.528745
      4          1           0       -4.448452    0.963957    0.135659
      5          1           0       -3.559976    0.177375   -1.165503
      6          1           0       -5.832672   -1.097743    0.435093
      7          1           0       -4.944503   -1.882985   -0.865734
      8          1           0       -5.752802   -0.130695   -2.482152
      9          1           0       -6.646018    0.659009   -1.173934
     10          1           0       -7.117178   -0.961009   -1.715101
     11          6           0       -3.124421   -0.604068    0.795581
     12          6           0       -1.918731    0.293147    1.077190
     13          6           0       -0.956919   -0.312831    2.099688
     14          1           0       -3.659536   -0.793328    1.736446
     15          1           0       -2.771060   -1.579910    0.435284
     16          1           0       -2.275010    1.267032    1.436677
     17          1           0       -1.386840    0.481790    0.135850
     18          1           0       -0.573494   -1.274962    1.744877
     19          1           0       -1.466710   -0.485258    3.053095
     20          1           0       -0.102334    0.345056    2.286044
     21          6           0        3.986981   -0.285258    0.013203
     22          6           0        5.148103   -0.766146   -0.857733
     23          6           0        5.893034   -1.953461   -0.246868
     24          1           0        4.370812   -0.008365    1.004641
     25          1           0        3.286586   -1.117211    0.170352
     26          1           0        5.845395    0.066844   -1.014337
     27          1           0        4.761492   -1.041745   -1.847274
     28          1           0        5.215780   -2.802062   -0.106130
     29          1           0        6.305842   -1.687174    0.731540
     30          1           0        6.719041   -2.280968   -0.885861
     31          6           0        3.232531    0.901210   -0.584146
     32          6           0        2.071410    1.382100    0.286789
     33          6           0        1.326478    2.569415   -0.324075
     34          1           0        3.932926    1.733163   -0.741295
     35          1           0        2.848701    0.624318   -1.575584
     36          1           0        2.458020    1.657698    1.276332
     37          1           0        1.374117    0.549109    0.443395
     38          1           0        0.913670    2.303126   -1.302482
     39          1           0        2.003731    3.418014   -0.464812
     40          1           0        0.500471    2.896922    0.314918
 ---------------------------------------------------------------------

 SCF Done:  E(RHF) =  -470.732706975     A.U. after   11 cycles
 E2 =    -0.1583436388D+01 EUMP2 =    -0.47231614336360D+03

 The electronic state is 1-A.
 Alpha  occ. eigenvalues --  -11.21606 -11.21599 -11.21594 -11.21533 -11.21409
 Alpha  occ. eigenvalues --  -11.21388 -11.21350 -11.21328 -11.21074 -11.21065
 Alpha  occ. eigenvalues --  -11.21051 -11.21023  -1.08453  -1.08398  -1.03593
 Alpha  occ. eigenvalues --   -1.03459  -0.96026  -0.95923  -0.87031  -0.86949
 Alpha  occ. eigenvalues --   -0.79654  -0.79526  -0.78254  -0.78227  -0.65156
 Alpha  occ. eigenvalues --   -0.64977  -0.61135  -0.60764  -0.59610  -0.59117
 Alpha  occ. eigenvalues --   -0.57792  -0.57319  -0.55331  -0.55184  -0.52725
 Alpha  occ. eigenvalues --   -0.52613  -0.52411  -0.52383  -0.49983  -0.49854
 Alpha  occ. eigenvalues --   -0.48035  -0.47757  -0.46629  -0.46589  -0.45788
 Alpha  occ. eigenvalues --   -0.45761  -0.45730  -0.45652  -0.43822  -0.43697
 Alpha virt. eigenvalues --    0.21108   0.23173   0.23385   0.25071   0.26113
 Alpha virt. eigenvalues --    0.26825   0.26885   0.26970   0.28265   0.29209
 Alpha virt. eigenvalues --    0.29769   0.31325   0.31669   0.31810   0.32033

 Mulliken charges:
               1
     1  C   -0.298236
     2  C   -0.299644
     3  C   -0.475700
     4  H    0.149749
     5  H    0.149413
     6  H    0.151966
     7  H    0.151840
     8  H    0.155157
     9  H    0.155236
    10  H    0.160251
    11  C   -0.298170
    12  C   -0.302955
    13  C   -0.480916
    14  H    0.149674
    15  H    0.149351
    16  H    0.151737
    17  H    0.155182
    18  H    0.153764
    19  H    0.155564
    20  H    0.166276
    21  C   -0.298265
    22  C   -0.299612
    23  C   -0.475679
    24  H    0.149684
    25  H    0.149400
    26  H    0.151950
    27  H    0.151775
    28  H    0.155126
    29  H    0.155230
    30  H    0.160199
    31  C   -0.297625
    32  C   -0.307827
    33  C   -0.476493
    34  H    0.149272
    35  H    0.149104
    36  H    0.150792
    37  H    0.162034
    38  H    0.154411
    39  H    0.154973
    40  H    0.162012
 Sum of Mulliken charges =  -0.00000

 Dipole moment (field-independent basis, Debye):
    X=             -0.0067    Y=              0.0039    Z=              0.0114  Tot=              0.0138
 Quadrupole moment (field-independent basis, Debye-Ang):
   XX=            -85.2605   YY=            -85.0365   ZZ=            -84.6129
   XY=              0.9105   XZ=             -0.8100   YZ=              1.1974

 Normal termination of Gaussian 16 at Thu May  6 00:35:19 2021.
