 Gaussian 16, Revision A.03,
 Gaussian 16:  EM64L-G16RevA.03 25-Dec-2016

 -------------
 #p 6-31g* mp2
 -------------

 ------------------------------------------------------
 Input file generated by CHIRIPA (05-May-2021 14:57:22)
 ------------------------------------------------------
 Symbolic Z-matrix:
 Charge =  0 Multiplicity = 1

                         Standard orientation:
 ---------------------------------------------------------------------
 Center     Atomic      Atomic             Coordinates (Angstroms)
 Number     Number       Type             X           Y           Z
 ---------------------------------------------------------------------
      1          6           0       -3.427464   -2.238649    0.552575
      2          6           0       -3.635020   -1.684392   -0.714801
      3          6           0       -3.418821   -0.321260   -0.937686
      4          6           0       -2.993326    0.461866    0.134208
      5          6           0       -2.777761   -0.060859    1.408406
      6          6           0       -3.000250   -1.426545    1.608272
      7          1           0       -3.597855   -3.298555    0.716776
      8          1           0       -3.966786   -2.312678   -1.536526
      9          1           0       -3.571765    0.133854   -1.908715
     10          1           0       -2.446895    0.590780    2.207976
     11          1           0       -2.838247   -1.854261    2.593594
     12          7           0       -2.761117    1.906305   -0.089566
     13          8           0       -2.386377    2.574853    0.871294
     14          8           0       -2.958247    2.342558   -1.221582
     15          6           0        0.904868   -1.387980   -0.869405
     16          6           0        2.032616   -2.139196   -0.522445
     17          6           0        3.216333   -1.504788   -0.134000
     18          6           0        3.237201   -0.111257   -0.103578
     19          6           0        2.130256    0.664907   -0.443477
     20          6           0        0.957195    0.009211   -0.828885
     21          1           0       -0.010532   -1.889072   -1.169979
     22          1           0        1.994870   -3.224409   -0.552993
     23          1           0        4.104095   -2.061904    0.139710
     24          1           0        2.198353    1.745263   -0.403328
     25          1           0        0.082913    0.595177   -1.097804
     26          7           0        4.484708    0.571630    0.306044
     27          8           0        4.477368    1.800548    0.324659
     28          8           0        5.446224   -0.134969    0.600734
 ---------------------------------------------------------------------

 SCF Done:  E(RHF) =  -868.338131510     A.U. after   16 cycles
 E2 =    -0.2600810758D+01 EUMP2 =    -0.87093894226789D+03

 The electronic state is 1-A.
 Alpha  occ. eigenvalues --  -20.61759 -20.61744 -20.60609 -20.60592 -15.86799
 Alpha  occ. eigenvalues --  -15.85657 -11.32216 -11.31042 -11.28818 -11.28724
 Alpha  occ. eigenvalues --  -11.28513 -11.27828 -11.27725 -11.27663 -11.27561
 Alpha  occ. eigenvalues --  -11.27389 -11.26699 -11.26592  -1.60842  -1.59679
 Alpha  occ. eigenvalues --   -1.40384  -1.39231  -1.20399  -1.19228  -1.09781
 Alpha  occ. eigenvalues --   -1.08626  -1.05779  -1.04629  -0.96596  -0.95450
 Alpha  occ. eigenvalues --   -0.87168  -0.86034  -0.83404  -0.82276  -0.78453
 Alpha  occ. eigenvalues --   -0.77318  -0.72994  -0.72207  -0.71873  -0.71457
 Alpha  occ. eigenvalues --   -0.71005  -0.70338  -0.66023  -0.65745  -0.64879
 Alpha  occ. eigenvalues --   -0.64641  -0.63098  -0.61970  -0.56256  -0.55176
 Alpha  occ. eigenvalues --   -0.54127  -0.53838  -0.52956  -0.52713  -0.49772
 Alpha  occ. eigenvalues --   -0.49756  -0.48640  -0.48625  -0.45763  -0.44631
 Alpha  occ. eigenvalues --   -0.38395  -0.37441  -0.37178  -0.36226
 Alpha virt. eigenvalues --    0.04041   0.05215   0.10202   0.11416   0.15530
 Alpha virt. eigenvalues --    0.16689   0.20514   0.21310   0.26461   0.26882
 Alpha virt. eigenvalues --    0.27477   0.28238   0.29975   0.30867   0.31719

 Mulliken charges:
               1
     1  C   -0.173090
     2  C   -0.222990
     3  C   -0.177724
     4  C    0.152862
     5  C   -0.168559
     6  C   -0.217859
     7  H    0.228546
     8  H    0.226095
     9  H    0.277802
    10  H    0.280107
    11  H    0.228050
    12  N    0.486342
    13  O   -0.454977
    14  O   -0.459973
    15  C   -0.171834
    16  C   -0.219824
    17  C   -0.171443
    18  C    0.157920
    19  C   -0.170546
    20  C   -0.221420
    21  H    0.223147
    22  H    0.219943
    23  H    0.274515
    24  H    0.280987
    25  H    0.226182
    26  N    0.487936
    27  O   -0.458145
    28  O   -0.462048
 Sum of Mulliken charges =  -0.00000

 Dipole moment (field-independent basis, Debye):
    X=             -5.4107    Y=             -7.3762    Z=             -0.4895  Tot=              9.1610
 Quadrupole moment (field-independent basis, Debye-Ang):
   XX=           -128.0404   YY=           -105.6057   ZZ=           -100.2843
   XY=              5.9521   XZ=             -5.3131   YZ=             -0.0812

 Normal termination of Gaussian 16 at Thu May  6 03:22:14 2021.
