 Gaussian 16, Revision A.03,
 Gaussian 16:  EM64L-G16RevA.03 25-Dec-2016

 -------------
 #p 6-31g* mp2
 -------------

 ------------------------------------------------------
 Input file generated by CHIRIPA (05-May-2021 14:55:25)
 ------------------------------------------------------
 Symbolic Z-matrix:
 Charge =  0 Multiplicity = 1

                         Standard orientation:
 ---------------------------------------------------------------------
 Center     Atomic      Atomic             Coordinates (Angstroms)
 Number     Number       Type             X           Y           Z
 ---------------------------------------------------------------------
      1          6           0        1.767674   -2.265327    1.322225
      2          6           0        3.103354   -1.887692    1.149391
      3          6           0        3.435193   -0.809405    0.323724
      4          6           0        2.401416   -0.127920   -0.316724
      5          6           0        1.061189   -0.479993   -0.164648
      6          6           0        0.752644   -1.561513    0.665811
      7          1           0        1.518942   -3.104222    1.965484
      8          1           0        3.893719   -2.432458    1.657918
      9          1           0        4.460888   -0.495722    0.172167
     10          1           0        0.295220    0.082298   -0.684781
     11          1           0       -0.285538   -1.852553    0.798175
     12          7           0        2.740388    1.015326   -1.193357
     13          8           0        1.811135    1.599469   -1.746441
     14          8           0        3.928910    1.305611   -1.310780
     15          6           0       -3.244986   -0.305504    0.079625
     16          6           0       -4.067631   -0.421943   -1.203997
     17          6           0       -4.545983   -1.849204   -1.472141
     18          1           0       -2.378665   -0.977971    0.014643
     19          1           0       -3.849752   -0.655896    0.927491
     20          1           0       -3.461973   -0.070138   -2.048998
     21          1           0       -4.931989    0.251022   -1.136030
     22          1           0       -5.172033   -2.206854   -0.648281
     23          1           0       -3.693666   -2.529838   -1.566436
     24          1           0       -5.132022   -1.909578   -2.394514
     25          6           0       -2.759619    1.115338    0.361321
     26          6           0       -1.936975    1.231777    1.644942
     27          6           0       -1.458622    2.659037    1.913086
     28          1           0       -2.154853    1.465729   -0.486547
     29          1           0       -3.625939    1.787805    0.426303
     30          1           0       -1.072616    0.558812    1.576976
     31          1           0       -2.542631    0.879971    2.489944
     32          1           0       -2.310939    3.339672    2.007380
     33          1           0       -0.832571    3.016689    1.089226
     34          1           0       -0.872582    2.719411    2.835460
 ---------------------------------------------------------------------

 SCF Done:  E(RHF) =  -669.534558021     A.U. after   15 cycles
 E2 =    -0.2094104237D+01 EUMP2 =    -0.67162866225774D+03

 The electronic state is 1-A.
 Alpha  occ. eigenvalues --  -20.60820 -20.60813 -15.85871 -11.31229 -11.27800
 Alpha  occ. eigenvalues --  -11.27790 -11.27529 -11.26810 -11.26768 -11.22155
 Alpha  occ. eigenvalues --  -11.22070 -11.21934 -11.21826 -11.21536 -11.21156
 Alpha  occ. eigenvalues --   -1.59892  -1.39446  -1.19408  -1.08969  -1.08794
 Alpha  occ. eigenvalues --   -1.04820  -1.03923  -0.96384  -0.95635  -0.87390
 Alpha  occ. eigenvalues --   -0.86205  -0.82487  -0.80008  -0.78812  -0.77510
 Alpha  occ. eigenvalues --   -0.72090  -0.71214  -0.70523  -0.65707  -0.65026
 Alpha  occ. eigenvalues --   -0.64817  -0.62151  -0.61287  -0.59750  -0.57995
 Alpha  occ. eigenvalues --   -0.55699  -0.55283  -0.53174  -0.53032  -0.52916
 Alpha  occ. eigenvalues --   -0.52766  -0.50309  -0.48848  -0.48845  -0.48311
 Alpha  occ. eigenvalues --   -0.47062  -0.46291  -0.46217  -0.44852  -0.44224
 Alpha  occ. eigenvalues --   -0.37381  -0.36344
 Alpha virt. eigenvalues --    0.04976   0.11207   0.16345   0.19078   0.22831
 Alpha virt. eigenvalues --    0.23800   0.24940   0.25929   0.27388   0.28368
 Alpha virt. eigenvalues --    0.30404   0.31165   0.31441   0.31594   0.31726

 Mulliken charges:
               1
     1  C   -0.171791
     2  C   -0.218700
     3  C   -0.170638
     4  C    0.157423
     5  C   -0.173396
     6  C   -0.224324
     7  H    0.226466
     8  H    0.223692
     9  H    0.275803
    10  H    0.280033
    11  H    0.231471
    12  N    0.488123
    13  O   -0.461248
    14  O   -0.459972
    15  C   -0.302945
    16  C   -0.299992
    17  C   -0.475974
    18  H    0.138617
    19  H    0.151686
    20  H    0.155605
    21  H    0.155686
    22  H    0.155224
    23  H    0.152491
    24  H    0.163674
    25  C   -0.304351
    26  C   -0.307400
    27  C   -0.477411
    28  H    0.154967
    29  H    0.154782
    30  H    0.151096
    31  H    0.150899
    32  H    0.156098
    33  H    0.163673
    34  H    0.160635
 Sum of Mulliken charges =  -0.00000

 Dipole moment (field-independent basis, Debye):
    X=             -1.2500    Y=             -3.9243    Z=              3.0464  Tot=              5.1229
 Quadrupole moment (field-independent basis, Debye-Ang):
   XX=            -94.5906   YY=            -94.9566   ZZ=            -97.0758
   XY=            -11.2110   XZ=              8.6809   YZ=              0.4221

 Normal termination of Gaussian 16 at Thu May  6 19:24:10 2021.
