 Gaussian 16, Revision A.03,
 Gaussian 16:  EM64L-G16RevA.03 25-Dec-2016

 -------------
 #p 6-31g* mp2
 -------------

 ------------------------------------------------------
 Input file generated by CHIRIPA (05-May-2021 14:55:20)
 ------------------------------------------------------
 Symbolic Z-matrix:
 Charge =  0 Multiplicity = 1

                         Standard orientation:
 ---------------------------------------------------------------------
 Center     Atomic      Atomic             Coordinates (Angstroms)
 Number     Number       Type             X           Y           Z
 ---------------------------------------------------------------------
      1          6           0        6.107010   -0.405344    1.052992
      2          6           0        5.642703    0.908684    0.933529
      3          6           0        4.410529    1.174103    0.328675
      4          6           0        3.665213    0.096707   -0.147784
      5          6           0        4.100643   -1.223458   -0.043601
      6          6           0        5.335858   -1.465352    0.564906
      7          1           0        7.065373   -0.602390    1.524276
      8          1           0        6.239462    1.733869    1.311674
      9          1           0        4.027103    2.181702    0.223097
     10          1           0        3.483347   -2.025302   -0.430136
     11          1           0        5.693931   -2.486858    0.656310
     12          7           0        2.359156    0.365242   -0.790050
     13          8           0        1.721458   -0.601456   -1.201721
     14          8           0        1.997898    1.537333   -0.869625
     15          6           0       -5.694828   -0.248308   -0.090798
     16          6           0       -6.670752    0.275138    0.963509
     17          6           0       -8.122913   -0.095349    0.660589
     18          1           0       -5.978943    0.150364   -1.074304
     19          1           0       -5.789200   -1.341039   -0.157332
     20          1           0       -6.573582    1.366413    1.029017
     21          1           0       -6.384166   -0.124673    1.944649
     22          1           0       -8.241687   -1.182757    0.615460
     23          1           0       -8.432181    0.316801   -0.305375
     24          1           0       -8.803457    0.288751    1.426871
     25          6           0       -4.239168    0.114037    0.198141
     26          6           0       -3.263243   -0.409408   -0.856166
     27          6           0       -1.811082   -0.038921   -0.553246
     28          1           0       -4.144796    1.206769    0.264676
     29          1           0       -3.955052   -0.284634    1.181647
     30          1           0       -3.549829   -0.009597   -1.837306
     31          1           0       -3.360413   -1.500683   -0.921674
     32          1           0       -1.501815   -0.451071    0.412719
     33          1           0       -1.692307    1.048487   -0.508116
     34          1           0       -1.130538   -0.423021   -1.319528
 ---------------------------------------------------------------------

 SCF Done:  E(RHF) =  -669.536081425     A.U. after   15 cycles
 E2 =    -0.2091029661D+01 EUMP2 =    -0.67162711108613D+03

 The electronic state is 1-A.
 Alpha  occ. eigenvalues --  -20.60912 -20.60894 -15.85931 -11.31272 -11.27835
 Alpha  occ. eigenvalues --  -11.27831 -11.27575 -11.26845 -11.26836 -11.20992
 Alpha  occ. eigenvalues --  -11.20617 -11.20570 -11.20404 -11.20297 -11.19179
 Alpha  occ. eigenvalues --   -1.59954  -1.39512  -1.19439  -1.08840  -1.07524
 Alpha  occ. eigenvalues --   -1.04838  -1.02511  -0.95682  -0.94918  -0.86238
 Alpha  occ. eigenvalues --   -0.85925  -0.82513  -0.78612  -0.77563  -0.77298
 Alpha  occ. eigenvalues --   -0.72152  -0.71266  -0.70548  -0.65095  -0.64841
 Alpha  occ. eigenvalues --   -0.64171  -0.62185  -0.59925  -0.58363  -0.56518
 Alpha  occ. eigenvalues --   -0.55342  -0.54232  -0.53169  -0.52931  -0.51586
 Alpha  occ. eigenvalues --   -0.51355  -0.48936  -0.48865  -0.48844  -0.46897
 Alpha  occ. eigenvalues --   -0.45695  -0.44929  -0.44830  -0.44744  -0.42686
 Alpha  occ. eigenvalues --   -0.37418  -0.36440
 Alpha virt. eigenvalues --    0.04962   0.11215   0.16458   0.21350   0.23690
 Alpha virt. eigenvalues --    0.25395   0.27264   0.27489   0.28224   0.28329
 Alpha virt. eigenvalues --    0.29158   0.30913   0.32353   0.32458   0.32580

 Mulliken charges:
               1
     1  C   -0.170647
     2  C   -0.218586
     3  C   -0.170711
     4  C    0.158303
     5  C   -0.170810
     6  C   -0.218559
     7  H    0.225883
     8  H    0.223734
     9  H    0.275843
    10  H    0.275736
    11  H    0.223713
    12  N    0.489337
    13  O   -0.459474
    14  O   -0.459054
    15  C   -0.297254
    16  C   -0.298841
    17  C   -0.475159
    18  H    0.148700
    19  H    0.147723
    20  H    0.151242
    21  H    0.150485
    22  H    0.154173
    23  H    0.154637
    24  H    0.158226
    25  C   -0.296926
    26  C   -0.300954
    27  C   -0.478260
    28  H    0.148532
    29  H    0.146704
    30  H    0.149270
    31  H    0.147169
    32  H    0.145807
    33  H    0.156074
    34  H    0.183943
 Sum of Mulliken charges =  -0.00000

 Dipole moment (field-independent basis, Debye):
    X=              4.9924    Y=             -0.9200    Z=              2.1744  Tot=              5.5225
 Quadrupole moment (field-independent basis, Debye-Ang):
   XX=            -64.2612   YY=            -89.4426   ZZ=            -95.8958
   XY=             -2.7718   XZ=              8.1205   YZ=              0.7377

 Normal termination of Gaussian 16 at Thu May  6 02:55:58 2021.
