 Gaussian 16, Revision A.03,
 Gaussian 16:  EM64L-G16RevA.03 25-Dec-2016

 -------------
 #p 6-31g* mp2
 -------------

 ------------------------------------------------------
 Input file generated by CHIRIPA (05-May-2021 14:57:25)
 ------------------------------------------------------
 Symbolic Z-matrix:
 Charge =  0 Multiplicity = 1

                         Standard orientation:
 ---------------------------------------------------------------------
 Center     Atomic      Atomic             Coordinates (Angstroms)
 Number     Number       Type             X           Y           Z
 ---------------------------------------------------------------------
      1          6           0        1.218140   -0.280917    0.324056
      2          6           0        1.871084   -1.311062   -0.360771
      3          6           0        3.258775   -1.284061   -0.528495
      4          6           0        3.965563   -0.206906    0.003930
      5          6           0        3.343817    0.834461    0.691154
      6          6           0        1.955292    0.786674    0.846911
      7          1           0        0.139824   -0.309966    0.449701
      8          1           0        1.301160   -2.141415   -0.767890
      9          1           0        3.789673   -2.068322   -1.054330
     10          1           0        3.938896    1.649054    1.085791
     11          1           0        1.450871    1.588086    1.379212
     12          7           0        5.435091   -0.167319   -0.167298
     13          8           0        6.035018    0.792755    0.311225
     14          8           0        5.959155   -1.097113   -0.776786
     15          6           0       -5.147857   -1.837972    0.326324
     16          6           0       -4.319760   -1.372629    1.353082
     17          6           0       -3.526182   -0.237006    1.165617
     18          6           0       -3.585652    0.411751   -0.066806
     19          6           0       -4.400536   -0.027358   -1.109129
     20          6           0       -5.185536   -1.165038   -0.899344
     21          1           0       -5.760995   -2.720950    0.480620
     22          1           0       -4.288470   -1.893231    2.305993
     23          1           0       -2.876124    0.144886    1.943436
     24          1           0       -4.410356    0.512755   -2.048064
     25          1           0       -5.827706   -1.524161   -1.698526
     26          7           0       -2.750068    1.615074   -0.277082
     27          8           0       -2.820506    2.168773   -1.372113
     28          8           0       -2.040521    1.981753    0.657117
 ---------------------------------------------------------------------

 SCF Done:  E(RHF) =  -868.339371304     A.U. after   16 cycles
 E2 =    -0.2599209746D+01 EUMP2 =    -0.87093858104994D+03

 The electronic state is 1-A.
 Alpha  occ. eigenvalues --  -20.61982 -20.61909 -20.60307 -20.60297 -15.86969
 Alpha  occ. eigenvalues --  -15.85352 -11.32205 -11.30611 -11.28768 -11.28692
 Alpha  occ. eigenvalues --  -11.28401 -11.27709 -11.27669 -11.27200 -11.27105
 Alpha  occ. eigenvalues --  -11.26826 -11.26211 -11.26008  -1.61005  -1.59382
 Alpha  occ. eigenvalues --   -1.40565  -1.38938  -1.20345  -1.18758  -1.09756
 Alpha  occ. eigenvalues --   -1.08162  -1.05715  -1.04140  -0.96615  -0.95022
 Alpha  occ. eigenvalues --   -0.87116  -0.85530  -0.83446  -0.81859  -0.78524
 Alpha  occ. eigenvalues --   -0.76927  -0.73185  -0.72339  -0.71573  -0.71422
 Alpha  occ. eigenvalues --   -0.70703  -0.69840  -0.65986  -0.65693  -0.64401
 Alpha  occ. eigenvalues --   -0.64115  -0.63057  -0.61483  -0.56189  -0.54631
 Alpha  occ. eigenvalues --   -0.54057  -0.53786  -0.52482  -0.52213  -0.49957
 Alpha  occ. eigenvalues --   -0.49920  -0.48335  -0.48320  -0.45979  -0.44368
 Alpha  occ. eigenvalues --   -0.38306  -0.37317  -0.36721  -0.35744
 Alpha virt. eigenvalues --    0.03970   0.05591   0.10256   0.11916   0.15483
 Alpha virt. eigenvalues --    0.17121   0.20449   0.21977   0.26306   0.27104
 Alpha virt. eigenvalues --    0.28049   0.28352   0.30433   0.31140   0.32286

 Mulliken charges:
               1
     1  C   -0.171257
     2  C   -0.218929
     3  C   -0.172012
     4  C    0.158256
     5  C   -0.172128
     6  C   -0.218348
     7  H    0.224082
     8  H    0.218929
     9  H    0.272888
    10  H    0.274912
    11  H    0.234779
    12  N    0.488154
    13  O   -0.460990
    14  O   -0.462681
    15  C   -0.170384
    16  C   -0.218169
    17  C   -0.176892
    18  C    0.156395
    19  C   -0.170757
    20  C   -0.218191
    21  H    0.229123
    22  H    0.226375
    23  H    0.273807
    24  H    0.278151
    25  H    0.227046
    26  N    0.488139
    27  O   -0.452460
    28  O   -0.467838
 Sum of Mulliken charges =  -0.00000

 Dipole moment (field-independent basis, Debye):
    X=             -8.5740    Y=             -4.2858    Z=              1.3026  Tot=              9.6735
 Quadrupole moment (field-independent basis, Debye-Ang):
   XX=           -124.7621   YY=           -105.1636   ZZ=            -99.9061
   XY=             15.3746   XZ=              2.3499   YZ=              2.3654

 Normal termination of Gaussian 16 at Wed May  5 19:32:28 2021.
