 Gaussian 16, Revision A.03,
 Gaussian 16:  EM64L-G16RevA.03 25-Dec-2016

 -------------
 #p 6-31g* mp2
 -------------

 ------------------------------------------------------
 Input file generated by CHIRIPA (05-May-2021 14:51:08)
 ------------------------------------------------------
 Symbolic Z-matrix:
 Charge =  0 Multiplicity = 1

                         Standard orientation:
 ---------------------------------------------------------------------
 Center     Atomic      Atomic             Coordinates (Angstroms)
 Number     Number       Type             X           Y           Z
 ---------------------------------------------------------------------
      1          6           0        2.099292    0.940027    0.128552
      2          6           0        1.960438    2.333484    0.742542
      3          6           0        0.507762    2.706297    1.040090
      4          1           0        1.510351    0.894088   -0.797721
      5          1           0        1.662771    0.199989    0.813526
      6          1           0        2.398332    3.070521    0.057238
      7          1           0        2.549932    2.376171    1.667361
      8          1           0        0.063057    1.993320    1.741876
      9          1           0       -0.089404    2.691616    0.122605
     10          1           0        0.431624    3.706238    1.478474
     11          6           0        3.545675    0.552949   -0.174555
     12          6           0        3.684529   -0.840507   -0.788544
     13          6           0        5.137206   -1.213320   -1.086092
     14          1           0        3.982196    1.292988   -0.859528
     15          1           0        4.134616    0.598889    0.751719
     16          1           0        3.095035   -0.883194   -1.713363
     17          1           0        3.246635   -1.577545   -0.103240
     18          1           0        5.734372   -1.198639   -0.168607
     19          1           0        5.581910   -0.500344   -1.787878
     20          1           0        5.213343   -2.213261   -1.524476
     21          6           0       -3.058212   -0.189924   -0.444012
     22          6           0       -4.557415    0.092864   -0.342011
     23          6           0       -5.013825    1.208765   -1.282356
     24          1           0       -2.501852    0.730575   -0.220205
     25          1           0       -2.812675   -0.459345   -1.480602
     26          1           0       -4.800285    0.360323    0.694375
     27          1           0       -5.110266   -0.828465   -0.565900
     28          1           0       -4.800027    0.946625   -2.323593
     29          1           0       -4.488285    2.142169   -1.056157
     30          1           0       -6.088732    1.394420   -1.193093
     31          6           0       -2.586756   -1.303052    0.490014
     32          6           0       -1.087552   -1.585840    0.388013
     33          6           0       -0.631142   -2.701742    1.328358
     34          1           0       -2.832294   -1.033632    1.526604
     35          1           0       -3.143114   -2.223552    0.266207
     36          1           0       -0.534702   -0.664511    0.611902
     37          1           0       -0.844682   -1.853301   -0.648372
     38          1           0       -1.156683   -3.635145    1.102159
     39          1           0       -0.844940   -2.439601    2.369595
     40          1           0        0.443764   -2.887398    1.239096
 ---------------------------------------------------------------------

 SCF Done:  E(RHF) =  -470.733024760     A.U. after   11 cycles
 E2 =    -0.1583851743D+01 EUMP2 =    -0.47231687650237D+03

 The electronic state is 1-A.
 Alpha  occ. eigenvalues --  -11.21650 -11.21619 -11.21557 -11.21464 -11.21414
 Alpha  occ. eigenvalues --  -11.21352 -11.21339 -11.21279 -11.21166 -11.21083
 Alpha  occ. eigenvalues --  -11.21050 -11.21039  -1.08471  -1.08358  -1.03574
 Alpha  occ. eigenvalues --   -1.03473  -0.96024  -0.95931  -0.87041  -0.86947
 Alpha  occ. eigenvalues --   -0.79676  -0.79519  -0.78399  -0.78043  -0.65137
 Alpha  occ. eigenvalues --   -0.64964  -0.61012  -0.60842  -0.59399  -0.59293
 Alpha  occ. eigenvalues --   -0.57685  -0.57493  -0.55312  -0.55221  -0.52720
 Alpha  occ. eigenvalues --   -0.52627  -0.52471  -0.52338  -0.49965  -0.49881
 Alpha  occ. eigenvalues --   -0.48100  -0.47800  -0.46791  -0.46560  -0.46089
 Alpha  occ. eigenvalues --   -0.45755  -0.45651  -0.45134  -0.43817  -0.43725
 Alpha virt. eigenvalues --    0.20748   0.22347   0.23823   0.23894   0.26008
 Alpha virt. eigenvalues --    0.26150   0.26533   0.27550   0.29200   0.29428
 Alpha virt. eigenvalues --    0.29940   0.31207   0.31649   0.31845   0.32307

 Mulliken charges:
               1
     1  C   -0.303011
     2  C   -0.299547
     3  C   -0.478754
     4  H    0.150966
     5  H    0.154506
     6  H    0.152179
     7  H    0.151973
     8  H    0.155430
     9  H    0.156718
    10  H    0.160852
    11  C   -0.297773
    12  C   -0.300163
    13  C   -0.475743
    14  H    0.149532
    15  H    0.149489
    16  H    0.152227
    17  H    0.152068
    18  H    0.155208
    19  H    0.155268
    20  H    0.160331
    21  C   -0.300560
    22  C   -0.299453
    23  C   -0.475737
    24  H    0.152126
    25  H    0.148954
    26  H    0.151938
    27  H    0.151791
    28  H    0.154906
    29  H    0.155236
    30  H    0.160126
    31  C   -0.297399
    32  C   -0.307503
    33  C   -0.476845
    34  H    0.148824
    35  H    0.149104
    36  H    0.161645
    37  H    0.151433
    38  H    0.155380
    39  H    0.154379
    40  H    0.159898
 Sum of Mulliken charges =  -0.00000

 Dipole moment (field-independent basis, Debye):
    X=              0.0433    Y=              0.0366    Z=             -0.0068  Tot=              0.0572
 Quadrupole moment (field-independent basis, Debye-Ang):
   XX=            -86.0822   YY=            -84.9824   ZZ=            -83.8392
   XY=              0.8713   XZ=              0.1770   YZ=              0.5477

 Normal termination of Gaussian 16 at Wed May  5 21:17:08 2021.
