 Gaussian 16, Revision A.03,
 Gaussian 16:  EM64L-G16RevA.03 25-Dec-2016

 -------------
 #p 6-31g* mp2
 -------------

 ------------------------------------------------------
 Input file generated by CHIRIPA (05-May-2021 14:55:21)
 ------------------------------------------------------
 Symbolic Z-matrix:
 Charge =  0 Multiplicity = 1

                         Standard orientation:
 ---------------------------------------------------------------------
 Center     Atomic      Atomic             Coordinates (Angstroms)
 Number     Number       Type             X           Y           Z
 ---------------------------------------------------------------------
      1          6           0        0.159892   -2.254666    0.996521
      2          6           0        0.178535   -1.994480   -0.377697
      3          6           0        1.142098   -1.142780   -0.926059
      4          6           0        2.076173   -0.565655   -0.067152
      5          6           0        2.083619   -0.805262    1.306101
      6          6           0        1.110817   -1.660275    1.832560
      7          1           0       -0.592215   -2.917574    1.413995
      8          1           0       -0.558731   -2.454698   -1.029376
      9          1           0        1.179489   -0.924039   -1.986329
     10          1           0        2.831577   -0.331796    1.930445
     11          1           0        1.098746   -1.860523    2.900174
     12          7           0        3.101144    0.337755   -0.636085
     13          8           0        3.913077    0.833792    0.141957
     14          8           0        3.073176    0.532704   -1.849283
     15          6           0       -2.218924    1.454847    0.458020
     16          6           0       -1.347054    2.535935   -0.181570
     17          6           0       -0.910170    3.609594    0.815517
     18          1           0       -3.105677    1.924785    0.904980
     19          1           0       -1.664101    0.986586    1.282821
     20          1           0       -1.902837    3.001072   -1.005809
     21          1           0       -0.462370    2.063347   -0.627226
     22          1           0       -0.333337    3.164566    1.632717
     23          1           0       -1.781990    4.107619    1.251983
     24          1           0       -0.287899    4.372356    0.337152
     25          6           0       -2.663624    0.374397   -0.526154
     26          6           0       -3.535494   -0.706692    0.113437
     27          6           0       -3.972378   -1.780350   -0.883651
     28          1           0       -3.218447    0.842658   -1.350956
     29          1           0       -1.776871   -0.095541   -0.973113
     30          1           0       -4.420179   -0.234104    0.559093
     31          1           0       -2.979711   -1.171829    0.937675
     32          1           0       -3.100559   -2.278375   -1.320118
     33          1           0       -4.549210   -1.335323   -1.700851
     34          1           0       -4.594649   -2.543112   -0.405286
 ---------------------------------------------------------------------

 SCF Done:  E(RHF) =  -669.534548411     A.U. after   15 cycles
 E2 =    -0.2095387057D+01 EUMP2 =    -0.67162993546767D+03

 The electronic state is 1-A.
 Alpha  occ. eigenvalues --  -20.60878 -20.60873 -15.85933 -11.31356 -11.27903
 Alpha  occ. eigenvalues --  -11.27896 -11.27645 -11.26941 -11.26919 -11.22231
 Alpha  occ. eigenvalues --  -11.21934 -11.21665 -11.21610 -11.21527 -11.21000
 Alpha  occ. eigenvalues --   -1.59952  -1.39504  -1.19527  -1.08933  -1.08714
 Alpha  occ. eigenvalues --   -1.04938  -1.03870  -0.96316  -0.95731  -0.87339
 Alpha  occ. eigenvalues --   -0.86326  -0.82571  -0.79951  -0.78516  -0.77598
 Alpha  occ. eigenvalues --   -0.72147  -0.71278  -0.70613  -0.65542  -0.65172
 Alpha  occ. eigenvalues --   -0.64841  -0.62299  -0.61235  -0.59717  -0.57908
 Alpha  occ. eigenvalues --   -0.55669  -0.55415  -0.53235  -0.53029  -0.53013
 Alpha  occ. eigenvalues --   -0.52728  -0.50295  -0.48912  -0.48900  -0.48259
 Alpha  occ. eigenvalues --   -0.46993  -0.46042  -0.45972  -0.44891  -0.44077
 Alpha  occ. eigenvalues --   -0.37467  -0.36424
 Alpha virt. eigenvalues --    0.04886   0.11006   0.16245   0.19450   0.22994
 Alpha virt. eigenvalues --    0.23906   0.25344   0.26189   0.27180   0.28504
 Alpha virt. eigenvalues --    0.28795   0.29536   0.31218   0.31647   0.32155

 Mulliken charges:
               1
     1  C   -0.172191
     2  C   -0.219896
     3  C   -0.172207
     4  C    0.159949
     5  C   -0.171531
     6  C   -0.219096
     7  H    0.227292
     8  H    0.229969
     9  H    0.276975
    10  H    0.276302
    11  H    0.224476
    12  N    0.487780
    13  O   -0.459743
    14  O   -0.459824
    15  C   -0.298423
    16  C   -0.300954
    17  C   -0.475898
    18  H    0.148974
    19  H    0.149322
    20  H    0.152321
    21  H    0.153833
    22  H    0.154331
    23  H    0.153742
    24  H    0.164766
    25  C   -0.300630
    26  C   -0.301298
    27  C   -0.476785
    28  H    0.150144
    29  H    0.150945
    30  H    0.155468
    31  H    0.145631
    32  H    0.144257
    33  H    0.160773
    34  H    0.161227
 Sum of Mulliken charges =  -0.00000

 Dipole moment (field-independent basis, Debye):
    X=             -3.5186    Y=             -3.1317    Z=              2.0153  Tot=              5.1234
 Quadrupole moment (field-independent basis, Debye-Ang):
   XX=           -109.1160   YY=            -92.0947   ZZ=            -91.2845
   XY=             -5.1788   XZ=              6.4624   YZ=             -0.9845

 Normal termination of Gaussian 16 at Thu May  6 06:12:43 2021.
