 Gaussian 16, Revision A.03,
 Gaussian 16:  EM64L-G16RevA.03 25-Dec-2016

 -------------
 #p 6-31g* mp2
 -------------

 ------------------------------------------------------
 Input file generated by CHIRIPA (05-May-2021 14:55:24)
 ------------------------------------------------------
 Symbolic Z-matrix:
 Charge =  0 Multiplicity = 1

                         Standard orientation:
 ---------------------------------------------------------------------
 Center     Atomic      Atomic             Coordinates (Angstroms)
 Number     Number       Type             X           Y           Z
 ---------------------------------------------------------------------
      1          6           0       -1.419895    0.968727   -0.722932
      2          6           0       -2.502968    1.828006   -0.510534
      3          6           0       -3.769813    1.314513   -0.217311
      4          6           0       -3.918459   -0.069611   -0.143862
      5          6           0       -2.858909   -0.951640   -0.350426
      6          6           0       -1.601003   -0.415913   -0.642343
      7          1           0       -0.439252    1.376256   -0.950208
      8          1           0       -2.365258    2.903758   -0.572488
      9          1           0       -4.625536    1.956877   -0.048420
     10          1           0       -3.027173   -2.019546   -0.281997
     11          1           0       -0.761682   -1.085636   -0.806826
     12          7           0       -5.254879   -0.624992    0.165868
     13          8           0       -5.359676   -1.848170    0.224945
     14          8           0       -6.172264    0.173394    0.343693
     15          6           0        4.218071    0.203133    0.763402
     16          6           0        2.773934    0.047847    0.285551
     17          6           0        1.754013    0.514595    1.324638
     18          1           0        4.353109   -0.366109    1.693279
     19          1           0        4.403174    1.257210    1.012508
     20          1           0        2.592021   -1.005386    0.036106
     21          1           0        2.642370    0.617370   -0.643400
     22          1           0        1.907010    1.571206    1.567057
     23          1           0        1.856374   -0.060770    2.250423
     24          1           0        0.728223    0.394723    0.962358
     25          6           0        5.249323   -0.259255   -0.264433
     26          6           0        6.693460   -0.103970    0.213417
     27          6           0        7.713381   -0.570717   -0.825670
     28          1           0        5.064220   -1.313332   -0.513540
     29          1           0        5.114285    0.309988   -1.194311
     30          1           0        6.825025   -0.673492    1.142368
     31          1           0        6.875374    0.949264    0.462862
     32          1           0        7.611020    0.004648   -1.751455
     33          1           0        7.560384   -1.627328   -1.068088
     34          1           0        8.739171   -0.450845   -0.463390
 ---------------------------------------------------------------------

 SCF Done:  E(RHF) =  -669.534632202     A.U. after   15 cycles
 E2 =    -0.2092358582D+01 EUMP2 =    -0.67162699078364D+03

 The electronic state is 1-A.
 Alpha  occ. eigenvalues --  -20.60772 -20.60767 -15.85827 -11.31205 -11.27782
 Alpha  occ. eigenvalues --  -11.27777 -11.27496 -11.26786 -11.26776 -11.22607
 Alpha  occ. eigenvalues --  -11.22139 -11.22114 -11.21996 -11.21904 -11.21509
 Alpha  occ. eigenvalues --   -1.59848  -1.39401  -1.19388  -1.09152  -1.08782
 Alpha  occ. eigenvalues --   -1.04791  -1.04252  -0.96688  -0.95607  -0.87696
 Alpha  occ. eigenvalues --   -0.86186  -0.82439  -0.80332  -0.78939  -0.77482
 Alpha  occ. eigenvalues --   -0.72046  -0.71171  -0.70521  -0.65777  -0.65047
 Alpha  occ. eigenvalues --   -0.64810  -0.62147  -0.61646  -0.60083  -0.58309
 Alpha  occ. eigenvalues --   -0.55966  -0.55264  -0.53590  -0.53188  -0.52881
 Alpha  occ. eigenvalues --   -0.52766  -0.50605  -0.48804  -0.48799  -0.48636
 Alpha  occ. eigenvalues --   -0.47374  -0.46481  -0.46390  -0.44804  -0.44502
 Alpha  occ. eigenvalues --   -0.37300  -0.36384
 Alpha virt. eigenvalues --    0.05029   0.11142   0.16484   0.19839   0.22519
 Alpha virt. eigenvalues --    0.23996   0.25492   0.26218   0.27090   0.27280
 Alpha virt. eigenvalues --    0.29280   0.29760   0.30878   0.31489   0.31732

 Mulliken charges:
               1
     1  C   -0.171848
     2  C   -0.220097
     3  C   -0.170745
     4  C    0.158365
     5  C   -0.171271
     6  C   -0.219522
     7  H    0.230612
     8  H    0.223789
     9  H    0.275784
    10  H    0.275849
    11  H    0.225719
    12  N    0.488109
    13  O   -0.460343
    14  O   -0.460349
    15  C   -0.297975
    16  C   -0.302166
    17  C   -0.485985
    18  H    0.152703
    19  H    0.150968
    20  H    0.150609
    21  H    0.145903
    22  H    0.155771
    23  H    0.160761
    24  H    0.162418
    25  C   -0.298738
    26  C   -0.300216
    27  C   -0.476061
    28  H    0.150028
    29  H    0.149121
    30  H    0.153213
    31  H    0.152571
    32  H    0.155312
    33  H    0.155793
    34  H    0.161920
 Sum of Mulliken charges =  -0.00000

 Dipole moment (field-independent basis, Debye):
    X=              4.8120    Y=              1.9561    Z=             -1.0505  Tot=              5.2996
 Quadrupole moment (field-independent basis, Debye-Ang):
   XX=           -131.5271   YY=            -89.9571   ZZ=            -95.4935
   XY=             -9.8464   XZ=              4.2147   YZ=             -0.5173

 Normal termination of Gaussian 16 at Thu May  6 17:40:20 2021.
