 Gaussian 16, Revision A.03,
 Gaussian 16:  EM64L-G16RevA.03 25-Dec-2016

 -------------
 #p 6-31g* mp2
 -------------

 ------------------------------------------------------
 Input file generated by CHIRIPA (05-May-2021 14:51:09)
 ------------------------------------------------------
 Symbolic Z-matrix:
 Charge =  0 Multiplicity = 1

                         Standard orientation:
 ---------------------------------------------------------------------
 Center     Atomic      Atomic             Coordinates (Angstroms)
 Number     Number       Type             X           Y           Z
 ---------------------------------------------------------------------
      1          6           0        2.579638   -0.111220    0.679755
      2          6           0        1.960575    1.237524    1.048044
      3          6           0        0.614117    1.095694    1.758488
      4          1           0        1.881137   -0.664970    0.037570
      5          1           0        2.706803   -0.709860    1.592363
      6          1           0        1.835893    1.833981    0.135186
      7          1           0        2.660712    1.788207    1.689271
      8          1           0        0.725700    0.522656    2.684651
      9          1           0       -0.103805    0.568689    1.121736
     10          1           0        0.189486    2.071896    2.012611
     11          6           0        3.925997    0.014063   -0.031124
     12          6           0        4.545060   -1.334681   -0.399413
     13          6           0        5.891517   -1.192851   -1.109857
     14          1           0        3.798832    0.612704   -0.943732
     15          1           0        4.624498    0.567813    0.611061
     16          1           0        3.844923   -1.885364   -1.040639
     17          1           0        4.669741   -1.931138    0.513445
     18          1           0        6.609440   -0.665846   -0.473105
     19          1           0        5.779935   -0.619812   -2.036020
     20          1           0        6.316149   -2.169053   -1.363980
     21          6           0       -3.843489   -0.428873   -0.405422
     22          6           0       -3.654978   -1.756855    0.328684
     23          6           0       -4.845011   -2.701376    0.156949
     24          1           0       -4.756763    0.059214   -0.038481
     25          1           0       -4.003383   -0.628159   -1.474119
     26          1           0       -3.494108   -1.555049    1.395461
     27          1           0       -2.741942   -2.241748   -0.039911
     28          1           0       -5.004294   -2.931878   -0.901398
     29          1           0       -5.760733   -2.241278    0.542129
     30          1           0       -4.689139   -3.644550    0.689855
     31          6           0       -2.662146    0.526030   -0.243209
     32          6           0       -2.850657    1.854012   -0.977315
     33          6           0       -1.660624    2.798533   -0.805581
     34          1           0       -2.502252    0.725316    0.825489
     35          1           0       -1.748871    0.037943   -0.610150
     36          1           0       -3.763693    2.338905   -0.608721
     37          1           0       -3.011526    1.652206   -2.044092
     38          1           0       -0.744901    2.338435   -1.190760
     39          1           0       -1.501341    3.029035    0.252766
     40          1           0       -1.816496    3.741707   -1.338486
 ---------------------------------------------------------------------

 SCF Done:  E(RHF) =  -470.731820315     A.U. after   11 cycles
 E2 =    -0.1584277932D+01 EUMP2 =    -0.47231609824758D+03

 The electronic state is 1-A.
 Alpha  occ. eigenvalues --  -11.21621 -11.21614 -11.21585 -11.21505 -11.21419
 Alpha  occ. eigenvalues --  -11.21370 -11.21360 -11.21309 -11.21080 -11.21059
 Alpha  occ. eigenvalues --  -11.21045 -11.20832  -1.08470  -1.08372  -1.03577
 Alpha  occ. eigenvalues --   -1.03433  -0.95999  -0.95911  -0.87013  -0.86943
 Alpha  occ. eigenvalues --   -0.79682  -0.79490  -0.78331  -0.78142  -0.65093
 Alpha  occ. eigenvalues --   -0.65013  -0.60960  -0.60889  -0.59398  -0.59259
 Alpha  occ. eigenvalues --   -0.57764  -0.57380  -0.55286  -0.55217  -0.52705
 Alpha  occ. eigenvalues --   -0.52685  -0.52541  -0.52143  -0.49964  -0.49893
 Alpha  occ. eigenvalues --   -0.47949  -0.47795  -0.46722  -0.46586  -0.45903
 Alpha  occ. eigenvalues --   -0.45743  -0.45679  -0.45331  -0.43801  -0.43704
 Alpha virt. eigenvalues --    0.21180   0.23107   0.23548   0.24996   0.25591
 Alpha virt. eigenvalues --    0.26289   0.26544   0.27739   0.28215   0.29260
 Alpha virt. eigenvalues --    0.29806   0.30899   0.31572   0.32019   0.32520

 Mulliken charges:
               1
     1  C   -0.298231
     2  C   -0.301365
     3  C   -0.482756
     4  H    0.148496
     5  H    0.149609
     6  H    0.152904
     7  H    0.151333
     8  H    0.152889
     9  H    0.166663
    10  H    0.159059
    11  C   -0.298183
    12  C   -0.299565
    13  C   -0.475671
    14  H    0.149235
    15  H    0.149762
    16  H    0.151619
    17  H    0.151943
    18  H    0.155215
    19  H    0.155101
    20  H    0.160152
    21  C   -0.296921
    22  C   -0.299969
    23  C   -0.475680
    24  H    0.149745
    25  H    0.149279
    26  H    0.152396
    27  H    0.151594
    28  H    0.155136
    29  H    0.155243
    30  H    0.160387
    31  C   -0.303397
    32  C   -0.299195
    33  C   -0.478605
    34  H    0.154758
    35  H    0.149037
    36  H    0.151976
    37  H    0.151545
    38  H    0.155826
    39  H    0.158990
    40  H    0.159646
 Sum of Mulliken charges =  -0.00000

 Dipole moment (field-independent basis, Debye):
    X=             -0.0605    Y=              0.0050    Z=              0.0015  Tot=              0.0608
 Quadrupole moment (field-independent basis, Debye-Ang):
   XX=            -85.9653   YY=            -85.3012   ZZ=            -83.6386
   XY=             -0.7937   XZ=              0.4606   YZ=              0.2578

 Normal termination of Gaussian 16 at Wed May  5 15:09:01 2021.
