 Gaussian 16, Revision A.03,
 Gaussian 16:  EM64L-G16RevA.03 25-Dec-2016

 -------------
 #p 6-31g* mp2
 -------------

 ------------------------------------------------------
 Input file generated by CHIRIPA (05-May-2021 14:51:10)
 ------------------------------------------------------
 Symbolic Z-matrix:
 Charge =  0 Multiplicity = 1

                         Standard orientation:
 ---------------------------------------------------------------------
 Center     Atomic      Atomic             Coordinates (Angstroms)
 Number     Number       Type             X           Y           Z
 ---------------------------------------------------------------------
      1          6           0       -1.931278   -0.188962   -0.063063
      2          6           0       -3.037212   -1.061082   -0.658295
      3          6           0       -2.636343   -2.532680   -0.765519
      4          1           0       -1.028069   -0.280286   -0.681786
      5          1           0       -1.668032   -0.571732    0.932720
      6          1           0       -3.299258   -0.675947   -1.652085
      7          1           0       -3.937952   -0.967521   -0.038191
      8          1           0       -2.394486   -2.939002    0.221906
      9          1           0       -1.752162   -2.645770   -1.401158
     10          1           0       -3.441528   -3.137951   -1.193520
     11          6           0       -2.317028    1.284816    0.050538
     12          6           0       -1.211094    2.156936    0.645771
     13          6           0       -1.611963    3.628534    0.752995
     14          1           0       -2.580274    1.667586   -0.945244
     15          1           0       -3.220237    1.376140    0.669261
     16          1           0       -0.310353    2.063376    0.025667
     17          1           0       -0.949047    1.771801    1.639561
     18          1           0       -2.496143    3.741625    1.388633
     19          1           0       -1.853820    4.034856   -0.234430
     20          1           0       -0.806778    4.233805    1.180996
     21          6           0        1.973012   -1.068250    0.544642
     22          6           0        1.530395   -2.417238   -0.023078
     23          6           0        1.231662   -3.447724    1.066257
     24          1           0        2.866077   -1.214948    1.167426
     25          1           0        1.187918   -0.682868    1.209852
     26          1           0        2.315495   -2.799309   -0.688102
     27          1           0        0.638393   -2.267284   -0.644739
     28          1           0        0.432938   -3.091542    1.724873
     29          1           0        2.119567   -3.626590    1.681262
     30          1           0        0.917036   -4.404637    0.638253
     31          6           0        2.275294   -0.027604   -0.532118
     32          6           0        2.717910    1.321384    0.035603
     33          6           0        3.016643    2.351869   -1.053733
     34          1           0        3.060387   -0.412985   -1.197327
     35          1           0        1.382229    0.119093   -1.154903
     36          1           0        3.609913    1.171430    0.657263
     37          1           0        1.932811    1.703455    0.700627
     38          1           0        2.128738    2.530736   -1.668739
     39          1           0        3.815368    1.995688   -1.712348
     40          1           0        3.331270    3.308782   -0.625729
 ---------------------------------------------------------------------

 SCF Done:  E(RHF) =  -470.731690103     A.U. after   11 cycles
 E2 =    -0.1586997070D+01 EUMP2 =    -0.47231868717296D+03

 The electronic state is 1-A.
 Alpha  occ. eigenvalues --  -11.21675 -11.21674 -11.21514 -11.21490 -11.21481
 Alpha  occ. eigenvalues --  -11.21431 -11.21348 -11.21259 -11.21135 -11.21122
 Alpha  occ. eigenvalues --  -11.21072 -11.21006  -1.08579  -1.08320  -1.03652
 Alpha  occ. eigenvalues --   -1.03435  -0.96081  -0.95908  -0.87085  -0.86937
 Alpha  occ. eigenvalues --   -0.79708  -0.79537  -0.78379  -0.78183  -0.65431
 Alpha  occ. eigenvalues --   -0.64759  -0.61243  -0.60750  -0.59357  -0.59299
 Alpha  occ. eigenvalues --   -0.57721  -0.57527  -0.55417  -0.55146  -0.52744
 Alpha  occ. eigenvalues --   -0.52620  -0.52484  -0.52347  -0.50028  -0.49880
 Alpha  occ. eigenvalues --   -0.48209  -0.47674  -0.46799  -0.46653  -0.46259
 Alpha  occ. eigenvalues --   -0.46039  -0.45331  -0.45069  -0.43861  -0.43712
 Alpha virt. eigenvalues --    0.19863   0.21431   0.23633   0.23791   0.25470
 Alpha virt. eigenvalues --    0.25937   0.26339   0.27974   0.28895   0.30286
 Alpha virt. eigenvalues --    0.30459   0.31271   0.31506   0.32292   0.32389

 Mulliken charges:
               1
     1  C   -0.306713
     2  C   -0.299643
     3  C   -0.479328
     4  H    0.157111
     5  H    0.150089
     6  H    0.151945
     7  H    0.152252
     8  H    0.156943
     9  H    0.157719
    10  H    0.160703
    11  C   -0.297509
    12  C   -0.307922
    13  C   -0.475652
    14  H    0.149460
    15  H    0.150011
    16  H    0.160508
    17  H    0.151633
    18  H    0.155504
    19  H    0.155390
    20  H    0.160706
    21  C   -0.300411
    22  C   -0.305986
    23  C   -0.475412
    24  H    0.149398
    25  H    0.153235
    26  H    0.151031
    27  H    0.158736
    28  H    0.154576
    29  H    0.154650
    30  H    0.160339
    31  C   -0.301864
    32  C   -0.305385
    33  C   -0.476539
    34  H    0.149674
    35  H    0.150481
    36  H    0.152444
    37  H    0.157727
    38  H    0.154358
    39  H    0.155399
    40  H    0.160341
 Sum of Mulliken charges =  -0.00000

 Dipole moment (field-independent basis, Debye):
    X=             -0.0558    Y=              0.0142    Z=              0.0042  Tot=              0.0577
 Quadrupole moment (field-independent basis, Debye-Ang):
   XX=            -83.8753   YY=            -86.5805   ZZ=            -84.3814
   XY=             -0.2416   XZ=             -0.1534   YZ=              0.3147

 Normal termination of Gaussian 16 at Wed May  5 16:41:26 2021.
