 Gaussian 16, Revision A.03,
 Gaussian 16:  EM64L-G16RevA.03 25-Dec-2016

 -------------
 #p 6-31g* mp2
 -------------

 ------------------------------------------------------
 Input file generated by CHIRIPA (05-May-2021 14:57:23)
 ------------------------------------------------------
 Symbolic Z-matrix:
 Charge =  0 Multiplicity = 1

                         Standard orientation:
 ---------------------------------------------------------------------
 Center     Atomic      Atomic             Coordinates (Angstroms)
 Number     Number       Type             X           Y           Z
 ---------------------------------------------------------------------
      1          6           0        4.547077    2.518876    0.115574
      2          6           0        3.353445    2.132992    0.734329
      3          6           0        2.933171    0.800118    0.697392
      4          6           0        3.734627   -0.124772    0.029907
      5          6           0        4.928948    0.228690   -0.596154
      6          6           0        5.329639    1.567171   -0.546526
      7          1           0        4.865949    3.556463    0.149196
      8          1           0        2.743683    2.869942    1.249247
      9          1           0        2.013580    0.474023    1.167959
     10          1           0        5.515572   -0.528662   -1.101830
     11          1           0        6.257099    1.863986   -1.027945
     12          7           0        3.300068   -1.538794   -0.015915
     13          8           0        4.024063   -2.334439   -0.610404
     14          8           0        2.243693   -1.824686    0.543528
     15          6           0       -1.776747   -1.567629    0.305088
     16          6           0       -2.533010   -1.150831    1.405483
     17          6           0       -3.659441   -0.342107    1.227528
     18          6           0       -4.002452    0.032809   -0.070575
     19          6           0       -3.269211   -0.366177   -1.187023
     20          6           0       -2.146609   -1.174665   -0.985377
     21          1           0       -0.903196   -2.195774    0.452531
     22          1           0       -2.248127   -1.454476    2.408820
     23          1           0       -4.262774   -0.005070    2.061682
     24          1           0       -3.578038   -0.047306   -2.175135
     25          1           0       -1.561158   -1.496850   -1.841816
     26          7           0       -5.192927    0.888844   -0.271508
     27          8           0       -5.474147    1.205484   -1.425324
     28          8           0       -5.822259    1.226956    0.728622
 ---------------------------------------------------------------------

 SCF Done:  E(RHF) =  -868.340128701     A.U. after   16 cycles
 E2 =    -0.2598193948D+01 EUMP2 =    -0.87093832264982D+03

 The electronic state is 1-A.
 Alpha  occ. eigenvalues --  -20.61727 -20.61660 -20.60478 -20.60473 -15.86737
 Alpha  occ. eigenvalues --  -15.85529 -11.31832 -11.30748 -11.28378 -11.28356
 Alpha  occ. eigenvalues --  -11.28044 -11.27332 -11.27314 -11.27314 -11.27304
 Alpha  occ. eigenvalues --  -11.26810 -11.26233 -11.26197  -1.60760  -1.59559
 Alpha  occ. eigenvalues --   -1.40324  -1.39117  -1.19977  -1.18898  -1.09417
 Alpha  occ. eigenvalues --   -1.08274  -1.05338  -1.04290  -0.96299  -0.95135
 Alpha  occ. eigenvalues --   -0.86748  -0.85665  -0.83146  -0.81986  -0.78224
 Alpha  occ. eigenvalues --   -0.77096  -0.72978  -0.72069  -0.71745  -0.71077
 Alpha  occ. eigenvalues --   -0.70885  -0.69859  -0.65632  -0.65332  -0.64524
 Alpha  occ. eigenvalues --   -0.64263  -0.62690  -0.61646  -0.55838  -0.54602
 Alpha  occ. eigenvalues --   -0.53682  -0.53423  -0.52626  -0.52355  -0.49731
 Alpha  occ. eigenvalues --   -0.49684  -0.48512  -0.48489  -0.45787  -0.44556
 Alpha  occ. eigenvalues --   -0.37937  -0.36930  -0.36811  -0.35928
 Alpha virt. eigenvalues --    0.04279   0.05449   0.10728   0.11744   0.15820
 Alpha virt. eigenvalues --    0.16985   0.20868   0.22126   0.26817   0.27605
 Alpha virt. eigenvalues --    0.27833   0.29136   0.30525   0.31551   0.32302

 Mulliken charges:
               1
     1  C   -0.169836
     2  C   -0.218326
     3  C   -0.170626
     4  C    0.157440
     5  C   -0.170651
     6  C   -0.218483
     7  H    0.228327
     8  H    0.226194
     9  H    0.273430
    10  H    0.276354
    11  H    0.225570
    12  N    0.491131
    13  O   -0.456172
    14  O   -0.472886
    15  C   -0.177337
    16  C   -0.222691
    17  C   -0.172359
    18  C    0.156787
    19  C   -0.172264
    20  C   -0.221808
    21  H    0.248779
    22  H    0.223378
    23  H    0.273172
    24  H    0.273550
    25  H    0.225561
    26  N    0.488188
    27  O   -0.462039
    28  O   -0.462384
 Sum of Mulliken charges =  -0.00000

 Dipole moment (field-independent basis, Debye):
    X=              6.1545    Y=              1.9550    Z=              0.8401  Tot=              6.5120
 Quadrupole moment (field-independent basis, Debye-Ang):
   XX=           -124.6453   YY=           -106.8429   ZZ=            -99.3433
   XY=             30.3710   XZ=             -6.0628   YZ=              1.2270

 Normal termination of Gaussian 16 at Fri May  7 03:20:34 2021.
