 Gaussian 16, Revision A.03,
 Gaussian 16:  EM64L-G16RevA.03 25-Dec-2016

 -------------
 #p 6-31g* mp2
 -------------

 ------------------------------------------------------
 Input file generated by CHIRIPA (05-May-2021 14:53:16)
 ------------------------------------------------------
 Symbolic Z-matrix:
 Charge =  0 Multiplicity = 1

                         Standard orientation:
 ---------------------------------------------------------------------
 Center     Atomic      Atomic             Coordinates (Angstroms)
 Number     Number       Type             X           Y           Z
 ---------------------------------------------------------------------
      1          6           0       -3.656711   -0.176496    0.390148
      2          6           0       -4.514161   -0.028939   -0.867227
      3          6           0       -5.751719    0.839802   -0.640219
      4          1           0       -4.267679   -0.609114    1.194203
      5          1           0       -3.347977    0.820405    0.734046
      6          1           0       -4.820037   -1.025906   -1.209443
      7          1           0       -3.901028    0.403200   -1.668438
      8          1           0       -5.462561    1.846308   -0.320948
      9          1           0       -6.386792    0.409081    0.140655
     10          1           0       -6.350283    0.931919   -1.551863
     11          6           0       -2.415869   -1.042228    0.179083
     12          6           0       -1.558419   -1.189785    1.436458
     13          6           0       -0.320861   -2.058526    1.209450
     14          1           0       -2.724603   -2.039129   -0.164815
     15          1           0       -1.804901   -0.609610   -0.624972
     16          1           0       -2.171552   -1.621924    2.237669
     17          1           0       -1.252543   -0.192818    1.778674
     18          1           0        0.314212   -1.627806    0.428576
     19          1           0       -0.610019   -3.065032    0.890179
     20          1           0        0.277703   -2.150643    2.121094
     21          6           0        1.397722    2.669869    0.554645
     22          6           0        1.105517    2.188514   -0.725759
     23          6           0        1.639832    0.974221   -1.166835
     24          6           0        2.466301    0.263975   -0.297473
     25          6           0        2.776052    0.717114    0.983936
     26          6           0        2.230588    1.933929    1.403909
     27          1           0        0.978323    3.614140    0.889087
     28          1           0        0.459011    2.757928   -1.387456
     29          1           0        1.430047    0.578237   -2.153043
     30          1           0        3.423773    0.127091    1.620919
     31          1           0        2.459240    2.305309    2.398816
     32          7           0        3.037858   -1.022877   -0.753251
     33          8           0        3.763232   -1.629690    0.031763
     34          8           0        2.749647   -1.400333   -1.886872
 ---------------------------------------------------------------------

 SCF Done:  E(RHF) =  -669.535291243     A.U. after   15 cycles
 E2 =    -0.2093122838D+01 EUMP2 =    -0.67162841408079D+03

 The electronic state is 1-A.
 Alpha  occ. eigenvalues --  -20.60812 -20.60806 -15.85857 -11.31243 -11.27836
 Alpha  occ. eigenvalues --  -11.27819 -11.27584 -11.26870 -11.26855 -11.21802
 Alpha  occ. eigenvalues --  -11.21587 -11.21553 -11.21416 -11.21298 -11.20881
 Alpha  occ. eigenvalues --   -1.59884  -1.39436  -1.19443  -1.08833  -1.08528
 Alpha  occ. eigenvalues --   -1.04845  -1.03598  -0.96041  -0.95656  -0.87054
 Alpha  occ. eigenvalues --   -0.86240  -0.82485  -0.79671  -0.78339  -0.77526
 Alpha  occ. eigenvalues --   -0.72079  -0.71231  -0.70540  -0.65168  -0.65091
 Alpha  occ. eigenvalues --   -0.64845  -0.62189  -0.61013  -0.59415  -0.57651
 Alpha  occ. eigenvalues --   -0.55394  -0.55328  -0.53154  -0.52935  -0.52719
 Alpha  occ. eigenvalues --   -0.52444  -0.49983  -0.48842  -0.48832  -0.47976
 Alpha  occ. eigenvalues --   -0.46722  -0.45874  -0.45814  -0.44828  -0.43856
 Alpha  occ. eigenvalues --   -0.37374  -0.36440
 Alpha virt. eigenvalues --    0.04986   0.11167   0.16468   0.21282   0.22671
 Alpha virt. eigenvalues --    0.24091   0.26328   0.27075   0.27389   0.27910
 Alpha virt. eigenvalues --    0.28297   0.30654   0.31318   0.31697   0.31807

 Mulliken charges:
               1
     1  C   -0.297792
     2  C   -0.299145
     3  C   -0.475448
     4  H    0.150403
     5  H    0.145587
     6  H    0.154114
     7  H    0.149185
     8  H    0.152767
     9  H    0.156163
    10  H    0.160702
    11  C   -0.297659
    12  C   -0.299858
    13  C   -0.475017
    14  H    0.151988
    15  H    0.147366
    16  H    0.151301
    17  H    0.149018
    18  H    0.153867
    19  H    0.158961
    20  H    0.159968
    21  C   -0.171304
    22  C   -0.217786
    23  C   -0.173365
    24  C    0.155833
    25  C   -0.170040
    26  C   -0.218132
    27  H    0.225961
    28  H    0.223798
    29  H    0.276067
    30  H    0.276030
    31  H    0.223941
    32  N    0.492239
    33  O   -0.459294
    34  O   -0.460416
 Sum of Mulliken charges =  -0.00000

 Dipole moment (field-independent basis, Debye):
    X=             -1.9446    Y=              4.4826    Z=              1.6224  Tot=              5.1485
 Quadrupole moment (field-independent basis, Debye-Ang):
   XX=           -104.8431   YY=            -92.4367   ZZ=            -91.9984
   XY=             11.6020   XZ=              6.9262   YZ=             -1.6368

 Normal termination of Gaussian 16 at Thu May  6 07:32:14 2021.
