 Gaussian 16, Revision A.03,
 Gaussian 16:  EM64L-G16RevA.03 25-Dec-2016

 -------------
 #p 6-31g* mp2
 -------------

 ------------------------------------------------------
 Input file generated by CHIRIPA (05-May-2021 14:55:25)
 ------------------------------------------------------
 Symbolic Z-matrix:
 Charge =  0 Multiplicity = 1

                         Standard orientation:
 ---------------------------------------------------------------------
 Center     Atomic      Atomic             Coordinates (Angstroms)
 Number     Number       Type             X           Y           Z
 ---------------------------------------------------------------------
      1          6           0        3.926881    2.519608    0.298899
      2          6           0        4.178295    1.858309   -0.907748
      3          6           0        3.769178    0.533973   -1.090244
      4          6           0        3.108140   -0.101628   -0.040326
      5          6           0        2.843009    0.530285    1.173627
      6          6           0        3.261214    1.854657    1.333911
      7          1           0        4.248223    3.548398    0.432039
      8          1           0        4.695060    2.372230   -1.713282
      9          1           0        3.950896   -0.001766   -2.014030
     10          1           0        2.325746   -0.008238    1.958389
     11          1           0        3.064608    2.365737    2.272094
     12          7           0        2.670215   -1.503663   -0.221768
     13          8           0        2.089636   -2.041491    0.718606
     14          8           0        2.915842   -2.038201   -1.300922
     15          6           0       -4.328794    0.518969   -0.206019
     16          6           0       -5.840443    0.678820   -0.040642
     17          6           0       -6.341475    2.053758   -0.483708
     18          1           0       -3.818313    1.300841    0.372799
     19          1           0       -4.062524    0.685455   -1.259004
     20          1           0       -6.103953    0.510719    1.011461
     21          1           0       -6.347380   -0.103640   -0.619767
     22          1           0       -6.107216    2.227473   -1.538955
     23          1           0       -5.862407    2.845323    0.101542
     24          1           0       -7.424628    2.146348   -0.356942
     25          6           0       -3.812813   -0.850345    0.232698
     26          6           0       -2.301164   -1.010197    0.067321
     27          6           0       -1.800131   -2.385134    0.510387
     28          1           0       -4.079083   -1.016831    1.285683
     29          1           0       -4.323293   -1.632217   -0.346120
     30          1           0       -1.794227   -0.227736    0.646446
     31          1           0       -2.037653   -0.842096   -0.984782
     32          1           0       -2.279200   -3.176700   -0.074862
     33          1           0       -2.034391   -2.558850    1.565634
     34          1           0       -0.716979   -2.477724    0.383621
 ---------------------------------------------------------------------

 SCF Done:  E(RHF) =  -669.536351831     A.U. after   15 cycles
 E2 =    -0.2090897805D+01 EUMP2 =    -0.67162724963667D+03

 The electronic state is 1-A.
 Alpha  occ. eigenvalues --  -20.60970 -20.60963 -15.85989 -11.31290 -11.27852
 Alpha  occ. eigenvalues --  -11.27848 -11.27588 -11.26856 -11.26846 -11.21354
 Alpha  occ. eigenvalues --  -11.21056 -11.20932 -11.20908 -11.20857 -11.19884
 Alpha  occ. eigenvalues --   -1.60023  -1.39580  -1.19457  -1.08866  -1.07985
 Alpha  occ. eigenvalues --   -1.04851  -1.03001  -0.95713  -0.95418  -0.86432
 Alpha  occ. eigenvalues --   -0.86252  -0.82545  -0.79091  -0.77790  -0.77601
 Alpha  occ. eigenvalues --   -0.72212  -0.71334  -0.70567  -0.65114  -0.64855
 Alpha  occ. eigenvalues --   -0.64627  -0.62199  -0.60413  -0.58815  -0.57016
 Alpha  occ. eigenvalues --   -0.55358  -0.54728  -0.53185  -0.52944  -0.52055
 Alpha  occ. eigenvalues --   -0.51847  -0.49390  -0.48977  -0.48961  -0.47390
 Alpha  occ. eigenvalues --   -0.46159  -0.45329  -0.45259  -0.44978  -0.43197
 Alpha  occ. eigenvalues --   -0.37433  -0.36450
 Alpha virt. eigenvalues --    0.04890   0.11202   0.16368   0.21323   0.23262
 Alpha virt. eigenvalues --    0.24892   0.27018   0.27262   0.27843   0.28175
 Alpha virt. eigenvalues --    0.28720   0.30868   0.31864   0.32152   0.32395

 Mulliken charges:
               1
     1  C   -0.170480
     2  C   -0.218559
     3  C   -0.170671
     4  C    0.158512
     5  C   -0.170637
     6  C   -0.218543
     7  H    0.226018
     8  H    0.223823
     9  H    0.275823
    10  H    0.275987
    11  H    0.223816
    12  N    0.488194
    13  O   -0.459641
    14  O   -0.458455
    15  C   -0.297385
    16  C   -0.299217
    17  C   -0.475302
    18  H    0.146756
    19  H    0.148757
    20  H    0.151326
    21  H    0.152254
    22  H    0.154715
    23  H    0.153622
    24  H    0.159509
    25  C   -0.297262
    26  C   -0.298862
    27  C   -0.486062
    28  H    0.148085
    29  H    0.149750
    30  H    0.145785
    31  H    0.150441
    32  H    0.151916
    33  H    0.150197
    34  H    0.185791
 Sum of Mulliken charges =  -0.00000

 Dipole moment (field-independent basis, Debye):
    X=              1.8090    Y=              4.8837    Z=              0.6164  Tot=              5.2443
 Quadrupole moment (field-independent basis, Debye-Ang):
   XX=            -85.9928   YY=            -97.0642   ZZ=            -89.8276
   XY=             16.0791   XZ=             -0.0915   YZ=              0.4279

 Normal termination of Gaussian 16 at Thu May  6 01:39:41 2021.
