 Gaussian 16, Revision A.03,
 Gaussian 16:  EM64L-G16RevA.03 25-Dec-2016

 -------------
 #p 6-31g* mp2
 -------------

 ------------------------------------------------------
 Input file generated by CHIRIPA (05-May-2021 14:55:24)
 ------------------------------------------------------
 Symbolic Z-matrix:
 Charge =  0 Multiplicity = 1

                         Standard orientation:
 ---------------------------------------------------------------------
 Center     Atomic      Atomic             Coordinates (Angstroms)
 Number     Number       Type             X           Y           Z
 ---------------------------------------------------------------------
      1          6           0       -2.369239    2.402062    0.761969
      2          6           0       -1.350576    1.986234   -0.101705
      3          6           0       -1.316039    0.672374   -0.578285
      4          6           0       -2.320619   -0.203173   -0.168985
      5          6           0       -3.348709    0.181058    0.690484
      6          6           0       -3.363302    1.499738    1.154615
      7          1           0       -2.388322    3.424572    1.127352
      8          1           0       -0.577264    2.684821   -0.408313
      9          1           0       -0.539046    0.323921   -1.247823
     10          1           0       -4.105776   -0.538193    0.978489
     11          1           0       -4.155627    1.819895    1.825260
     12          7           0       -2.294613   -1.596649   -0.666929
     13          8           0       -3.191308   -2.348703   -0.291444
     14          8           0       -1.378027   -1.910415   -1.423273
     15          6           0        2.845763    0.524763   -0.393117
     16          6           0        3.161998    1.918410    0.150693
     17          6           0        2.896622    3.025483   -0.869973
     18          1           0        3.446280    0.345235   -1.295389
     19          1           0        1.793108    0.491222   -0.706466
     20          1           0        4.213376    1.948895    0.464205
     21          1           0        2.560798    2.094568    1.051884
     22          1           0        1.845308    3.023859   -1.175483
     23          1           0        3.507275    2.877359   -1.766502
     24          1           0        3.129362    4.013369   -0.460373
     25          6           0        3.105994   -0.592575    0.615625
     26          6           0        2.789759   -1.986221    0.071816
     27          6           0        3.055135   -3.093295    1.092482
     28          1           0        4.158649   -0.559033    0.928974
     29          1           0        2.505476   -0.413046    1.517897
     30          1           0        3.390958   -2.162379   -0.829375
     31          1           0        1.738381   -2.016706   -0.241696
     32          1           0        2.444482   -2.945171    1.989010
     33          1           0        4.106449   -3.091671    1.397992
     34          1           0        2.822394   -4.081181    0.682881
 ---------------------------------------------------------------------

 SCF Done:  E(RHF) =  -669.535521925     A.U. after   15 cycles
 E2 =    -0.2093011629D+01 EUMP2 =    -0.67162853355407D+03

 The electronic state is 1-A.
 Alpha  occ. eigenvalues --  -20.60882 -20.60877 -15.85916 -11.31251 -11.27820
 Alpha  occ. eigenvalues --  -11.27800 -11.27553 -11.26830 -11.26812 -11.22116
 Alpha  occ. eigenvalues --  -11.21849 -11.21746 -11.21407 -11.21228 -11.20713
 Alpha  occ. eigenvalues --   -1.59943  -1.39497  -1.19424  -1.08823  -1.08619
 Alpha  occ. eigenvalues --   -1.04826  -1.03670  -0.96164  -0.95662  -0.87183
 Alpha  occ. eigenvalues --   -0.86221  -0.82499  -0.79781  -0.78361  -0.77535
 Alpha  occ. eigenvalues --   -0.72134  -0.71257  -0.70541  -0.65308  -0.65063
 Alpha  occ. eigenvalues --   -0.64847  -0.62188  -0.61037  -0.59573  -0.57727
 Alpha  occ. eigenvalues --   -0.55515  -0.55324  -0.53151  -0.52974  -0.52823
 Alpha  occ. eigenvalues --   -0.52516  -0.50123  -0.48900  -0.48889  -0.48070
 Alpha  occ. eigenvalues --   -0.46832  -0.45896  -0.45775  -0.44861  -0.43922
 Alpha  occ. eigenvalues --   -0.37401  -0.36411
 Alpha virt. eigenvalues --    0.04929   0.11180   0.16367   0.18955   0.23204
 Alpha virt. eigenvalues --    0.23679   0.24982   0.26423   0.26989   0.28462
 Alpha virt. eigenvalues --    0.29388   0.30810   0.31385   0.31967   0.32353

 Mulliken charges:
               1
     1  C   -0.171659
     2  C   -0.224190
     3  C   -0.176892
     4  C    0.158932
     5  C   -0.170917
     6  C   -0.218344
     7  H    0.226495
     8  H    0.231026
     9  H    0.280256
    10  H    0.275749
    11  H    0.223728
    12  N    0.488169
    13  O   -0.459307
    14  O   -0.460737
    15  C   -0.300574
    16  C   -0.300796
    17  C   -0.477421
    18  H    0.152959
    19  H    0.143132
    20  H    0.155884
    21  H    0.150752
    22  H    0.144030
    23  H    0.160660
    24  H    0.161798
    25  C   -0.298369
    26  C   -0.305696
    27  C   -0.475627
    28  H    0.149390
    29  H    0.148982
    30  H    0.151761
    31  H    0.165596
    32  H    0.154218
    33  H    0.152239
    34  H    0.164774
 Sum of Mulliken charges =  -0.00000

 Dipole moment (field-independent basis, Debye):
    X=             -0.0708    Y=              4.7957    Z=              1.7619  Tot=              5.1096
 Quadrupole moment (field-independent basis, Debye-Ang):
   XX=            -89.7785   YY=            -97.8343   ZZ=            -94.9607
   XY=            -10.4923   XZ=             -7.2230   YZ=             -1.0063

 Normal termination of Gaussian 16 at Wed May  5 22:22:52 2021.
