 Gaussian 16, Revision A.03,
 Gaussian 16:  EM64L-G16RevA.03 25-Dec-2016

 -------------
 #p 6-31g* mp2
 -------------

 ------------------------------------------------------
 Input file generated by CHIRIPA (05-May-2021 14:57:22)
 ------------------------------------------------------
 Symbolic Z-matrix:
 Charge =  0 Multiplicity = 1

                         Standard orientation:
 ---------------------------------------------------------------------
 Center     Atomic      Atomic             Coordinates (Angstroms)
 Number     Number       Type             X           Y           Z
 ---------------------------------------------------------------------
      1          6           0       -3.605844    2.395900   -0.518727
      2          6           0       -2.558173    1.482266   -0.363227
      3          6           0       -2.824060    0.134821   -0.101990
      4          6           0       -4.155376   -0.266328   -0.002159
      5          6           0       -5.220963    0.619859   -0.152118
      6          6           0       -4.931557    1.962545   -0.412862
      7          1           0       -3.390162    3.440779   -0.721470
      8          1           0       -1.527638    1.815985   -0.444920
      9          1           0       -2.032194   -0.593739    0.022778
     10          1           0       -6.238043    0.257358   -0.065181
     11          1           0       -5.747205    2.669857   -0.533166
     12          7           0       -4.449308   -1.690289    0.274140
     13          8           0       -5.630817   -2.018514    0.357447
     14          8           0       -3.492616   -2.451201    0.402164
     15          6           0        1.757604    0.861174    0.445761
     16          6           0        2.850359    1.617527    0.882038
     17          6           0        4.156457    1.167671    0.666895
     18          6           0        4.334057   -0.048554    0.009214
     19          6           0        3.265798   -0.824874   -0.437373
     20          6           0        1.968439   -0.355467   -0.211394
     21          1           0        0.746391    1.218227    0.617098
     22          1           0        2.689623    2.562762    1.392665
     23          1           0        5.020501    1.733143    0.994136
     24          1           0        3.457661   -1.763179   -0.943524
     25          1           0        1.121686   -0.944964   -0.551315
     26          7           0        5.712138   -0.535145   -0.224285
     27          8           0        5.841897   -1.609977   -0.806123
     28          8           0        6.636426    0.167510    0.178959
 ---------------------------------------------------------------------

 SCF Done:  E(RHF) =  -868.336491322     A.U. after   16 cycles
 E2 =    -0.2599902336D+01 EUMP2 =    -0.87093639365832D+03

 The electronic state is 1-A.
 Alpha  occ. eigenvalues --  -20.61481 -20.61465 -20.61059 -20.61052 -15.86537
 Alpha  occ. eigenvalues --  -15.86115 -11.32033 -11.31614 -11.28732 -11.28567
 Alpha  occ. eigenvalues --  -11.28373 -11.28186 -11.28170 -11.28099 -11.27777
 Alpha  occ. eigenvalues --  -11.27580 -11.27295 -11.27284  -1.60547  -1.60130
 Alpha  occ. eigenvalues --   -1.40099  -1.39679  -1.20223  -1.19809  -1.09582
 Alpha  occ. eigenvalues --   -1.09213  -1.05668  -1.05221  -0.96397  -0.96021
 Alpha  occ. eigenvalues --   -0.87051  -0.86635  -0.83251  -0.82833  -0.78283
 Alpha  occ. eigenvalues --   -0.77832  -0.72751  -0.72333  -0.71872  -0.71453
 Alpha  occ. eigenvalues --   -0.71328  -0.71009  -0.65882  -0.65691  -0.65476
 Alpha  occ. eigenvalues --   -0.65248  -0.63032  -0.62551  -0.56153  -0.55829
 Alpha  occ. eigenvalues --   -0.53954  -0.53760  -0.53545  -0.53323  -0.49520
 Alpha  occ. eigenvalues --   -0.49499  -0.49104  -0.49077  -0.45476  -0.45054
 Alpha  occ. eigenvalues --   -0.38179  -0.37843  -0.37268  -0.36806
 Alpha virt. eigenvalues --    0.04286   0.04677   0.10380   0.10828   0.15693
 Alpha virt. eigenvalues --    0.16040   0.17261   0.22137   0.24696   0.24951
 Alpha virt. eigenvalues --    0.27790   0.28798   0.30355   0.31295   0.33268

 Mulliken charges:
               1
     1  C   -0.169995
     2  C   -0.222249
     3  C   -0.171737
     4  C    0.159533
     5  C   -0.169182
     6  C   -0.218073
     7  H    0.228039
     8  H    0.218325
     9  H    0.269937
    10  H    0.278593
    11  H    0.226754
    12  N    0.488154
    13  O   -0.457056
    14  O   -0.460982
    15  C   -0.175574
    16  C   -0.218296
    17  C   -0.170278
    18  C    0.159487
    19  C   -0.169785
    20  C   -0.219487
    21  H    0.219744
    22  H    0.223652
    23  H    0.277068
    24  H    0.278958
    25  H    0.224201
    26  N    0.487858
    27  O   -0.458206
    28  O   -0.459402
 Sum of Mulliken charges =  -0.00000

 Dipole moment (field-independent basis, Debye):
    X=             -3.9088    Y=              6.6866    Z=             -0.1763  Tot=              7.7473
 Quadrupole moment (field-independent basis, Debye-Ang):
   XX=           -148.1173   YY=           -104.7482   ZZ=           -105.3437
   XY=            -13.3358   XZ=              8.7296   YZ=              2.3366

 Normal termination of Gaussian 16 at Thu May  6 09:41:29 2021.
