 Gaussian 16, Revision A.03,
 Gaussian 16:  EM64L-G16RevA.03 25-Dec-2016

 -------------
 #p 6-31g* mp2
 -------------

 ------------------------------------------------------
 Input file generated by CHIRIPA (05-May-2021 14:57:23)
 ------------------------------------------------------
 Symbolic Z-matrix:
 Charge =  0 Multiplicity = 1

                         Standard orientation:
 ---------------------------------------------------------------------
 Center     Atomic      Atomic             Coordinates (Angstroms)
 Number     Number       Type             X           Y           Z
 ---------------------------------------------------------------------
      1          6           0       -2.011691    0.527900    0.345257
      2          6           0       -2.917616    1.572006    0.558950
      3          6           0       -4.290708    1.365020    0.396704
      4          6           0       -4.725087    0.095600    0.018317
      5          6           0       -3.847387   -0.964779   -0.201976
      6          6           0       -2.478645   -0.734934   -0.033856
      7          1           0       -0.946730    0.697570    0.473575
      8          1           0       -2.557828    2.553777    0.853436
      9          1           0       -5.014011    2.155587    0.555622
     10          1           0       -4.236115   -1.932515   -0.494884
     11          1           0       -1.777395   -1.547660   -0.200497
     12          7           0       -6.176415   -0.135627   -0.156555
     13          8           0       -6.533714   -1.263226   -0.490463
     14          8           0       -6.929187    0.815115    0.043601
     15          6           0        6.741659    0.995234   -0.101160
     16          6           0        6.636818   -0.340490    0.300550
     17          6           0        5.392092   -0.976153    0.334315
     18          6           0        4.267811   -0.242851   -0.041916
     19          6           0        4.339775    1.089135   -0.446794
     20          6           0        5.594825    1.704533   -0.472894
     21          1           0        7.712602    1.481161   -0.124413
     22          1           0        7.525769   -0.893802    0.589786
     23          1           0        5.282258   -2.009193    0.641207
     24          1           0        3.435753    1.614770   -0.729405
     25          1           0        5.673240    2.741982   -0.785296
     26          7           0        2.944611   -0.905071   -0.010227
     27          8           0        1.969206   -0.237138   -0.346509
     28          8           0        2.907946   -2.079516    0.350292
 ---------------------------------------------------------------------

 SCF Done:  E(RHF) =  -868.340516455     A.U. after   16 cycles
 E2 =    -0.2597987797D+01 EUMP2 =    -0.87093850425207D+03

 The electronic state is 1-A.
 Alpha  occ. eigenvalues --  -20.61922 -20.61870 -20.60023 -20.60014 -15.86924
 Alpha  occ. eigenvalues --  -15.85068 -11.31994 -11.30229 -11.28544 -11.28508
 Alpha  occ. eigenvalues --  -11.28203 -11.27476 -11.27455 -11.26827 -11.26741
 Alpha  occ. eigenvalues --  -11.26283 -11.25758 -11.25567  -1.60957  -1.59102
 Alpha  occ. eigenvalues --   -1.40519  -1.38662  -1.20136  -1.18364  -1.09584
 Alpha  occ. eigenvalues --   -1.07756  -1.05495  -1.03742  -0.96470  -0.94632
 Alpha  occ. eigenvalues --   -0.86906  -0.85121  -0.83316  -0.81484  -0.78395
 Alpha  occ. eigenvalues --   -0.76594  -0.73168  -0.72252  -0.71289  -0.71238
 Alpha  occ. eigenvalues --   -0.70425  -0.69358  -0.65793  -0.65493  -0.63993
 Alpha  occ. eigenvalues --   -0.63708  -0.62847  -0.61097  -0.56000  -0.54095
 Alpha  occ. eigenvalues --   -0.53837  -0.53581  -0.52084  -0.51805  -0.49931
 Alpha  occ. eigenvalues --   -0.49882  -0.48058  -0.48025  -0.45984  -0.44114
 Alpha  occ. eigenvalues --   -0.38094  -0.37085  -0.36282  -0.35368
 Alpha virt. eigenvalues --    0.04107   0.05938   0.10575   0.12303   0.15653
 Alpha virt. eigenvalues --    0.17505   0.20732   0.22626   0.26675   0.27543
 Alpha virt. eigenvalues --    0.28408   0.29475   0.30397   0.31709   0.32410

 Mulliken charges:
               1
     1  C   -0.175965
     2  C   -0.220306
     3  C   -0.172315
     4  C    0.157166
     5  C   -0.172689
     6  C   -0.221479
     7  H    0.243289
     8  H    0.218660
     9  H    0.271615
    10  H    0.273255
    11  H    0.234095
    12  N    0.488278
    13  O   -0.462377
    14  O   -0.463713
    15  C   -0.169669
    16  C   -0.218454
    17  C   -0.170157
    18  C    0.157659
    19  C   -0.170597
    20  C   -0.218380
    21  H    0.228332
    22  H    0.226049
    23  H    0.276871
    24  H    0.273497
    25  H    0.225375
    26  N    0.491664
    27  O   -0.473102
    28  O   -0.456603
 Sum of Mulliken charges =  -0.00000

 Dipole moment (field-independent basis, Debye):
    X=             10.4628    Y=              3.0391    Z=              0.5104  Tot=             10.9072
 Quadrupole moment (field-independent basis, Debye-Ang):
   XX=           -113.5278   YY=            -97.8776   ZZ=           -105.6521
   XY=              2.8344   XZ=             -2.8480   YZ=             -0.3177

 Normal termination of Gaussian 16 at Thu May  6 12:56:13 2021.
