 Gaussian 16, Revision A.03,
 Gaussian 16:  EM64L-G16RevA.03 25-Dec-2016

 -------------
 #p 6-31g* mp2
 -------------

 ------------------------------------------------------
 Input file generated by CHIRIPA (05-May-2021 14:53:15)
 ------------------------------------------------------
 Symbolic Z-matrix:
 Charge =  0 Multiplicity = 1

                         Standard orientation:
 ---------------------------------------------------------------------
 Center     Atomic      Atomic             Coordinates (Angstroms)
 Number     Number       Type             X           Y           Z
 ---------------------------------------------------------------------
      1          6           0       -3.745179    0.051546   -0.373502
      2          6           0       -4.734729   -0.745971    0.476640
      3          6           0       -5.390596   -1.890185   -0.296929
      4          1           0       -4.267442    0.453345   -1.252560
      5          1           0       -2.969296   -0.627125   -0.754038
      6          1           0       -5.507739   -0.065747    0.856595
      7          1           0       -4.210093   -1.145758    1.353876
      8          1           0       -4.633670   -2.591433   -0.662874
      9          1           0       -5.938690   -1.505285   -1.162980
     10          1           0       -6.094200   -2.447025    0.329752
     11          6           0       -3.081314    1.198850    0.385908
     12          6           0       -2.091763    1.996367   -0.464234
     13          6           0       -1.435897    3.140581    0.309334
     14          1           0       -3.857196    1.877521    0.766444
     15          1           0       -2.559050    0.797051    1.264966
     16          1           0       -2.616400    2.396154   -1.341470
     17          1           0       -1.318753    1.316143   -0.844189
     18          1           0       -0.887802    2.755681    1.175386
     19          1           0       -2.192822    3.841829    0.675280
     20          1           0       -0.732292    3.697421   -0.317347
     21          6           0        4.225377    1.493783   -0.088137
     22          6           0        4.744657    0.198369    0.005511
     23          6           0        3.890392   -0.907337    0.052361
     24          6           0        2.515902   -0.680069    0.003206
     25          6           0        1.968039    0.598377   -0.090118
     26          6           0        2.841166    1.689308   -0.135570
     27          1           0        4.896317    2.346984   -0.123989
     28          1           0        5.819225    0.043519    0.042524
     29          1           0        4.265496   -1.920975    0.124843
     30          1           0        0.892341    0.721105   -0.125165
     31          1           0        2.435067    2.694216   -0.208301
     32          7           0        1.601545   -1.842810    0.052064
     33          8           0        0.394430   -1.615879    0.007198
     34          8           0        2.109301   -2.959080    0.134299
 ---------------------------------------------------------------------

 SCF Done:  E(RHF) =  -669.536006913     A.U. after   15 cycles
 E2 =    -0.2091908166D+01 EUMP2 =    -0.67162791507870D+03

 The electronic state is 1-A.
 Alpha  occ. eigenvalues --  -20.60859 -20.60850 -15.85904 -11.31207 -11.27777
 Alpha  occ. eigenvalues --  -11.27743 -11.27509 -11.26786 -11.26758 -11.21759
 Alpha  occ. eigenvalues --  -11.21552 -11.21142 -11.21029 -11.20805 -11.20467
 Alpha  occ. eigenvalues --   -1.59927  -1.39483  -1.19378  -1.08786  -1.08149
 Alpha  occ. eigenvalues --   -1.04772  -1.03353  -0.95802  -0.95628  -0.86824
 Alpha  occ. eigenvalues --   -0.86175  -0.82461  -0.79447  -0.77881  -0.77513
 Alpha  occ. eigenvalues --   -0.72127  -0.71245  -0.70501  -0.65032  -0.64928
 Alpha  occ. eigenvalues --   -0.64640  -0.62171  -0.60689  -0.59241  -0.57385
 Alpha  occ. eigenvalues --   -0.55307  -0.55041  -0.53107  -0.52872  -0.52556
 Alpha  occ. eigenvalues --   -0.52216  -0.49741  -0.48882  -0.48874  -0.47743
 Alpha  occ. eigenvalues --   -0.46463  -0.45439  -0.45276  -0.44893  -0.43553
 Alpha  occ. eigenvalues --   -0.37361  -0.36371
 Alpha virt. eigenvalues --    0.05000   0.11266   0.16506   0.19439   0.23155
 Alpha virt. eigenvalues --    0.24173   0.26236   0.26778   0.27623   0.28365
 Alpha virt. eigenvalues --    0.29743   0.30213   0.31520   0.31925   0.32381

 Mulliken charges:
               1
     1  C   -0.302677
     2  C   -0.299652
     3  C   -0.476646
     4  H    0.145832
     5  H    0.165097
     6  H    0.148042
     7  H    0.155865
     8  H    0.160980
     9  H    0.152447
    10  H    0.158712
    11  C   -0.297241
    12  C   -0.307291
    13  C   -0.480430
    14  H    0.147466
    15  H    0.154299
    16  H    0.154439
    17  H    0.154277
    18  H    0.153514
    19  H    0.160366
    20  H    0.152760
    21  C   -0.170421
    22  C   -0.219055
    23  C   -0.169831
    24  C    0.157043
    25  C   -0.180429
    26  C   -0.223451
    27  H    0.225790
    28  H    0.223499
    29  H    0.275542
    30  H    0.291357
    31  H    0.225497
    32  N    0.487679
    33  O   -0.463825
    34  O   -0.459553
 Sum of Mulliken charges =  -0.00000

 Dipole moment (field-independent basis, Debye):
    X=              3.1980    Y=              3.9641    Z=             -0.1623  Tot=              5.0959
 Quadrupole moment (field-independent basis, Debye-Ang):
   XX=            -75.4571   YY=            -99.3774   ZZ=            -95.7761
   XY=              4.7132   XZ=             -0.2061   YZ=             -0.5844

 Normal termination of Gaussian 16 at Thu May  6 13:50:54 2021.
