 Gaussian 16, Revision A.03,
 Gaussian 16:  EM64L-G16RevA.03 25-Dec-2016

 -------------
 #p 6-31g* mp2
 -------------

 ------------------------------------------------------
 Input file generated by CHIRIPA (05-May-2021 14:51:09)
 ------------------------------------------------------
 Symbolic Z-matrix:
 Charge =  0 Multiplicity = 1

                         Standard orientation:
 ---------------------------------------------------------------------
 Center     Atomic      Atomic             Coordinates (Angstroms)
 Number     Number       Type             X           Y           Z
 ---------------------------------------------------------------------
      1          6           0       -3.085522    0.016984   -0.132657
      2          6           0       -3.388631   -0.757961   -1.415454
      3          6           0       -4.304706   -1.958909   -1.178129
      4          1           0       -2.621959   -0.661074    0.596927
      5          1           0       -4.030119    0.357686    0.313495
      6          1           0       -2.443660   -1.095915   -1.859789
      7          1           0       -3.851350   -0.077934   -2.142138
      8          1           0       -5.262080   -1.635804   -0.756657
      9          1           0       -3.846391   -2.659569   -0.472704
     10          1           0       -4.508352   -2.498510   -2.108301
     11          6           0       -2.170894    1.220450   -0.353686
     12          6           0       -1.867785    1.995395    0.929112
     13          6           0       -0.951710    3.196343    0.691786
     14          1           0       -1.226296    0.879747   -0.799838
     15          1           0       -2.634457    1.898508   -1.083270
     16          1           0       -1.405065    1.315367    1.655795
     17          1           0       -2.812756    2.333349    1.373446
     18          1           0       -1.410025    3.897003   -0.013639
     19          1           0        0.005664    2.873237    0.270314
     20          1           0       -0.748064    3.735944    1.621958
     21          6           0        3.353899   -0.419179    0.112829
     22          6           0        3.601458    0.069026   -1.314881
     23          6           0        5.057883    0.464548   -1.560205
     24          1           0        3.644893    0.370346    0.819169
     25          1           0        4.007617   -1.278301    0.317660
     26          1           0        2.946474    0.926106   -1.517425
     27          1           0        3.309661   -0.721683   -2.017910
     28          1           0        5.723087   -0.387224   -1.385308
     29          1           0        5.357836    1.269928   -0.881978
     30          1           0        5.212448    0.810483   -2.586995
     31          6           0        1.902517   -0.818254    0.373514
     32          6           0        1.654958   -1.306460    1.801223
     33          6           0        0.198533   -1.701981    2.046548
     34          1           0        1.248798    0.040867    0.168683
     35          1           0        1.611522   -1.607780   -0.332826
     36          1           0        1.946754   -0.515751    2.504253
     37          1           0        2.309941   -2.163540    2.003768
     38          1           0       -0.101421   -2.507362    1.368321
     39          1           0       -0.466672   -0.850210    1.871651
     40          1           0        0.043968   -2.047917    3.073338
 ---------------------------------------------------------------------

 SCF Done:  E(RHF) =  -470.732859670     A.U. after   11 cycles
 E2 =    -0.1584477798D+01 EUMP2 =    -0.47231733746782D+03

 The electronic state is 1-A.
 Alpha  occ. eigenvalues --  -11.21677 -11.21649 -11.21637 -11.21557 -11.21480
 Alpha  occ. eigenvalues --  -11.21414 -11.21380 -11.21295 -11.21135 -11.21133
 Alpha  occ. eigenvalues --  -11.21101 -11.21033  -1.08512  -1.08409  -1.03598
 Alpha  occ. eigenvalues --   -1.03527  -0.96052  -0.95972  -0.87066  -0.86995
 Alpha  occ. eigenvalues --   -0.79666  -0.79595  -0.78317  -0.78231  -0.65332
 Alpha  occ. eigenvalues --   -0.64899  -0.61127  -0.60794  -0.59405  -0.59347
 Alpha  occ. eigenvalues --   -0.57681  -0.57568  -0.55384  -0.55236  -0.52734
 Alpha  occ. eigenvalues --   -0.52692  -0.52477  -0.52400  -0.50044  -0.49908
 Alpha  occ. eigenvalues --   -0.48030  -0.47911  -0.46777  -0.46589  -0.46054
 Alpha  occ. eigenvalues --   -0.45811  -0.45583  -0.45409  -0.43848  -0.43775
 Alpha virt. eigenvalues --    0.19269   0.22771   0.23891   0.24471   0.25707
 Alpha virt. eigenvalues --    0.25753   0.26974   0.27766   0.28946   0.29794
 Alpha virt. eigenvalues --    0.30547   0.31472   0.31752   0.31847   0.32201

 Mulliken charges:
               1
     1  C   -0.303274
     2  C   -0.299394
     3  C   -0.475822
     4  H    0.155506
     5  H    0.149125
     6  H    0.152157
     7  H    0.151597
     8  H    0.155074
     9  H    0.155463
    10  H    0.159979
    11  C   -0.301617
    12  C   -0.305575
    13  C   -0.476452
    14  H    0.152564
    15  H    0.149951
    16  H    0.156084
    17  H    0.152750
    18  H    0.155806
    19  H    0.154765
    20  H    0.160423
    21  C   -0.298195
    22  C   -0.299738
    23  C   -0.475755
    24  H    0.149992
    25  H    0.149921
    26  H    0.151616
    27  H    0.152028
    28  H    0.155278
    29  H    0.155389
    30  H    0.160495
    31  C   -0.303708
    32  C   -0.299099
    33  C   -0.486200
    34  H    0.153679
    35  H    0.149626
    36  H    0.152201
    37  H    0.152460
    38  H    0.155047
    39  H    0.164865
    40  H    0.160987
 Sum of Mulliken charges =  -0.00000

 Dipole moment (field-independent basis, Debye):
    X=              0.0184    Y=             -0.0082    Z=              0.0132  Tot=              0.0241
 Quadrupole moment (field-independent basis, Debye-Ang):
   XX=            -85.4896   YY=            -84.4271   ZZ=            -84.7705
   XY=             -1.6256   XZ=              0.3826   YZ=              0.2942

 Normal termination of Gaussian 16 at Thu May  6 03:43:11 2021.
