 Gaussian 16, Revision A.03,
 Gaussian 16:  EM64L-G16RevA.03 25-Dec-2016

 -------------
 #p 6-31g* mp2
 -------------

 ------------------------------------------------------
 Input file generated by CHIRIPA (05-May-2021 14:57:22)
 ------------------------------------------------------
 Symbolic Z-matrix:
 Charge =  0 Multiplicity = 1

                         Standard orientation:
 ---------------------------------------------------------------------
 Center     Atomic      Atomic             Coordinates (Angstroms)
 Number     Number       Type             X           Y           Z
 ---------------------------------------------------------------------
      1          6           0        3.497066    1.934794    0.918356
      2          6           0        2.261501    2.054060    0.273626
      3          6           0        1.683429    0.951670   -0.362864
      4          6           0        2.371562   -0.260347   -0.334993
      5          6           0        3.603938   -0.410891    0.298943
      6          6           0        4.163166    0.704868    0.928939
      7          1           0        3.938807    2.796349    1.410274
      8          1           0        1.741935    3.007998    0.263805
      9          1           0        0.728091    1.016017   -0.869427
     10          1           0        4.098011   -1.374872    0.291846
     11          1           0        5.122847    0.609311    1.428866
     12          7           0        1.769557   -1.434474   -1.005378
     13          8           0        2.395944   -2.491248   -0.966567
     14          8           0        0.682719   -1.275749   -1.556944
     15          6           0       -2.737236    1.979170   -1.399659
     16          6           0       -2.720663    0.660929   -1.867084
     17          6           0       -2.573592   -0.406471   -0.976257
     18          6           0       -2.445019   -0.118040    0.381523
     19          6           0       -2.457750    1.184510    0.878002
     20          6           0       -2.605958    2.236299   -0.031019
     21          1           0       -2.851927    2.802289   -2.098741
     22          1           0       -2.822410    0.458256   -2.929448
     23          1           0       -2.557425   -1.436580   -1.310972
     24          1           0       -2.354157    1.355118    1.942698
     25          1           0       -2.618479    3.259060    0.334836
     26          7           0       -2.288720   -1.239787    1.334234
     27          8           0       -2.177276   -0.959146    2.525644
     28          8           0       -2.280615   -2.378410    0.871517
 ---------------------------------------------------------------------

 SCF Done:  E(RHF) =  -868.338237856     A.U. after   16 cycles
 E2 =    -0.2601721801D+01 EUMP2 =    -0.87093995965750D+03

 The electronic state is 1-A.
 Alpha  occ. eigenvalues --  -20.60781 -20.60731 -20.60350 -20.60285 -15.85808
 Alpha  occ. eigenvalues --  -15.85377 -11.31144 -11.30833 -11.27715 -11.27707
 Alpha  occ. eigenvalues --  -11.27577 -11.27491 -11.27352 -11.27345 -11.26774
 Alpha  occ. eigenvalues --  -11.26723 -11.26630 -11.26427  -1.59818  -1.59395
 Alpha  occ. eigenvalues --   -1.39380  -1.38941  -1.19325  -1.19090  -1.08731
 Alpha  occ. eigenvalues --   -1.08475  -1.04731  -1.04490  -0.95571  -0.95268
 Alpha  occ. eigenvalues --   -0.86135  -0.85883  -0.82412  -0.82088  -0.77457
 Alpha  occ. eigenvalues --   -0.77091  -0.72060  -0.71597  -0.71149  -0.70701
 Alpha  occ. eigenvalues --   -0.70446  -0.70191  -0.64991  -0.64750  -0.64732
 Alpha  occ. eigenvalues --   -0.64492  -0.62088  -0.61806  -0.55254  -0.55040
 Alpha  occ. eigenvalues --   -0.53098  -0.53017  -0.52606  -0.52570  -0.48792
 Alpha  occ. eigenvalues --   -0.48773  -0.48378  -0.48330  -0.44812  -0.44304
 Alpha  occ. eigenvalues --   -0.37317  -0.37138  -0.36364  -0.36011
 Alpha virt. eigenvalues --    0.05032   0.05484   0.11293   0.11584   0.16572
 Alpha virt. eigenvalues --    0.16866   0.21304   0.21707   0.27123   0.27616
 Alpha virt. eigenvalues --    0.28196   0.28606   0.30719   0.31256   0.32311

 Mulliken charges:
               1
     1  C   -0.170045
     2  C   -0.219135
     3  C   -0.174108
     4  C    0.158698
     5  C   -0.169023
     6  C   -0.218405
     7  H    0.224857
     8  H    0.219354
     9  H    0.277863
    10  H    0.276774
    11  H    0.223939
    12  N    0.491156
    13  O   -0.455850
    14  O   -0.468247
    15  C   -0.176304
    16  C   -0.221492
    17  C   -0.150442
    18  C    0.153144
    19  C   -0.174316
    20  C   -0.225981
    21  H    0.223562
    22  H    0.226467
    23  H    0.285589
    24  H    0.273474
    25  H    0.218850
    26  N    0.487645
    27  O   -0.465756
    28  O   -0.452269
 Sum of Mulliken charges =  -0.00000

 Dipole moment (field-independent basis, Debye):
    X=              1.6131    Y=              7.6558    Z=             -1.1270  Tot=              7.9046
 Quadrupole moment (field-independent basis, Debye-Ang):
   XX=            -89.7120   YY=           -105.2761   ZZ=           -106.8724
   XY=             -2.1138   XZ=             15.0579   YZ=              2.0681

 Normal termination of Gaussian 16 at Thu May  6 22:38:04 2021.
