 Gaussian 16, Revision A.03,
 Gaussian 16:  EM64L-G16RevA.03 25-Dec-2016

 -------------
 #p 6-31g* mp2
 -------------

 ------------------------------------------------------
 Input file generated by CHIRIPA (05-May-2021 14:53:12)
 ------------------------------------------------------
 Symbolic Z-matrix:
 Charge =  0 Multiplicity = 1

                         Standard orientation:
 ---------------------------------------------------------------------
 Center     Atomic      Atomic             Coordinates (Angstroms)
 Number     Number       Type             X           Y           Z
 ---------------------------------------------------------------------
      1          6           0       -2.070275    0.704883   -0.705622
      2          6           0       -2.192018    2.153140   -0.230524
      3          6           0       -1.387175    3.127315   -1.091340
      4          1           0       -1.011453    0.411936   -0.700974
      5          1           0       -2.408239    0.638993   -1.749094
      6          1           0       -1.855227    2.216024    0.812181
      7          1           0       -3.250692    2.442612   -0.236120
      8          1           0       -1.727456    3.094057   -2.131390
      9          1           0       -0.324062    2.866182   -1.077132
     10          1           0       -1.488442    4.156838   -0.734007
     11          6           0       -2.869308   -0.280920    0.144946
     12          6           0       -2.747565   -1.729176   -0.330151
     13          6           0       -3.552409   -2.703351    0.530664
     14          1           0       -2.531344   -0.215029    1.188418
     15          1           0       -3.928131    0.012028    0.140299
     16          1           0       -1.688891   -2.018649   -0.324555
     17          1           0       -3.084356   -1.792061   -1.372856
     18          1           0       -4.615521   -2.442218    0.516457
     19          1           0       -3.212128   -2.670094    1.570714
     20          1           0       -3.451141   -3.732874    0.173332
     21          6           0        1.420460    2.081116    1.248090
     22          6           0        1.031430    0.907382    1.901942
     23          6           0        1.308240   -0.342950    1.341055
     24          6           0        1.978739   -0.382816    0.119526
     25          6           0        2.379280    0.768768   -0.556278
     26          6           0        2.091961    2.008192    0.023226
     27          1           0        1.201347    3.048166    1.691031
     28          1           0        0.509799    0.960983    2.853295
     29          1           0        1.018482   -1.267354    1.825756
     30          1           0        2.897837    0.683379   -1.503498
     31          1           0        2.395284    2.918079   -0.486818
     32          7           0        2.277348   -1.700712   -0.484114
     33          8           0        2.869267   -1.708855   -1.561241
     34          8           0        1.913826   -2.700583    0.131310
 ---------------------------------------------------------------------

 SCF Done:  E(RHF) =  -669.534611278     A.U. after   15 cycles
 E2 =    -0.2096298732D+01 EUMP2 =    -0.67163091000956D+03

 The electronic state is 1-A.
 Alpha  occ. eigenvalues --  -20.60934 -20.60929 -15.85983 -11.31392 -11.27971
 Alpha  occ. eigenvalues --  -11.27959 -11.27694 -11.26981 -11.26952 -11.21853
 Alpha  occ. eigenvalues --  -11.21489 -11.21436 -11.21380 -11.21330 -11.20954
 Alpha  occ. eigenvalues --   -1.60003  -1.39555  -1.19589  -1.08972  -1.08487
 Alpha  occ. eigenvalues --   -1.04989  -1.03602  -0.96079  -0.95769  -0.87100
 Alpha  occ. eigenvalues --   -0.86367  -0.82609  -0.79678  -0.78301  -0.77654
 Alpha  occ. eigenvalues --   -0.72197  -0.71328  -0.70659  -0.65230  -0.65193
 Alpha  occ. eigenvalues --   -0.64959  -0.62325  -0.61056  -0.59444  -0.57670
 Alpha  occ. eigenvalues --   -0.55461  -0.55391  -0.53304  -0.53063  -0.52761
 Alpha  occ. eigenvalues --   -0.52492  -0.50044  -0.48961  -0.48951  -0.47972
 Alpha  occ. eigenvalues --   -0.46701  -0.45834  -0.45712  -0.44934  -0.43852
 Alpha  occ. eigenvalues --   -0.37475  -0.36526
 Alpha virt. eigenvalues --    0.04854   0.10914   0.16262   0.20569   0.22962
 Alpha virt. eigenvalues --    0.24051   0.25973   0.26679   0.27470   0.28219
 Alpha virt. eigenvalues --    0.28567   0.30320   0.31335   0.31629   0.32130

 Mulliken charges:
               1
     1  C   -0.302038
     2  C   -0.296043
     3  C   -0.483280
     4  H    0.155705
     5  H    0.150398
     6  H    0.143763
     7  H    0.152004
     8  H    0.156902
     9  H    0.158295
    10  H    0.154368
    11  C   -0.296953
    12  C   -0.302419
    13  C   -0.474852
    14  H    0.142256
    15  H    0.149078
    16  H    0.157346
    17  H    0.153411
    18  H    0.153666
    19  H    0.151864
    20  H    0.164242
    21  C   -0.166292
    22  C   -0.216609
    23  C   -0.172700
    24  C    0.159483
    25  C   -0.171620
    26  C   -0.221322
    27  H    0.228133
    28  H    0.224787
    29  H    0.276637
    30  H    0.276960
    31  H    0.226215
    32  N    0.487995
    33  O   -0.459146
    34  O   -0.460234
 Sum of Mulliken charges =  -0.00000

 Dipole moment (field-independent basis, Debye):
    X=             -0.8526    Y=              4.5247    Z=              2.1096  Tot=              5.0646
 Quadrupole moment (field-independent basis, Debye-Ang):
   XX=            -98.3536   YY=            -98.6864   ZZ=            -91.4054
   XY=             10.7211   XZ=              3.0922   YZ=             -1.7102

 Normal termination of Gaussian 16 at Thu May  6 15:19:06 2021.
