 Gaussian 16, Revision A.03,
 Gaussian 16:  EM64L-G16RevA.03 25-Dec-2016

 -------------
 #p 6-31g* mp2
 -------------

 ------------------------------------------------------
 Input file generated by CHIRIPA (05-May-2021 14:57:22)
 ------------------------------------------------------
 Symbolic Z-matrix:
 Charge =  0 Multiplicity = 1

                         Standard orientation:
 ---------------------------------------------------------------------
 Center     Atomic      Atomic             Coordinates (Angstroms)
 Number     Number       Type             X           Y           Z
 ---------------------------------------------------------------------
      1          6           0        4.487571   -1.480822   -0.697265
      2          6           0        4.811562   -0.380208    0.102859
      3          6           0        3.867310    0.620870    0.349396
      4          6           0        2.602951    0.488754   -0.222645
      5          6           0        2.249911   -0.595763   -1.024191
      6          6           0        3.210033   -1.584903   -1.257250
      7          1           0        5.227253   -2.253847   -0.883546
      8          1           0        5.802931   -0.296748    0.539056
      9          1           0        4.091450    1.483563    0.964976
     10          1           0        1.253397   -0.651265   -1.445258
     11          1           0        2.955621   -2.438540   -1.879040
     12          7           0        1.594914    1.542231    0.031218
     13          8           0        0.487992    1.402455   -0.484363
     14          8           0        1.930823    2.487775    0.740970
     15          6           0       -4.204908    0.661670   -1.565872
     16          6           0       -3.589669    1.504071   -0.634012
     17          6           0       -2.791952    0.973874    0.384363
     18          6           0       -2.630277   -0.409562    0.441436
     19          6           0       -3.230025   -1.274996   -0.472136
     20          6           0       -4.023443   -0.722733   -1.482108
     21          1           0       -4.822925    1.082111   -2.353706
     22          1           0       -3.728828    2.579599   -0.696624
     23          1           0       -2.303980    1.602975    1.118892
     24          1           0       -3.072667   -2.343120   -0.384009
     25          1           0       -4.500023   -1.379369   -2.204428
     26          7           0       -1.788046   -0.982537    1.515096
     27          8           0       -1.661345   -2.204735    1.543671
     28          8           0       -1.270554   -0.198588    2.307727
 ---------------------------------------------------------------------

 SCF Done:  E(RHF) =  -868.339276005     A.U. after   16 cycles
 E2 =    -0.2600084147D+01 EUMP2 =    -0.87093936015181D+03

 The electronic state is 1-A.
 Alpha  occ. eigenvalues --  -20.60631 -20.60594 -20.60072 -20.60026 -15.85645
 Alpha  occ. eigenvalues --  -15.85096 -11.30863 -11.30237 -11.27438 -11.27416
 Alpha  occ. eigenvalues --  -11.27162 -11.26956 -11.26717 -11.26645 -11.26427
 Alpha  occ. eigenvalues --  -11.26417 -11.25925 -11.25739  -1.59664  -1.59130
 Alpha  occ. eigenvalues --   -1.39233  -1.38687  -1.19024  -1.18440  -1.08453
 Alpha  occ. eigenvalues --   -1.07894  -1.04419  -1.03821  -0.95319  -0.94753
 Alpha  occ. eigenvalues --   -0.85829  -0.85243  -0.82165  -0.81597  -0.77224
 Alpha  occ. eigenvalues --   -0.76645  -0.71915  -0.71336  -0.70984  -0.70386
 Alpha  occ. eigenvalues --   -0.70161  -0.69594  -0.64698  -0.64441  -0.64117
 Alpha  occ. eigenvalues --   -0.63858  -0.61782  -0.61174  -0.54946  -0.54399
 Alpha  occ. eigenvalues --   -0.52735  -0.52528  -0.52150  -0.51936  -0.48657
 Alpha  occ. eigenvalues --   -0.48627  -0.48099  -0.48059  -0.44737  -0.44084
 Alpha  occ. eigenvalues --   -0.36996  -0.36436  -0.36003  -0.35362
 Alpha virt. eigenvalues --    0.05313   0.05888   0.11649   0.12275   0.16848
 Alpha virt. eigenvalues --    0.17382   0.21717   0.22254   0.27615   0.28176
 Alpha virt. eigenvalues --    0.28569   0.29171   0.31204   0.31752   0.32759

 Mulliken charges:
               1
     1  C   -0.170002
     2  C   -0.218232
     3  C   -0.169219
     4  C    0.161493
     5  C   -0.168354
     6  C   -0.217047
     7  H    0.224964
     8  H    0.222849
     9  H    0.275311
    10  H    0.272635
    11  H    0.222621
    12  N    0.493799
    13  O   -0.470415
    14  O   -0.458982
    15  C   -0.170554
    16  C   -0.219517
    17  C   -0.148826
    18  C    0.156434
    19  C   -0.174858
    20  C   -0.220681
    21  H    0.222076
    22  H    0.223674
    23  H    0.282375
    24  H    0.269720
    25  H    0.218026
    26  N    0.487599
    27  O   -0.469153
    28  O   -0.457736
 Sum of Mulliken charges =  -0.00000

 Dipole moment (field-independent basis, Debye):
    X=              0.8116    Y=             -1.4060    Z=             -4.5371  Tot=              4.8188
 Quadrupole moment (field-independent basis, Debye-Ang):
   XX=            -70.0167   YY=           -105.4528   ZZ=           -107.0641
   XY=            -10.2322   XZ=              7.9949   YZ=              6.5744

 Normal termination of Gaussian 16 at Fri May  7 04:50:53 2021.
