 Gaussian 16, Revision A.03,
 Gaussian 16:  EM64L-G16RevA.03 25-Dec-2016

 -------------
 #p 6-31g* mp2
 -------------

 ------------------------------------------------------
 Input file generated by CHIRIPA (05-May-2021 14:51:08)
 ------------------------------------------------------
 Symbolic Z-matrix:
 Charge =  0 Multiplicity = 1

                         Standard orientation:
 ---------------------------------------------------------------------
 Center     Atomic      Atomic             Coordinates (Angstroms)
 Number     Number       Type             X           Y           Z
 ---------------------------------------------------------------------
      1          6           0       -2.700405   -0.692897   -0.140785
      2          6           0       -2.250323   -1.657542    0.956881
      3          6           0       -1.260316   -2.707520    0.451680
      4          1           0       -3.157388   -1.266076   -0.959062
      5          1           0       -1.818296   -0.192791   -0.564074
      6          1           0       -3.133144   -2.154659    1.378920
      7          1           0       -1.794531   -1.081983    1.772725
      8          1           0       -0.362428   -2.227977    0.048645
      9          1           0       -1.708646   -3.306748   -0.347398
     10          1           0       -0.951776   -3.386598    1.252628
     11          6           0       -3.690280    0.362640    0.348825
     12          6           0       -4.140362    1.327285   -0.748841
     13          6           0       -5.130369    2.377262   -0.243641
     14          1           0       -4.572389   -0.137466    0.772114
     15          1           0       -3.233297    0.935819    1.167102
     16          1           0       -4.596154    0.751726   -1.564686
     17          1           0       -3.257541    1.824402   -1.170881
     18          1           0       -4.682039    2.976491    0.555438
     19          1           0       -6.028257    1.897720    0.159395
     20          1           0       -5.438909    3.056341   -1.044588
     21          6           0        3.369522    0.738675    0.369413
     22          6           0        3.708477    2.041616   -0.355459
     23          6           0        4.054760    3.179672    0.605120
     24          1           0        2.526101    0.914468    1.051088
     25          1           0        4.222130    0.443681    0.996655
     26          1           0        2.856012    2.333332   -0.982213
     27          1           0        4.551066    1.862653   -1.035629
     28          1           0        4.919211    2.913554    1.221970
     29          1           0        3.214527    3.386906    1.275689
     30          1           0        4.293749    4.101551    0.065784
     31          6           0        3.021163   -0.408418   -0.577453
     32          6           0        2.682208   -1.711358    0.147419
     33          6           0        2.335925   -2.849415   -0.813159
     34          1           0        2.168554   -0.113424   -1.204694
     35          1           0        3.864584   -0.584211   -1.259128
     36          1           0        1.839618   -1.532397    0.827589
     37          1           0        3.534672   -2.003075    0.774174
     38          1           0        3.176159   -3.056649   -1.483729
     39          1           0        1.471472   -2.583296   -1.430010
     40          1           0        2.096936   -3.771294   -0.273824
 ---------------------------------------------------------------------

 SCF Done:  E(RHF) =  -470.732413273     A.U. after   11 cycles
 E2 =    -0.1583417190D+01 EUMP2 =    -0.47231583046360D+03

 The electronic state is 1-A.
 Alpha  occ. eigenvalues --  -11.21628 -11.21626 -11.21600 -11.21593 -11.21433
 Alpha  occ. eigenvalues --  -11.21433 -11.21374 -11.21373 -11.21095 -11.21090
 Alpha  occ. eigenvalues --  -11.21019 -11.20986  -1.08472  -1.08433  -1.03603
 Alpha  occ. eigenvalues --   -1.03485  -0.96077  -0.95905  -0.87079  -0.86931
 Alpha  occ. eigenvalues --   -0.79623  -0.79586  -0.78269  -0.78264  -0.65229
 Alpha  occ. eigenvalues --   -0.64983  -0.61281  -0.60679  -0.59404  -0.59306
 Alpha  occ. eigenvalues --   -0.57611  -0.57590  -0.55595  -0.54976  -0.52742
 Alpha  occ. eigenvalues --   -0.52614  -0.52433  -0.52345  -0.50040  -0.49798
 Alpha  occ. eigenvalues --   -0.47996  -0.47812  -0.46667  -0.46600  -0.45859
 Alpha  occ. eigenvalues --   -0.45772  -0.45733  -0.45671  -0.43825  -0.43765
 Alpha virt. eigenvalues --    0.20925   0.23228   0.23635   0.24988   0.26235
 Alpha virt. eigenvalues --    0.26886   0.27074   0.27622   0.27941   0.29187
 Alpha virt. eigenvalues --    0.30427   0.31447   0.31554   0.31922   0.32245

 Mulliken charges:
               1
     1  C   -0.298126
     2  C   -0.299950
     3  C   -0.482719
     4  H    0.149858
     5  H    0.148283
     6  H    0.151886
     7  H    0.151190
     8  H    0.166039
     9  H    0.154744
    10  H    0.159551
    11  C   -0.298231
    12  C   -0.299644
    13  C   -0.475716
    14  H    0.149770
    15  H    0.149506
    16  H    0.152040
    17  H    0.151692
    18  H    0.155167
    19  H    0.155277
    20  H    0.160328
    21  C   -0.298198
    22  C   -0.299638
    23  C   -0.475698
    24  H    0.149223
    25  H    0.149778
    26  H    0.151727
    27  H    0.152131
    28  H    0.155300
    29  H    0.155030
    30  H    0.160354
    31  C   -0.298281
    32  C   -0.304648
    33  C   -0.477804
    34  H    0.148547
    35  H    0.150158
    36  H    0.154658
    37  H    0.152648
    38  H    0.155686
    39  H    0.155911
    40  H    0.162171
 Sum of Mulliken charges =  -0.00000

 Dipole moment (field-independent basis, Debye):
    X=              0.0176    Y=             -0.0224    Z=             -0.0057  Tot=              0.0291
 Quadrupole moment (field-independent basis, Debye-Ang):
   XX=            -83.7762   YY=            -85.7881   ZZ=            -85.1385
   XY=              0.5146   XZ=              0.1838   YZ=             -0.5215

 Normal termination of Gaussian 16 at Wed May  5 19:42:06 2021.
