 Gaussian 16, Revision A.03,
 Gaussian 16:  EM64L-G16RevA.03 25-Dec-2016

 -------------
 #p 6-31g* mp2
 -------------

 ------------------------------------------------------
 Input file generated by CHIRIPA (05-May-2021 14:55:20)
 ------------------------------------------------------
 Symbolic Z-matrix:
 Charge =  0 Multiplicity = 1

                         Standard orientation:
 ---------------------------------------------------------------------
 Center     Atomic      Atomic             Coordinates (Angstroms)
 Number     Number       Type             X           Y           Z
 ---------------------------------------------------------------------
      1          6           0       -3.744541   -2.101545    0.507002
      2          6           0       -2.619241   -1.826236   -0.276851
      3          6           0       -2.256215   -0.505942   -0.558957
      4          6           0       -3.044616    0.519259   -0.038691
      5          6           0       -4.171470    0.277154    0.745448
      6          6           0       -4.515704   -1.050824    1.014755
      7          1           0       -4.019249   -3.130166    0.721178
      8          1           0       -2.018489   -2.640237   -0.672508
      9          1           0       -1.390066   -0.264402   -1.162996
     10          1           0       -4.750768    1.109698    1.125846
     11          1           0       -5.390153   -1.261655    1.623799
     12          7           0       -2.670243    1.921062   -0.330569
     13          8           0       -3.381341    2.806445    0.139617
     14          8           0       -1.672801    2.107869   -1.024002
     15          6           0        3.513361   -0.714569   -0.511900
     16          6           0        2.182040   -1.154421    0.098098
     17          6           0        1.267177   -1.844322   -0.914255
     18          1           0        3.317457   -0.035892   -1.353304
     19          1           0        4.024568   -1.592377   -0.930849
     20          1           0        1.674131   -0.276260    0.516999
     21          1           0        2.381142   -1.831981    0.938269
     22          1           0        1.750386   -2.736999   -1.324420
     23          1           0        1.039358   -1.172438   -1.748084
     24          1           0        0.321099   -2.150457   -0.457002
     25          6           0        4.438810   -0.023285    0.487801
     26          6           0        5.770132    0.416566   -0.122198
     27          6           0        6.684995    1.106466    0.890155
     28          1           0        3.927604    0.854522    0.906749
     29          1           0        4.634714   -0.701964    1.329205
     30          1           0        5.571029    1.094125   -0.962368
     31          1           0        6.278040   -0.461595   -0.541098
     32          1           0        6.912813    0.434583    1.723985
     33          1           0        6.201785    1.999144    1.300321
     34          1           0        7.631072    1.412601    0.432903
 ---------------------------------------------------------------------

 SCF Done:  E(RHF) =  -669.534944589     A.U. after   15 cycles
 E2 =    -0.2092136833D+01 EUMP2 =    -0.67162708142221D+03

 The electronic state is 1-A.
 Alpha  occ. eigenvalues --  -20.60764 -20.60758 -15.85815 -11.31148 -11.27741
 Alpha  occ. eigenvalues --  -11.27678 -11.27479 -11.26746 -11.26706 -11.21895
 Alpha  occ. eigenvalues --  -11.21734 -11.21550 -11.21491 -11.21362 -11.20989
 Alpha  occ. eigenvalues --   -1.59839  -1.39393  -1.19334  -1.08735  -1.08534
 Alpha  occ. eigenvalues --   -1.04743  -1.03706  -0.96199  -0.95567  -0.87230
 Alpha  occ. eigenvalues --   -0.86133  -0.82410  -0.79781  -0.78308  -0.77453
 Alpha  occ. eigenvalues --   -0.72036  -0.71161  -0.70448  -0.65166  -0.64993
 Alpha  occ. eigenvalues --   -0.64746  -0.62207  -0.61065  -0.59540  -0.57773
 Alpha  occ. eigenvalues --   -0.55508  -0.55203  -0.53192  -0.52906  -0.52775
 Alpha  occ. eigenvalues --   -0.52521  -0.50105  -0.48791  -0.48789  -0.48085
 Alpha  occ. eigenvalues --   -0.46770  -0.45865  -0.45751  -0.44804  -0.43952
 Alpha  occ. eigenvalues --   -0.37320  -0.36309
 Alpha virt. eigenvalues --    0.05052   0.11277   0.16438   0.20616   0.22905
 Alpha virt. eigenvalues --    0.24081   0.26253   0.26564   0.27189   0.27775
 Alpha virt. eigenvalues --    0.28949   0.29903   0.31347   0.31849   0.32416

 Mulliken charges:
               1
     1  C   -0.170992
     2  C   -0.223729
     3  C   -0.171909
     4  C    0.157439
     5  C   -0.170405
     6  C   -0.219002
     7  H    0.225598
     8  H    0.225996
     9  H    0.282334
    10  H    0.275462
    11  H    0.223310
    12  N    0.487944
    13  O   -0.460444
    14  O   -0.461125
    15  C   -0.299520
    16  C   -0.299265
    17  C   -0.487109
    18  H    0.153828
    19  H    0.148429
    20  H    0.158577
    21  H    0.151937
    22  H    0.157661
    23  H    0.157654
    24  H    0.154173
    25  C   -0.299129
    26  C   -0.300036
    27  C   -0.475980
    28  H    0.153194
    29  H    0.148589
    30  H    0.153905
    31  H    0.150936
    32  H    0.154403
    33  H    0.156814
    34  H    0.160462
 Sum of Mulliken charges =  -0.00000

 Dipole moment (field-independent basis, Debye):
    X=             -1.2144    Y=             -4.8682    Z=              1.0444  Tot=              5.1249
 Quadrupole moment (field-independent basis, Debye-Ang):
   XX=            -84.0536   YY=            -99.5750   ZZ=            -94.3842
   XY=             12.5111   XZ=             -5.9757   YZ=              1.1222

 Normal termination of Gaussian 16 at Wed May  5 15:53:11 2021.
