 Gaussian 16, Revision A.03,
 Gaussian 16:  EM64L-G16RevA.03 25-Dec-2016

 -------------
 #p 6-31g* mp2
 -------------

 ------------------------------------------------------
 Input file generated by CHIRIPA (05-May-2021 14:53:17)
 ------------------------------------------------------
 Symbolic Z-matrix:
 Charge =  0 Multiplicity = 1

                         Standard orientation:
 ---------------------------------------------------------------------
 Center     Atomic      Atomic             Coordinates (Angstroms)
 Number     Number       Type             X           Y           Z
 ---------------------------------------------------------------------
      1          6           0        3.052211    1.101935   -0.352465
      2          6           0        2.044184    2.150469    0.119173
      3          6           0        2.374106    3.556065   -0.384063
      4          1           0        4.056487    1.388643   -0.011622
      5          1           0        3.083254    1.101263   -1.450842
      6          1           0        2.014039    2.148200    1.216306
      7          1           0        1.042164    1.861132   -0.222669
      8          1           0        2.384625    3.580801   -1.478540
      9          1           0        3.362022    3.869500   -0.031388
     10          1           0        1.640791    4.289809   -0.035166
     11          6           0        2.735877   -0.308263    0.142512
     12          6           0        3.743904   -1.356797   -0.329126
     13          6           0        3.413982   -2.762392    0.174110
     14          1           0        2.704834   -0.307591    1.240889
     15          1           0        1.731601   -0.594970   -0.198331
     16          1           0        4.745924   -1.067459    0.012716
     17          1           0        3.774049   -1.354528   -1.426260
     18          1           0        2.426065   -3.075828   -0.178565
     19          1           0        3.403463   -2.787128    1.268587
     20          1           0        4.147296   -3.496137   -0.174787
     21          6           0       -1.416887   -2.686315    0.000135
     22          6           0       -0.677992   -1.703590    0.667073
     23          6           0       -1.136045   -0.383720    0.718824
     24          6           0       -2.342575   -0.080298    0.089928
     25          6           0       -3.101482   -1.037031   -0.582387
     26          6           0       -2.624146   -2.350491   -0.621371
     27          1           0       -1.053570   -3.709132   -0.035108
     28          1           0        0.259924   -1.961513    1.150638
     29          1           0       -0.584072    0.396820    1.228238
     30          1           0       -4.032829   -0.749547   -1.055000
     31          1           0       -3.200084   -3.111619   -1.140048
     32          7           0       -2.837702    1.313597    0.137957
     33          8           0       -3.903708    1.555268   -0.424060
     34          8           0       -2.150403    2.138066    0.736710
 ---------------------------------------------------------------------

 SCF Done:  E(RHF) =  -669.534455917     A.U. after   15 cycles
 E2 =    -0.2094668596D+01 EUMP2 =    -0.67162912451276D+03

 The electronic state is 1-A.
 Alpha  occ. eigenvalues --  -20.60808 -20.60803 -15.85848 -11.31193 -11.27754
 Alpha  occ. eigenvalues --  -11.27698 -11.27479 -11.26776 -11.26676 -11.22220
 Alpha  occ. eigenvalues --  -11.21961 -11.21910 -11.21646 -11.21586 -11.20867
 Alpha  occ. eigenvalues --   -1.59875  -1.39429  -1.19365  -1.08855  -1.08748
 Alpha  occ. eigenvalues --   -1.04759  -1.03870  -0.96342  -0.95598  -0.87364
 Alpha  occ. eigenvalues --   -0.86156  -0.82447  -0.79988  -0.78726  -0.77401
 Alpha  occ. eigenvalues --   -0.72065  -0.71195  -0.70460  -0.65495  -0.65006
 Alpha  occ. eigenvalues --   -0.64759  -0.62091  -0.61255  -0.59742  -0.57932
 Alpha  occ. eigenvalues --   -0.55661  -0.55257  -0.53167  -0.52979  -0.52884
 Alpha  occ. eigenvalues --   -0.52720  -0.50302  -0.48831  -0.48826  -0.48246
 Alpha  occ. eigenvalues --   -0.47017  -0.46143  -0.46055  -0.44806  -0.44110
 Alpha  occ. eigenvalues --   -0.37345  -0.36255
 Alpha virt. eigenvalues --    0.04997   0.11117   0.16405   0.20344   0.22923
 Alpha virt. eigenvalues --    0.23437   0.25228   0.26387   0.26963   0.28625
 Alpha virt. eigenvalues --    0.29595   0.30135   0.30955   0.31449   0.32294

 Mulliken charges:
               1
     1  C   -0.296751
     2  C   -0.305600
     3  C   -0.476357
     4  H    0.150413
     5  H    0.151249
     6  H    0.149763
     7  H    0.158865
     8  H    0.155135
     9  H    0.153164
    10  H    0.169370
    11  C   -0.311784
    12  C   -0.297411
    13  C   -0.479550
    14  H    0.143441
    15  H    0.155961
    16  H    0.155128
    17  H    0.154956
    18  H    0.148075
    19  H    0.153622
    20  H    0.164833
    21  C   -0.174103
    22  C   -0.223431
    23  C   -0.173352
    24  C    0.157226
    25  C   -0.171350
    26  C   -0.218363
    27  H    0.225981
    28  H    0.233133
    29  H    0.281346
    30  H    0.275447
    31  H    0.223417
    32  N    0.488293
    33  O   -0.459994
    34  O   -0.460775
 Sum of Mulliken charges =  -0.00000

 Dipole moment (field-independent basis, Debye):
    X=              1.7622    Y=             -4.7805    Z=             -0.2318  Tot=              5.1003
 Quadrupole moment (field-independent basis, Debye-Ang):
   XX=            -99.5384   YY=            -94.9331   ZZ=            -93.4123
   XY=             12.7299   XZ=              3.3155   YZ=              0.8630

 Normal termination of Gaussian 16 at Thu May  6 07:33:47 2021.
