 Gaussian 16, Revision A.03,
 Gaussian 16:  EM64L-G16RevA.03 25-Dec-2016

 -------------
 #p 6-31g* mp2
 -------------

 ------------------------------------------------------
 Input file generated by CHIRIPA (05-May-2021 14:53:13)
 ------------------------------------------------------
 Symbolic Z-matrix:
 Charge =  0 Multiplicity = 1

                         Standard orientation:
 ---------------------------------------------------------------------
 Center     Atomic      Atomic             Coordinates (Angstroms)
 Number     Number       Type             X           Y           Z
 ---------------------------------------------------------------------
      1          6           0       -4.927495    0.080604   -0.359045
      2          6           0       -6.185256   -0.783025   -0.459874
      3          6           0       -7.046939   -0.433040   -1.673467
      4          1           0       -5.219756    1.138499   -0.310198
      5          1           0       -4.335180   -0.037975   -1.276922
      6          1           0       -6.774335   -0.663920    0.458503
      7          1           0       -5.889975   -1.838999   -0.508294
      8          1           0       -6.480571   -0.569711   -2.600370
      9          1           0       -7.369955    0.612044   -1.628080
     10          1           0       -7.940785   -1.062426   -1.726119
     11          6           0       -4.055799   -0.257373    0.849112
     12          6           0       -2.798038    0.606256    0.949942
     13          6           0       -1.936355    0.256271    2.163534
     14          1           0       -4.648114   -0.138794    1.766989
     15          1           0       -3.763538   -1.315268    0.800265
     16          1           0       -3.093319    1.662230    0.998362
     17          1           0       -2.208959    0.487151    0.031565
     18          1           0       -1.613339   -0.788813    2.118147
     19          1           0       -2.502724    0.392942    3.090437
     20          1           0       -1.042509    0.885657    2.216186
     21          6           0        1.511411    1.609818   -0.156794
     22          6           0        1.367263    0.268344    0.212246
     23          6           0        2.467232   -0.594429    0.196805
     24          6           0        3.702228   -0.079905   -0.194781
     25          6           0        3.877841    1.251695   -0.567999
     26          6           0        2.764031    2.096354   -0.545054
     27          1           0        0.651552    2.273005   -0.141885
     28          1           0        0.395667   -0.112261    0.514213
     29          1           0        2.383870   -1.637316    0.477621
     30          1           0        4.859066    1.602082   -0.864383
     31          1           0        2.878937    3.137703   -0.832168
     32          7           0        4.874043   -0.983696   -0.215099
     33          8           0        5.951362   -0.505901   -0.563999
     34          8           0        4.693003   -2.152770    0.118259
 ---------------------------------------------------------------------

 SCF Done:  E(RHF) =  -669.535180640     A.U. after   15 cycles
 E2 =    -0.2091742081D+01 EUMP2 =    -0.67162692272101D+03

 The electronic state is 1-A.
 Alpha  occ. eigenvalues --  -20.60719 -20.60714 -15.85771 -11.31127 -11.27692
 Alpha  occ. eigenvalues --  -11.27671 -11.27420 -11.26712 -11.26615 -11.22796
 Alpha  occ. eigenvalues --  -11.22304 -11.22262 -11.22163 -11.22071 -11.21534
 Alpha  occ. eigenvalues --   -1.59795  -1.39349  -1.19292  -1.09276  -1.08689
 Alpha  occ. eigenvalues --   -1.04701  -1.04391  -0.96840  -0.95527  -0.87857
 Alpha  occ. eigenvalues --   -0.86086  -0.82358  -0.80479  -0.79033  -0.77412
 Alpha  occ. eigenvalues --   -0.71991  -0.71117  -0.70404  -0.65955  -0.64943
 Alpha  occ. eigenvalues --   -0.64737  -0.62223  -0.61641  -0.60184  -0.58416
 Alpha  occ. eigenvalues --   -0.56125  -0.55177  -0.53586  -0.53277  -0.53001
 Alpha  occ. eigenvalues --   -0.52675  -0.50758  -0.48786  -0.48746  -0.48740
 Alpha  occ. eigenvalues --   -0.47522  -0.46580  -0.46474  -0.44756  -0.44623
 Alpha  occ. eigenvalues --   -0.37272  -0.36286
 Alpha virt. eigenvalues --    0.05117   0.11272   0.16617   0.19450   0.22528
 Alpha virt. eigenvalues --    0.23928   0.25696   0.25971   0.26718   0.27625
 Alpha virt. eigenvalues --    0.29228   0.29879   0.30774   0.31386   0.32054

 Mulliken charges:
               1
     1  C   -0.299072
     2  C   -0.300380
     3  C   -0.476197
     4  H    0.150279
     5  H    0.149810
     6  H    0.153113
     7  H    0.153240
     8  H    0.155832
     9  H    0.155567
    10  H    0.162269
    11  C   -0.298042
    12  C   -0.305406
    13  C   -0.486243
    14  H    0.152925
    15  H    0.151405
    16  H    0.154664
    17  H    0.147035
    18  H    0.154645
    19  H    0.165301
    20  H    0.158626
    21  C   -0.175604
    22  C   -0.226021
    23  C   -0.173465
    24  C    0.158998
    25  C   -0.171479
    26  C   -0.218276
    27  H    0.226325
    28  H    0.239352
    29  H    0.275555
    30  H    0.275319
    31  H    0.223110
    32  N    0.488003
    33  O   -0.460647
    34  O   -0.460539
 Sum of Mulliken charges =  -0.00000

 Dipole moment (field-independent basis, Debye):
    X=             -4.3974    Y=              3.1644    Z=              0.1185  Tot=              5.4189
 Quadrupole moment (field-independent basis, Debye-Ang):
   XX=           -123.4296   YY=            -92.2482   ZZ=            -95.2589
   XY=             14.5283   XZ=             -1.0201   YZ=             -1.5048

 Normal termination of Gaussian 16 at Wed May  5 23:25:38 2021.
