 Gaussian 16, Revision A.03,
 Gaussian 16:  EM64L-G16RevA.03 25-Dec-2016

 -------------
 #p 6-31g* mp2
 -------------

 ------------------------------------------------------
 Input file generated by CHIRIPA (05-May-2021 14:55:20)
 ------------------------------------------------------
 Symbolic Z-matrix:
 Charge =  0 Multiplicity = 1

                         Standard orientation:
 ---------------------------------------------------------------------
 Center     Atomic      Atomic             Coordinates (Angstroms)
 Number     Number       Type             X           Y           Z
 ---------------------------------------------------------------------
      1          6           0        4.212647    1.361333    1.189512
      2          6           0        4.697416    0.418221    0.277339
      3          6           0        3.813789   -0.361780   -0.474557
      4          6           0        2.445445   -0.171598   -0.288124
      5          6           0        1.931643    0.759843    0.612829
      6          6           0        2.833739    1.528839    1.354055
      7          1           0        4.906243    1.962983    1.769459
      8          1           0        5.767786    0.285980    0.147472
      9          1           0        4.161891   -1.099146   -1.187672
     10          1           0        0.859288    0.868967    0.720365
     11          1           0        2.454410    2.260513    2.061733
     12          7           0        1.500213   -0.991525   -1.078475
     13          8           0        0.299224   -0.804810   -0.895720
     14          8           0        1.978226   -1.805374   -1.865742
     15          6           0       -3.209817   -0.437492    0.780577
     16          6           0       -3.083024   -1.894767    0.335313
     17          6           0       -2.843685   -2.851267    1.503909
     18          1           0       -2.296549   -0.143485    1.315783
     19          1           0       -4.035370   -0.351901    1.500667
     20          1           0       -2.258844   -1.977339   -0.384774
     21          1           0       -3.996622   -2.185280   -0.199062
     22          1           0       -3.669759   -2.798373    2.220432
     23          1           0       -1.922107   -2.589249    2.033666
     24          1           0       -2.756110   -3.887596    1.163008
     25          6           0       -3.449334    0.530840   -0.376443
     26          6           0       -3.576127    1.988115    0.068820
     27          6           0       -3.815466    2.944616   -1.099776
     28          1           0       -2.623780    0.445249   -1.096533
     29          1           0       -4.362603    0.236833   -0.911650
     30          1           0       -2.662529    2.278628    0.603196
     31          1           0       -4.400307    2.070686    0.788907
     32          1           0       -4.737044    2.682598   -1.629533
     33          1           0       -2.989393    2.891720   -1.816299
     34          1           0       -3.903041    3.980943   -0.758875
 ---------------------------------------------------------------------

 SCF Done:  E(RHF) =  -669.536441920     A.U. after   15 cycles
 E2 =    -0.2091828215D+01 EUMP2 =    -0.67162827013567D+03

 The electronic state is 1-A.
 Alpha  occ. eigenvalues --  -20.61061 -20.61052 -15.86088 -11.31360 -11.27920
 Alpha  occ. eigenvalues --  -11.27913 -11.27644 -11.26913 -11.26904 -11.21107
 Alpha  occ. eigenvalues --  -11.20648 -11.20512 -11.20443 -11.20296 -11.20135
 Alpha  occ. eigenvalues --   -1.60114  -1.39673  -1.19523  -1.08936  -1.07558
 Alpha  occ. eigenvalues --   -1.04913  -1.02713  -0.95787  -0.95196  -0.86315
 Alpha  occ. eigenvalues --   -0.86223  -0.82625  -0.78793  -0.77686  -0.77335
 Alpha  occ. eigenvalues --   -0.72324  -0.71423  -0.70632  -0.65191  -0.64915
 Alpha  occ. eigenvalues --   -0.64147  -0.62260  -0.60095  -0.58588  -0.56797
 Alpha  occ. eigenvalues --   -0.55418  -0.54483  -0.53246  -0.53004  -0.51933
 Alpha  occ. eigenvalues --   -0.51625  -0.49186  -0.49075  -0.49044  -0.47120
 Alpha  occ. eigenvalues --   -0.45823  -0.45063  -0.44929  -0.44675  -0.42956
 Alpha  occ. eigenvalues --   -0.37498  -0.36511
 Alpha virt. eigenvalues --    0.04827   0.11142   0.16322   0.20380   0.22932
 Alpha virt. eigenvalues --    0.25079   0.25949   0.27446   0.28266   0.28610
 Alpha virt. eigenvalues --    0.29234   0.31251   0.32110   0.32497   0.32686

 Mulliken charges:
               1
     1  C   -0.170347
     2  C   -0.218632
     3  C   -0.170292
     4  C    0.157460
     5  C   -0.171727
     6  C   -0.218740
     7  H    0.226330
     8  H    0.224075
     9  H    0.275984
    10  H    0.276608
    11  H    0.224383
    12  N    0.493582
    13  O   -0.466447
    14  O   -0.457941
    15  C   -0.292790
    16  C   -0.309709
    17  C   -0.474229
    18  H    0.143349
    19  H    0.143136
    20  H    0.181472
    21  H    0.146270
    22  H    0.149230
    23  H    0.151903
    24  H    0.159370
    25  C   -0.303953
    26  C   -0.297046
    27  C   -0.475366
    28  H    0.166191
    29  H    0.147223
    30  H    0.143015
    31  H    0.149568
    32  H    0.155618
    33  H    0.156240
    34  H    0.156213
 Sum of Mulliken charges =  -0.00000

 Dipole moment (field-independent basis, Debye):
    X=              3.6387    Y=              2.7945    Z=              2.5738  Tot=              5.2606
 Quadrupole moment (field-independent basis, Debye-Ang):
   XX=            -75.4249   YY=            -96.4044   ZZ=            -96.7488
   XY=              5.0285   XZ=              4.3956   YZ=              0.8750

 Normal termination of Gaussian 16 at Wed May  5 17:23:01 2021.
