 Gaussian 16, Revision A.03,
 Gaussian 16:  EM64L-G16RevA.03 25-Dec-2016

 -------------
 #p 6-31g* mp2
 -------------

 ------------------------------------------------------
 Input file generated by CHIRIPA (05-May-2021 14:55:22)
 ------------------------------------------------------
 Symbolic Z-matrix:
 Charge =  0 Multiplicity = 1

                         Standard orientation:
 ---------------------------------------------------------------------
 Center     Atomic      Atomic             Coordinates (Angstroms)
 Number     Number       Type             X           Y           Z
 ---------------------------------------------------------------------
      1          6           0        1.488979    1.289374    1.546175
      2          6           0        1.740545    1.606481    0.207266
      3          6           0        2.644782    0.849672   -0.543828
      4          6           0        3.282664   -0.222265    0.078546
      5          6           0        3.053198   -0.563239    1.410601
      6          6           0        2.144952    0.207433    2.142519
      7          1           0        0.784989    1.882666    2.122195
      8          1           0        1.232558    2.446173   -0.258473
      9          1           0        2.858220    1.073078   -1.582073
     10          1           0        3.574866   -1.406160    1.847368
     11          1           0        1.951542   -0.041152    3.182155
     12          7           0        4.242061   -1.030803   -0.706453
     13          8           0        4.791133   -1.970221   -0.134919
     14          8           0        4.426798   -0.709807   -1.878404
     15          6           0       -3.595710    0.726170   -0.052562
     16          6           0       -2.514904    1.121237   -1.059420
     17          6           0       -1.715780    2.347783   -0.618080
     18          1           0       -4.276854    1.575136    0.096589
     19          1           0       -3.125569    0.527922    0.920608
     20          1           0       -2.986783    1.317339   -2.030754
     21          1           0       -1.836366    0.271168   -1.206336
     22          1           0       -1.218765    2.159769    0.339118
     23          1           0       -2.375719    3.211883   -0.489984
     24          1           0       -0.948663    2.612670   -1.352400
     25          6           0       -4.403120   -0.498311   -0.479721
     26          6           0       -5.483927   -0.893377    0.527136
     27          6           0       -6.283052   -2.119922    0.085796
     28          1           0       -4.873262   -0.300063   -1.452891
     29          1           0       -3.721977   -1.347276   -0.628872
     30          1           0       -6.162465   -0.043307    0.674053
     31          1           0       -5.012047   -1.089479    1.498471
     32          1           0       -5.623111   -2.984024   -0.042299
     33          1           0       -6.780066   -1.931909   -0.871402
     34          1           0       -7.050168   -2.384810    0.820116
 ---------------------------------------------------------------------

 SCF Done:  E(RHF) =  -669.534385544     A.U. after   15 cycles
 E2 =    -0.2092281954D+01 EUMP2 =    -0.67162666749779D+03

 The electronic state is 1-A.
 Alpha  occ. eigenvalues --  -20.60752 -20.60746 -15.85803 -11.31169 -11.27724
 Alpha  occ. eigenvalues --  -11.27697 -11.27456 -11.26760 -11.26659 -11.22303
 Alpha  occ. eigenvalues --  -11.22118 -11.21998 -11.21988 -11.21816 -11.21372
 Alpha  occ. eigenvalues --   -1.59827  -1.39380  -1.19332  -1.08989  -1.08730
 Alpha  occ. eigenvalues --   -1.04735  -1.04121  -0.96614  -0.95567  -0.87658
 Alpha  occ. eigenvalues --   -0.86115  -0.82397  -0.80203  -0.78767  -0.77441
 Alpha  occ. eigenvalues --   -0.72022  -0.71149  -0.70457  -0.65637  -0.64982
 Alpha  occ. eigenvalues --   -0.64759  -0.62157  -0.61459  -0.59980  -0.58198
 Alpha  occ. eigenvalues --   -0.55906  -0.55245  -0.53453  -0.53093  -0.52984
 Alpha  occ. eigenvalues --   -0.52661  -0.50509  -0.48779  -0.48775  -0.48509
 Alpha  occ. eigenvalues --   -0.47197  -0.46319  -0.46217  -0.44786  -0.44368
 Alpha  occ. eigenvalues --   -0.37295  -0.36312
 Alpha virt. eigenvalues --    0.05055   0.11257   0.16487   0.20546   0.22551
 Alpha virt. eigenvalues --    0.24042   0.25527   0.26176   0.26569   0.27556
 Alpha virt. eigenvalues --    0.28982   0.29525   0.31224   0.31633   0.32397

 Mulliken charges:
               1
     1  C   -0.174530
     2  C   -0.215734
     3  C   -0.173929
     4  C    0.158807
     5  C   -0.171590
     6  C   -0.218752
     7  H    0.225473
     8  H    0.229556
     9  H    0.275209
    10  H    0.275366
    11  H    0.223164
    12  N    0.488061
    13  O   -0.460550
    14  O   -0.460415
    15  C   -0.298696
    16  C   -0.299798
    17  C   -0.478792
    18  H    0.150164
    19  H    0.147369
    20  H    0.155282
    21  H    0.156665
    22  H    0.149041
    23  H    0.158175
    24  H    0.155976
    25  C   -0.299110
    26  C   -0.299890
    27  C   -0.476081
    28  H    0.151057
    29  H    0.151747
    30  H    0.152072
    31  H    0.151222
    32  H    0.156320
    33  H    0.156086
    34  H    0.161056
 Sum of Mulliken charges =  -0.00000

 Dipole moment (field-independent basis, Debye):
    X=             -3.5382    Y=              2.7977    Z=              2.7123  Tot=              5.2633
 Quadrupole moment (field-independent basis, Debye-Ang):
   XX=           -117.2146   YY=            -95.3540   ZZ=            -91.1696
   XY=              8.7416   XZ=              9.9843   YZ=             -3.5321

 Normal termination of Gaussian 16 at Wed May  5 22:16:08 2021.
