 Gaussian 16, Revision A.03,
 Gaussian 16:  EM64L-G16RevA.03 25-Dec-2016

 -------------
 #p 6-31g* mp2
 -------------

 ------------------------------------------------------
 Input file generated by CHIRIPA (05-May-2021 14:51:13)
 ------------------------------------------------------
 Symbolic Z-matrix:
 Charge =  0 Multiplicity = 1

                         Standard orientation:
 ---------------------------------------------------------------------
 Center     Atomic      Atomic             Coordinates (Angstroms)
 Number     Number       Type             X           Y           Z
 ---------------------------------------------------------------------
      1          6           0        3.035043    0.498695   -0.997441
      2          6           0        1.941916    1.479082   -0.570945
      3          6           0        1.409424    2.314102   -1.735844
      4          1           0        3.861255    1.057999   -1.457329
      5          1           0        2.637228   -0.167406   -1.775547
      6          1           0        2.341255    2.142237    0.207110
      7          1           0        1.118294    0.917396   -0.111846
      8          1           0        0.985401    1.667664   -2.511036
      9          1           0        2.215310    2.899464   -2.190267
     10          1           0        0.628985    3.008116   -1.408554
     11          6           0        3.577416   -0.343241    0.156120
     12          6           0        4.670543   -1.323628   -0.270376
     13          6           0        5.203034   -2.158648    0.894522
     14          1           0        3.975231    0.322859    0.934226
     15          1           0        2.751204   -0.902545    0.616008
     16          1           0        5.494165   -0.761942   -0.729476
     17          1           0        4.271204   -1.986783   -1.048432
     18          1           0        4.397149   -2.744010    1.348946
     19          1           0        5.627058   -1.512210    1.669714
     20          1           0        5.983474   -2.852662    0.567233
     21          6           0       -4.029968   -0.307686    0.338486
     22          6           0       -4.267117   -1.120407   -0.934790
     23          6           0       -5.719738   -1.573290   -1.085066
     24          1           0       -4.319587   -0.910631    1.209993
     25          1           0       -4.690141    0.570684    0.332771
     26          1           0       -3.605704   -1.996246   -0.927328
     27          1           0       -3.976719   -0.515528   -1.803355
     28          1           0       -6.391197   -0.709203   -1.118179
     29          1           0       -6.018073   -2.198333   -0.237176
     30          1           0       -5.866850   -2.152587   -2.001927
     31          6           0       -2.582490    0.152233    0.502835
     32          6           0       -2.345342    0.964954    1.776111
     33          6           0       -0.892721    1.417836    1.926388
     34          1           0       -1.922319   -0.726138    0.508551
     35          1           0       -2.292872    0.755177   -0.368672
     36          1           0       -2.635740    0.360074    2.644676
     37          1           0       -3.006755    1.840792    1.768649
     38          1           0       -0.594386    2.042879    1.078497
     39          1           0       -0.221262    0.553748    1.959502
     40          1           0       -0.745609    1.997133    2.843249
 ---------------------------------------------------------------------

 SCF Done:  E(RHF) =  -470.732205377     A.U. after   11 cycles
 E2 =    -0.1583555730D+01 EUMP2 =    -0.47231576110773D+03

 The electronic state is 1-A.
 Alpha  occ. eigenvalues --  -11.21625 -11.21607 -11.21573 -11.21438 -11.21411
 Alpha  occ. eigenvalues --  -11.21378 -11.21350 -11.21274 -11.21089 -11.21053
 Alpha  occ. eigenvalues --  -11.21044 -11.21025  -1.08462  -1.08364  -1.03579
 Alpha  occ. eigenvalues --   -1.03448  -0.96021  -0.95919  -0.87039  -0.86936
 Alpha  occ. eigenvalues --   -0.79755  -0.79426  -0.78328  -0.78108  -0.65087
 Alpha  occ. eigenvalues --   -0.65006  -0.60966  -0.60884  -0.59440  -0.59265
 Alpha  occ. eigenvalues --   -0.57758  -0.57410  -0.55283  -0.55217  -0.52687
 Alpha  occ. eigenvalues --   -0.52661  -0.52445  -0.52345  -0.49934  -0.49876
 Alpha  occ. eigenvalues --   -0.48228  -0.47643  -0.46642  -0.46537  -0.45968
 Alpha  occ. eigenvalues --   -0.45738  -0.45672  -0.45340  -0.43802  -0.43727
 Alpha virt. eigenvalues --    0.21418   0.23128   0.23440   0.24556   0.25714
 Alpha virt. eigenvalues --    0.26524   0.26874   0.27590   0.27834   0.29436
 Alpha virt. eigenvalues --    0.30290   0.31495   0.31620   0.31716   0.32497

 Mulliken charges:
               1
     1  C   -0.297907
     2  C   -0.305464
     3  C   -0.477407
     4  H    0.148866
     5  H    0.148940
     6  H    0.151314
     7  H    0.161556
     8  H    0.155061
     9  H    0.155289
    10  H    0.159083
    11  C   -0.298157
    12  C   -0.299559
    13  C   -0.475639
    14  H    0.149650
    15  H    0.148688
    16  H    0.152010
    17  H    0.151793
    18  H    0.154895
    19  H    0.155194
    20  H    0.160152
    21  C   -0.298106
    22  C   -0.299698
    23  C   -0.475731
    24  H    0.149776
    25  H    0.149746
    26  H    0.151730
    27  H    0.152069
    28  H    0.155282
    29  H    0.155208
    30  H    0.160306
    31  C   -0.299307
    32  C   -0.299774
    33  C   -0.480030
    34  H    0.148687
    35  H    0.150270
    36  H    0.151757
    37  H    0.151810
    38  H    0.161738
    39  H    0.155740
    40  H    0.160168
 Sum of Mulliken charges =  -0.00000

 Dipole moment (field-independent basis, Debye):
    X=             -0.0311    Y=              0.0091    Z=              0.0253  Tot=              0.0412
 Quadrupole moment (field-independent basis, Debye-Ang):
   XX=            -85.5989   YY=            -84.1916   ZZ=            -85.1649
   XY=              0.2511   XZ=             -0.3026   YZ=              0.1442

 Normal termination of Gaussian 16 at Wed May  5 23:13:14 2021.
