 Gaussian 16, Revision A.03,
 Gaussian 16:  EM64L-G16RevA.03 25-Dec-2016

 -------------
 #p 6-31g* mp2
 -------------

 ------------------------------------------------------
 Input file generated by CHIRIPA (05-May-2021 14:57:27)
 ------------------------------------------------------
 Symbolic Z-matrix:
 Charge =  0 Multiplicity = 1

                         Standard orientation:
 ---------------------------------------------------------------------
 Center     Atomic      Atomic             Coordinates (Angstroms)
 Number     Number       Type             X           Y           Z
 ---------------------------------------------------------------------
      1          6           0       -0.665861   -0.804829   -1.063315
      2          6           0       -1.308481    0.300954   -1.629712
      3          6           0       -2.613913    0.632439   -1.254860
      4          6           0       -3.249862   -0.167260   -0.306524
      5          6           0       -2.636302   -1.275258    0.275861
      6          6           0       -1.330651   -1.588025   -0.114010
      7          1           0        0.348315   -1.055064   -1.360343
      8          1           0       -0.794639    0.910987   -2.367187
      9          1           0       -3.134965    1.482957   -1.677400
     10          1           0       -3.174251   -1.864482    1.008558
     11          1           0       -0.834053   -2.447372    0.327532
     12          7           0       -4.631981    0.173761    0.098265
     13          8           0       -5.170534   -0.546720    0.935824
     14          8           0       -5.150561    1.155076   -0.429684
     15          6           0        1.021280    1.014523    1.691183
     16          6           0        1.758336    1.923189    0.924635
     17          6           0        2.868748    1.496054    0.190408
     18          6           0        3.215502    0.146988    0.245824
     19          6           0        2.501227   -0.782577    1.000152
     20          6           0        1.394420   -0.333084    1.726433
     21          1           0        0.160087    1.355015    2.258463
     22          1           0        1.470864    2.970352    0.895382
     23          1           0        3.457062    2.178126   -0.411324
     24          1           0        2.812171   -1.820191    1.009533
     25          1           0        0.823870   -1.041008    2.320876
     26          7           0        4.389137   -0.317036   -0.527263
     27          8           0        4.674046   -1.510842   -0.461744
     28          8           0        5.001899    0.521854   -1.184091
 ---------------------------------------------------------------------

 SCF Done:  E(RHF) =  -868.336317110     A.U. after   16 cycles
 E2 =    -0.2603605833D+01 EUMP2 =    -0.87093992294270D+03

 The electronic state is 1-A.
 Alpha  occ. eigenvalues --  -20.61586 -20.61577 -20.61233 -20.61228 -15.86641
 Alpha  occ. eigenvalues --  -15.86292 -11.32072 -11.31653 -11.28601 -11.28575
 Alpha  occ. eigenvalues --  -11.28275 -11.28244 -11.28206 -11.27886 -11.27578
 Alpha  occ. eigenvalues --  -11.27549 -11.27238 -11.27157  -1.60666  -1.60314
 Alpha  occ. eigenvalues --   -1.40215  -1.39867  -1.20224  -1.19836  -1.09576
 Alpha  occ. eigenvalues --   -1.09197  -1.05627  -1.05248  -0.96396  -0.96043
 Alpha  occ. eigenvalues --   -0.87003  -0.86621  -0.83231  -0.82887  -0.78307
 Alpha  occ. eigenvalues --   -0.77946  -0.72841  -0.72503  -0.72014  -0.71649
 Alpha  occ. eigenvalues --   -0.71229  -0.70898  -0.65833  -0.65626  -0.65475
 Alpha  occ. eigenvalues --   -0.65219  -0.62969  -0.62583  -0.56009  -0.55758
 Alpha  occ. eigenvalues --   -0.54374  -0.53691  -0.53316  -0.53105  -0.49610
 Alpha  occ. eigenvalues --   -0.49602  -0.49263  -0.49260  -0.45606  -0.45275
 Alpha  occ. eigenvalues --   -0.38683  -0.37704  -0.37138  -0.36421
 Alpha virt. eigenvalues --    0.04202   0.04602   0.09790   0.11373   0.15710
 Alpha virt. eigenvalues --    0.16074   0.19991   0.21447   0.25480   0.27529
 Alpha virt. eigenvalues --    0.27615   0.28025   0.29631   0.31310   0.31831

 Mulliken charges:
               1
     1  C   -0.161051
     2  C   -0.221297
     3  C   -0.172357
     4  C    0.156161
     5  C   -0.175095
     6  C   -0.222945
     7  H    0.231165
     8  H    0.225279
     9  H    0.276040
    10  H    0.274850
    11  H    0.219039
    12  N    0.487977
    13  O   -0.460698
    14  O   -0.459860
    15  C   -0.165199
    16  C   -0.219229
    17  C   -0.174275
    18  C    0.156365
    19  C   -0.183408
    20  C   -0.213804
    21  H    0.231516
    22  H    0.226926
    23  H    0.277235
    24  H    0.274654
    25  H    0.222775
    26  N    0.487425
    27  O   -0.460111
    28  O   -0.458079
 Sum of Mulliken charges =  -0.00000

 Dipole moment (field-independent basis, Debye):
    X=              0.8090    Y=              0.6029    Z=              1.3131  Tot=              1.6559
 Quadrupole moment (field-independent basis, Debye-Ang):
   XX=           -164.8933   YY=            -96.8635   ZZ=           -100.9911
   XY=              8.7374   XZ=             10.6803   YZ=             -2.9949

 Normal termination of Gaussian 16 at Wed May  5 22:52:57 2021.
