 Gaussian 16, Revision A.03,
 Gaussian 16:  EM64L-G16RevA.03 25-Dec-2016

 -------------
 #p 6-31g* mp2
 -------------

 ------------------------------------------------------
 Input file generated by CHIRIPA (05-May-2021 14:55:21)
 ------------------------------------------------------
 Symbolic Z-matrix:
 Charge =  0 Multiplicity = 1

                         Standard orientation:
 ---------------------------------------------------------------------
 Center     Atomic      Atomic             Coordinates (Angstroms)
 Number     Number       Type             X           Y           Z
 ---------------------------------------------------------------------
      1          6           0        4.963680    0.961258    0.569242
      2          6           0        3.696161    1.502254    0.808491
      3          6           0        2.543482    0.773328    0.501006
      4          6           0        2.695841   -0.499330   -0.047099
      5          6           0        3.944827   -1.065711   -0.297168
      6          6           0        5.083756   -0.318741    0.018148
      7          1           0        5.853769    1.534514    0.811145
      8          1           0        3.599882    2.496074    1.236388
      9          1           0        1.549969    1.167995    0.675900
     10          1           0        4.008911   -2.058971   -0.724657
     11          1           0        6.066845   -0.741417   -0.168737
     12          7           0        1.482829   -1.280562   -0.376764
     13          8           0        1.643982   -2.399605   -0.858852
     14          8           0        0.393886   -0.759056   -0.146826
     15          6           0       -3.196638    0.880430   -0.407360
     16          6           0       -3.156113    2.357075   -0.012565
     17          6           0       -2.131132    3.156357   -0.817771
     18          1           0       -2.198291    0.443086   -0.269604
     19          1           0       -3.427704    0.800703   -1.478642
     20          1           0       -2.926557    2.433952    1.057954
     21          1           0       -4.154719    2.790909   -0.151094
     22          1           0       -2.360091    3.109409   -1.887339
     23          1           0       -1.124950    2.750424   -0.671420
     24          1           0       -2.118890    4.209282   -0.519343
     25          6           0       -4.216507    0.068236    0.388841
     26          6           0       -4.257032   -1.408409   -0.005955
     27          6           0       -5.282013   -2.207689    0.799252
     28          1           0       -3.985441    0.147965    1.460123
     29          1           0       -5.214854    0.505582    0.251085
     30          1           0       -3.258426   -1.842242    0.132576
     31          1           0       -4.486588   -1.485284   -1.076473
     32          1           0       -6.288194   -1.801756    0.652900
     33          1           0       -5.053054   -2.160742    1.868819
     34          1           0       -5.294254   -3.260613    0.500823
 ---------------------------------------------------------------------

 SCF Done:  E(RHF) =  -669.536275540     A.U. after   15 cycles
 E2 =    -0.2091215071D+01 EUMP2 =    -0.67162749061103D+03

 The electronic state is 1-A.
 Alpha  occ. eigenvalues --  -20.60986 -20.60977 -15.86028 -11.31322 -11.27887
 Alpha  occ. eigenvalues --  -11.27878 -11.27613 -11.26885 -11.26875 -11.20911
 Alpha  occ. eigenvalues --  -11.20624 -11.20478 -11.20387 -11.20186 -11.20183
 Alpha  occ. eigenvalues --   -1.60046  -1.39604  -1.19488  -1.08895  -1.07461
 Alpha  occ. eigenvalues --   -1.04881  -1.02693  -0.95743  -0.95153  -0.86283
 Alpha  occ. eigenvalues --   -0.86183  -0.82581  -0.78741  -0.77646  -0.77213
 Alpha  occ. eigenvalues --   -0.72254  -0.71359  -0.70598  -0.65148  -0.64884
 Alpha  occ. eigenvalues --   -0.64079  -0.62231  -0.60099  -0.58533  -0.56749
 Alpha  occ. eigenvalues --   -0.55386  -0.54447  -0.53213  -0.52973  -0.51904
 Alpha  occ. eigenvalues --   -0.51585  -0.49136  -0.49009  -0.48979  -0.47065
 Alpha  occ. eigenvalues --   -0.45753  -0.45040  -0.44798  -0.44596  -0.42897
 Alpha  occ. eigenvalues --   -0.37464  -0.36481
 Alpha virt. eigenvalues --    0.04892   0.11169   0.16398   0.20786   0.23408
 Alpha virt. eigenvalues --    0.24643   0.26482   0.27452   0.27927   0.28842
 Alpha virt. eigenvalues --    0.29136   0.30604   0.31539   0.32329   0.32711

 Mulliken charges:
               1
     1  C   -0.170504
     2  C   -0.218612
     3  C   -0.171460
     4  C    0.157424
     5  C   -0.170479
     6  C   -0.218579
     7  H    0.226155
     8  H    0.224230
     9  H    0.276173
    10  H    0.275917
    11  H    0.223929
    12  N    0.497016
    13  O   -0.458532
    14  O   -0.469779
    15  C   -0.311460
    16  C   -0.298124
    17  C   -0.474639
    18  H    0.178921
    19  H    0.146433
    20  H    0.147827
    21  H    0.148941
    22  H    0.155947
    23  H    0.152053
    24  H    0.154968
    25  C   -0.296613
    26  C   -0.302380
    27  C   -0.475216
    28  H    0.146494
    29  H    0.144255
    30  H    0.166061
    31  H    0.149979
    32  H    0.151369
    33  H    0.153072
    34  H    0.159214
 Sum of Mulliken charges =  -0.00000

 Dipole moment (field-independent basis, Debye):
    X=              4.5757    Y=              2.5805    Z=              1.1216  Tot=              5.3716
 Quadrupole moment (field-independent basis, Debye-Ang):
   XX=            -71.4837   YY=            -96.0046   ZZ=            -94.9980
   XY=              2.5936   XZ=              2.9650   YZ=              1.0716

 Normal termination of Gaussian 16 at Thu May  6 12:30:09 2021.
