 Gaussian 16, Revision A.03,
 Gaussian 16:  EM64L-G16RevA.03 25-Dec-2016

 -------------
 #p 6-31g* mp2
 -------------

 ------------------------------------------------------
 Input file generated by CHIRIPA (05-May-2021 14:51:14)
 ------------------------------------------------------
 Symbolic Z-matrix:
 Charge =  0 Multiplicity = 1

                         Standard orientation:
 ---------------------------------------------------------------------
 Center     Atomic      Atomic             Coordinates (Angstroms)
 Number     Number       Type             X           Y           Z
 ---------------------------------------------------------------------
      1          6           0       -3.722482   -0.685775    0.246328
      2          6           0       -4.898344   -0.710697   -0.730765
      3          6           0       -5.572615   -2.080718   -0.809473
      4          1           0       -2.985531   -1.441825   -0.057378
      5          1           0       -4.077616   -0.978556    1.244103
      6          1           0       -4.541369   -0.416617   -1.726105
      7          1           0       -5.632492    0.045631   -0.424807
      8          1           0       -5.955840   -2.378425    0.171909
      9          1           0       -4.858517   -2.843301   -1.136783
     10          1           0       -6.410439   -2.075964   -1.513667
     11          6           0       -3.038133    0.677070    0.336035
     12          6           0       -1.862271    0.701992    1.313128
     13          6           0       -1.187999    2.072013    1.391836
     14          1           0       -2.682998    0.969851   -0.661740
     15          1           0       -3.775084    1.433120    0.639742
     16          1           0       -1.128123   -0.054336    1.007171
     17          1           0       -2.219246    0.407913    2.308469
     18          1           0       -1.902098    2.834596    1.719146
     19          1           0       -0.804775    2.369721    0.410454
     20          1           0       -0.350176    2.067260    2.096030
     21          6           0        3.310585    0.657701   -0.680676
     22          6           0        1.983800    1.374916   -0.429221
     23          6           0        1.859194    2.680342   -1.215435
     24          1           0        4.138901    1.328389   -0.414187
     25          1           0        3.409493    0.450511   -1.755238
     26          1           0        1.886793    1.579458    0.644729
     27          1           0        1.158544    0.702374   -0.696158
     28          1           0        1.930100    2.490363   -2.291298
     29          1           0        2.662487    3.372430   -0.942792
     30          1           0        0.903271    3.176523   -1.020820
     31          6           0        3.450030   -0.648997    0.098312
     32          6           0        4.776815   -1.366212   -0.153142
     33          6           0        4.901421   -2.671637    0.633072
     34          1           0        3.351121   -0.441807    1.172875
     35          1           0        2.621714   -1.319685   -0.168176
     36          1           0        5.602071   -0.693670    0.113795
     37          1           0        4.873822   -1.570754   -1.227092
     38          1           0        4.098127   -3.363726    0.360429
     39          1           0        4.830515   -2.481658    1.708935
     40          1           0        5.857343   -3.167819    0.438457
 ---------------------------------------------------------------------

 SCF Done:  E(RHF) =  -470.732460630     A.U. after   11 cycles
 E2 =    -0.1583694089D+01 EUMP2 =    -0.47231615471832D+03

 The electronic state is 1-A.
 Alpha  occ. eigenvalues --  -11.21612 -11.21599 -11.21575 -11.21556 -11.21412
 Alpha  occ. eigenvalues --  -11.21394 -11.21350 -11.21334 -11.21080 -11.21072
 Alpha  occ. eigenvalues --  -11.21071 -11.20976  -1.08455  -1.08397  -1.03598
 Alpha  occ. eigenvalues --   -1.03449  -0.96056  -0.95894  -0.87018  -0.86966
 Alpha  occ. eigenvalues --   -0.79628  -0.79547  -0.78253  -0.78226  -0.65089
 Alpha  occ. eigenvalues --   -0.65034  -0.61013  -0.60929  -0.59396  -0.59278
 Alpha  occ. eigenvalues --   -0.57703  -0.57528  -0.55274  -0.55167  -0.52753
 Alpha  occ. eigenvalues --   -0.52635  -0.52521  -0.52235  -0.49935  -0.49838
 Alpha  occ. eigenvalues --   -0.47965  -0.47834  -0.46681  -0.46530  -0.45841
 Alpha  occ. eigenvalues --   -0.45732  -0.45716  -0.45644  -0.43798  -0.43744
 Alpha virt. eigenvalues --    0.21022   0.23140   0.23485   0.24961   0.25751
 Alpha virt. eigenvalues --    0.26414   0.26588   0.27520   0.28288   0.29207
 Alpha virt. eigenvalues --    0.29906   0.30799   0.31327   0.32038   0.32533

 Mulliken charges:
               1
     1  C   -0.298180
     2  C   -0.299640
     3  C   -0.475682
     4  H    0.149325
     5  H    0.149607
     6  H    0.151827
     7  H    0.151985
     8  H    0.155216
     9  H    0.155074
    10  H    0.160237
    11  C   -0.298619
    12  C   -0.301148
    13  C   -0.479809
    14  H    0.149173
    15  H    0.149689
    16  H    0.153462
    17  H    0.151630
    18  H    0.154031
    19  H    0.161762
    20  H    0.159900
    21  C   -0.298333
    22  C   -0.301863
    23  C   -0.480133
    24  H    0.149667
    25  H    0.149197
    26  H    0.155947
    27  H    0.152137
    28  H    0.154982
    29  H    0.155685
    30  H    0.163188
    31  C   -0.298130
    32  C   -0.299629
    33  C   -0.475703
    34  H    0.149457
    35  H    0.149099
    36  H    0.152025
    37  H    0.151924
    38  H    0.155117
    39  H    0.155226
    40  H    0.160297
 Sum of Mulliken charges =  -0.00000

 Dipole moment (field-independent basis, Debye):
    X=              0.0201    Y=              0.0128    Z=              0.0068  Tot=              0.0248
 Quadrupole moment (field-independent basis, Debye-Ang):
   XX=            -84.6829   YY=            -86.2545   ZZ=            -83.9247
   XY=             -0.2189   XZ=             -0.3102   YZ=              0.9379

 Normal termination of Gaussian 16 at Wed May  5 23:16:25 2021.
