 Gaussian 16, Revision A.03,
 Gaussian 16:  EM64L-G16RevA.03 25-Dec-2016

 -------------
 #p 6-31g* mp2
 -------------

 ------------------------------------------------------
 Input file generated by CHIRIPA (05-May-2021 14:57:21)
 ------------------------------------------------------
 Symbolic Z-matrix:
 Charge =  0 Multiplicity = 1

                         Standard orientation:
 ---------------------------------------------------------------------
 Center     Atomic      Atomic             Coordinates (Angstroms)
 Number     Number       Type             X           Y           Z
 ---------------------------------------------------------------------
      1          6           0        1.978254   -0.530551    1.897651
      2          6           0        2.107117    0.733119    1.311943
      3          6           0        3.074021    0.964897    0.329129
      4          6           0        3.899007   -0.094423   -0.045745
      5          6           0        3.795201   -1.364635    0.519123
      6          6           0        2.821221   -1.573556    1.500073
      7          1           0        1.224391   -0.701724    2.660401
      8          1           0        1.453835    1.544993    1.618743
      9          1           0        3.195475    1.933317   -0.140796
     10          1           0        4.460929   -2.154317    0.192586
     11          1           0        2.723417   -2.555973    1.953213
     12          7           0        4.926370    0.138851   -1.085220
     13          8           0        5.640938   -0.810988   -1.398005
     14          8           0        4.997597    1.267114   -1.567492
     15          6           0       -5.265358   -1.770590   -0.745633
     16          6           0       -3.944298   -2.031762   -0.367331
     17          6           0       -3.084536   -0.984904   -0.021720
     18          6           0       -3.581222    0.316889   -0.065628
     19          6           0       -4.892282    0.609269   -0.438357
     20          6           0       -5.734306   -0.453231   -0.779879
     21          1           0       -5.926352   -2.589890   -1.012524
     22          1           0       -3.577382   -3.053849   -0.339829
     23          1           0       -2.057278   -1.158711    0.274841
     24          1           0       -5.229330    1.638588   -0.456231
     25          1           0       -6.759782   -0.247426   -1.073286
     26          7           0       -2.680419    1.433430    0.298090
     27          8           0       -3.142240    2.571487    0.251353
     28          8           0       -1.529607    1.149375    0.623022
 ---------------------------------------------------------------------

 SCF Done:  E(RHF) =  -868.339536843     A.U. after   16 cycles
 E2 =    -0.2598749117D+01 EUMP2 =    -0.87093828595921D+03

 The electronic state is 1-A.
 Alpha  occ. eigenvalues --  -20.61567 -20.61525 -20.60217 -20.60201 -15.86588
 Alpha  occ. eigenvalues --  -15.85255 -11.31765 -11.30485 -11.28330 -11.28292
 Alpha  occ. eigenvalues --  -11.28009 -11.27290 -11.27263 -11.27070 -11.26907
 Alpha  occ. eigenvalues --  -11.26692 -11.26113 -11.25793  -1.60614  -1.59289
 Alpha  occ. eigenvalues --   -1.40175  -1.38846  -1.19918  -1.18617  -1.09346
 Alpha  occ. eigenvalues --   -1.08037  -1.05294  -1.03977  -0.96215  -0.94903
 Alpha  occ. eigenvalues --   -0.86700  -0.85377  -0.83056  -0.81726  -0.78126
 Alpha  occ. eigenvalues --   -0.76795  -0.72829  -0.71919  -0.71477  -0.71022
 Alpha  occ. eigenvalues --   -0.70610  -0.69727  -0.65577  -0.65294  -0.64258
 Alpha  occ. eigenvalues --   -0.63938  -0.62646  -0.61308  -0.55795  -0.54489
 Alpha  occ. eigenvalues --   -0.53630  -0.53384  -0.52339  -0.52040  -0.49584
 Alpha  occ. eigenvalues --   -0.49546  -0.48241  -0.48219  -0.45621  -0.44282
 Alpha  occ. eigenvalues --   -0.37882  -0.36889  -0.36601  -0.35564
 Alpha virt. eigenvalues --    0.04401   0.05695   0.10769   0.12070   0.15934
 Alpha virt. eigenvalues --    0.17231   0.20885   0.22249   0.26798   0.27642
 Alpha virt. eigenvalues --    0.28297   0.29028   0.30556   0.31680   0.32231

 Mulliken charges:
               1
     1  C   -0.174177
     2  C   -0.211916
     3  C   -0.173680
     4  C    0.158040
     5  C   -0.173732
     6  C   -0.220385
     7  H    0.224503
     8  H    0.240733
     9  H    0.276092
    10  H    0.271907
    11  H    0.217939
    12  N    0.488025
    13  O   -0.463658
    14  O   -0.460546
    15  C   -0.169979
    16  C   -0.218273
    17  C   -0.170865
    18  C    0.158178
    19  C   -0.170285
    20  C   -0.218413
    21  H    0.227580
    22  H    0.224276
    23  H    0.273155
    24  H    0.276720
    25  H    0.225434
    26  N    0.491120
    27  O   -0.456976
    28  O   -0.470816
 Sum of Mulliken charges =  -0.00000

 Dipole moment (field-independent basis, Debye):
    X=             -7.2244    Y=             -4.5658    Z=              2.3788  Tot=              8.8712
 Quadrupole moment (field-independent basis, Debye-Ang):
   XX=           -108.2605   YY=           -100.8191   ZZ=           -106.4451
   XY=              6.6361   XZ=             20.5309   YZ=             -1.2431

 Normal termination of Gaussian 16 at Thu May  6 04:52:30 2021.
