 Gaussian 16, Revision A.03,
 Gaussian 16:  EM64L-G16RevA.03 25-Dec-2016

 -------------
 #p 6-31g* mp2
 -------------

 ------------------------------------------------------
 Input file generated by CHIRIPA (05-May-2021 14:57:22)
 ------------------------------------------------------
 Symbolic Z-matrix:
 Charge =  0 Multiplicity = 1

                         Standard orientation:
 ---------------------------------------------------------------------
 Center     Atomic      Atomic             Coordinates (Angstroms)
 Number     Number       Type             X           Y           Z
 ---------------------------------------------------------------------
      1          6           0       -4.361387    2.406448    0.408326
      2          6           0       -3.549241    1.754047    1.341768
      3          6           0       -3.191703    0.414941    1.158708
      4          6           0       -3.666206   -0.244342    0.025799
      5          6           0       -4.476869    0.378181   -0.922136
      6          6           0       -4.821797    1.717647   -0.718659
      7          1           0       -4.634233    3.446837    0.558462
      8          1           0       -3.190220    2.286482    2.217931
      9          1           0       -2.564291   -0.114374    1.865531
     10          1           0       -4.819374   -0.178877   -1.785730
     11          1           0       -5.452659    2.221769   -1.445240
     12          7           0       -3.294372   -1.662184   -0.178805
     13          8           0       -3.725398   -2.220809   -1.185180
     14          8           0       -2.578942   -2.188016    0.671076
     15          6           0        1.278350   -0.592100    0.006180
     16          6           0        2.110678   -0.926933    1.079325
     17          6           0        3.469224   -0.597925    1.053735
     18          6           0        3.964263    0.068938   -0.065873
     19          6           0        3.160512    0.416151   -1.150639
     20          6           0        1.804995    0.077192   -1.103420
     21          1           0        0.224176   -0.851546    0.034460
     22          1           0        1.704423   -1.446716    1.942358
     23          1           0        4.136101   -0.845130    1.870793
     24          1           0        3.594403    0.934269   -1.997226
     25          1           0        1.160959    0.338487   -1.938278
     26          7           0        5.400891    0.422510   -0.104411
     27          8           0        5.812608    1.010040   -1.102377
     28          8           0        6.088000    0.105416    0.864076
 ---------------------------------------------------------------------

 SCF Done:  E(RHF) =  -868.339399006     A.U. after   16 cycles
 E2 =    -0.2598954612D+01 EUMP2 =    -0.87093835361710D+03

 The electronic state is 1-A.
 Alpha  occ. eigenvalues --  -20.61969 -20.61918 -20.60529 -20.60524 -15.86956
 Alpha  occ. eigenvalues --  -15.85581 -11.32143 -11.30863 -11.28701 -11.28644
 Alpha  occ. eigenvalues --  -11.28332 -11.27628 -11.27605 -11.27443 -11.27423
 Alpha  occ. eigenvalues --  -11.27045 -11.26407 -11.26363  -1.61002  -1.59607
 Alpha  occ. eigenvalues --   -1.40562  -1.39163  -1.20284  -1.19022  -1.09704
 Alpha  occ. eigenvalues --   -1.08411  -1.05648  -1.04419  -0.96570  -0.95262
 Alpha  occ. eigenvalues --   -0.87053  -0.85807  -0.83402  -0.82104  -0.78488
 Alpha  occ. eigenvalues --   -0.77183  -0.73167  -0.72331  -0.71799  -0.71365
 Alpha  occ. eigenvalues --   -0.70931  -0.70059  -0.65926  -0.65629  -0.64664
 Alpha  occ. eigenvalues --   -0.64410  -0.62996  -0.61773  -0.56126  -0.54840
 Alpha  occ. eigenvalues --   -0.53995  -0.53723  -0.52750  -0.52501  -0.49949
 Alpha  occ. eigenvalues --   -0.49906  -0.48560  -0.48550  -0.45979  -0.44588
 Alpha  occ. eigenvalues --   -0.38243  -0.37250  -0.36965  -0.36038
 Alpha virt. eigenvalues --    0.04002   0.05357   0.10361   0.11625   0.15521
 Alpha virt. eigenvalues --    0.16878   0.20497   0.21795   0.26373   0.27144
 Alpha virt. eigenvalues --    0.27726   0.28436   0.30396   0.31090   0.32296

 Mulliken charges:
               1
     1  C   -0.170083
     2  C   -0.217528
     3  C   -0.174561
     4  C    0.155969
     5  C   -0.171302
     6  C   -0.218281
     7  H    0.229301
     8  H    0.226716
     9  H    0.272904
    10  H    0.277319
    11  H    0.226703
    12  N    0.486966
    13  O   -0.453872
    14  O   -0.465575
    15  C   -0.175141
    16  C   -0.220741
    17  C   -0.171593
    18  C    0.157726
    19  C   -0.171437
    20  C   -0.219265
    21  H    0.234228
    22  H    0.225760
    23  H    0.274456
    24  H    0.273978
    25  H    0.222191
    26  N    0.488174
    27  O   -0.461709
    28  O   -0.461302
 Sum of Mulliken charges =  -0.00000

 Dipole moment (field-independent basis, Debye):
    X=             -6.7702    Y=              3.8153    Z=              0.8345  Tot=              7.8159
 Quadrupole moment (field-independent basis, Debye-Ang):
   XX=           -134.6334   YY=           -107.5028   ZZ=            -97.3854
   XY=            -24.3203   XZ=              1.6867   YZ=             -1.8908

 Normal termination of Gaussian 16 at Thu May  6 17:53:12 2021.
