 Gaussian 16, Revision A.03,
 Gaussian 16:  EM64L-G16RevA.03 25-Dec-2016

 -------------
 #p 6-31g* mp2
 -------------

 ------------------------------------------------------
 Input file generated by CHIRIPA (05-May-2021 14:57:27)
 ------------------------------------------------------
 Symbolic Z-matrix:
 Charge =  0 Multiplicity = 1

                         Standard orientation:
 ---------------------------------------------------------------------
 Center     Atomic      Atomic             Coordinates (Angstroms)
 Number     Number       Type             X           Y           Z
 ---------------------------------------------------------------------
      1          6           0        5.016228   -1.306950   -0.674238
      2          6           0        4.309585   -1.604866    0.495559
      3          6           0        3.346468   -0.719322    0.988269
      4          6           0        3.114395    0.460382    0.282768
      5          6           0        3.801964    0.785481   -0.885499
      6          6           0        4.760612   -0.114829   -1.359824
      7          1           0        5.762664   -2.000597   -1.049846
      8          1           0        4.506009   -2.529940    1.030069
      9          1           0        2.784872   -0.925007    1.891442
     10          1           0        3.584132    1.715472   -1.396462
     11          1           0        5.307876    0.119153   -2.268560
     12          7           0        2.097151    1.405683    0.794647
     13          8           0        1.911291    2.438391    0.154641
     14          8           0        1.504957    1.096004    1.826171
     15          6           0       -0.888776   -1.077122   -0.401769
     16          6           0       -1.860948   -1.939066    0.116358
     17          6           0       -3.190078   -1.521680    0.233614
     18          6           0       -3.513422   -0.229898   -0.178744
     19          6           0       -2.567601    0.652203   -0.698948
     20          6           0       -1.244579    0.213487   -0.807053
     21          1           0        0.141351   -1.409642   -0.489301
     22          1           0       -1.587508   -2.941916    0.431899
     23          1           0       -3.962800   -2.168387    0.631218
     24          1           0       -2.870539    1.646129   -1.005149
     25          1           0       -0.491685    0.885042   -1.209805
     26          7           0       -4.917279    0.223260   -0.059454
     27          8           0       -5.176514    1.366190   -0.429787
     28          8           0       -5.731806   -0.573063    0.402121
 ---------------------------------------------------------------------

 SCF Done:  E(RHF) =  -868.338345364     A.U. after   16 cycles
 E2 =    -0.2600618729D+01 EUMP2 =    -0.87093896409332D+03

 The electronic state is 1-A.
 Alpha  occ. eigenvalues --  -20.61853 -20.61797 -20.60210 -20.60198 -15.86846
 Alpha  occ. eigenvalues --  -15.85256 -11.32233 -11.30549 -11.28775 -11.28750
 Alpha  occ. eigenvalues --  -11.28448 -11.27754 -11.27726 -11.27149 -11.27052
 Alpha  occ. eigenvalues --  -11.26899 -11.26201 -11.26048  -1.60895  -1.59282
 Alpha  occ. eigenvalues --   -1.40443  -1.38837  -1.20383  -1.18714  -1.09764
 Alpha  occ. eigenvalues --   -1.08144  -1.05761  -1.04104  -0.96596  -0.94992
 Alpha  occ. eigenvalues --   -0.87151  -0.85530  -0.83413  -0.81818  -0.78478
 Alpha  occ. eigenvalues --   -0.76865  -0.73049  -0.72264  -0.71479  -0.71436
 Alpha  occ. eigenvalues --   -0.70600  -0.69876  -0.66008  -0.65727  -0.64385
 Alpha  occ. eigenvalues --   -0.64120  -0.63091  -0.61456  -0.56219  -0.54741
 Alpha  occ. eigenvalues --   -0.54061  -0.53823  -0.52428  -0.52213  -0.49826
 Alpha  occ. eigenvalues --   -0.49813  -0.48238  -0.48232  -0.45821  -0.44259
 Alpha  occ. eigenvalues --   -0.38352  -0.37376  -0.36696  -0.35675
 Alpha virt. eigenvalues --    0.04015   0.05663   0.10235   0.11945   0.15507
 Alpha virt. eigenvalues --    0.17172   0.20530   0.21806   0.26448   0.27320
 Alpha virt. eigenvalues --    0.27815   0.28447   0.30262   0.31095   0.31963

 Mulliken charges:
               1
     1  C   -0.170574
     2  C   -0.219174
     3  C   -0.176537
     4  C    0.153503
     5  C   -0.173181
     6  C   -0.218039
     7  H    0.229192
     8  H    0.226330
     9  H    0.277716
    10  H    0.277195
    11  H    0.227092
    12  N    0.486010
    13  O   -0.461772
    14  O   -0.452837
    15  C   -0.169781
    16  C   -0.218109
    17  C   -0.171453
    18  C    0.158528
    19  C   -0.169468
    20  C   -0.216002
    21  H    0.218701
    22  H    0.218420
    23  H    0.273185
    24  H    0.277037
    25  H    0.228844
    26  N    0.488141
    27  O   -0.460173
    28  O   -0.462795
 Sum of Mulliken charges =  -0.00000

 Dipole moment (field-independent basis, Debye):
    X=              8.8340    Y=             -4.7943    Z=             -2.1794  Tot=             10.2847
 Quadrupole moment (field-independent basis, Debye-Ang):
   XX=           -117.3744   YY=           -101.9646   ZZ=           -102.8843
   XY=             -2.9322   XZ=             -5.6014   YZ=             -6.1059

 Normal termination of Gaussian 16 at Thu May  6 08:24:07 2021.
