 Gaussian 16, Revision A.03,
 Gaussian 16:  EM64L-G16RevA.03 25-Dec-2016

 -------------
 #p 6-31g* mp2
 -------------

 ------------------------------------------------------
 Input file generated by CHIRIPA (05-May-2021 14:51:07)
 ------------------------------------------------------
 Symbolic Z-matrix:
 Charge =  0 Multiplicity = 1

                         Standard orientation:
 ---------------------------------------------------------------------
 Center     Atomic      Atomic             Coordinates (Angstroms)
 Number     Number       Type             X           Y           Z
 ---------------------------------------------------------------------
      1          6           0       -3.215999    0.109140   -0.058290
      2          6           0       -2.211623    0.133672    1.094364
      3          6           0       -0.831980    0.634326    0.665735
      4          1           0       -2.826057   -0.529762   -0.862464
      5          1           0       -3.306143    1.120443   -0.478453
      6          1           0       -2.124436   -0.877098    1.513124
      7          1           0       -2.604088    0.772437    1.895967
      8          1           0       -0.898118    1.651862    0.267178
      9          1           0       -0.415741   -0.007045   -0.117840
     10          1           0       -0.129689    0.643726    1.505115
     11          6           0       -4.599869   -0.389072    0.354523
     12          6           0       -5.604244   -0.413603   -0.798132
     13          6           0       -6.983888   -0.914258   -0.369502
     14          1           0       -4.509724   -1.400375    0.774685
     15          1           0       -4.989810    0.249830    1.158696
     16          1           0       -5.211779   -1.052368   -1.599735
     17          1           0       -5.691431    0.597166   -1.216891
     18          1           0       -7.400127   -0.272887    0.414072
     19          1           0       -6.917749   -1.931794    0.029054
     20          1           0       -7.686179   -0.923657   -1.208882
     21          6           0        3.239970    0.507680   -0.193320
     22          6           0        3.384515    2.029880   -0.192742
     23          6           0        2.039568    2.751438   -0.283653
     24          1           0        2.715979    0.195833   -1.107175
     25          1           0        2.603461    0.206460    0.650195
     26          1           0        4.021694    2.328029   -1.035195
     27          1           0        3.908392    2.338122    0.721125
     28          1           0        1.400225    2.482787    0.563501
     29          1           0        1.514171    2.472637   -1.202798
     30          1           0        2.166266    3.838546   -0.281726
     31          6           0        4.575897   -0.227749   -0.102912
     32          6           0        4.431353   -1.749948   -0.103489
     33          6           0        5.776300   -2.471506   -0.012580
     34          1           0        5.212406    0.073471   -0.946427
     35          1           0        5.099888    0.084098    0.810943
     36          1           0        3.907475   -2.058191   -1.017358
     37          1           0        3.794174   -2.048098    0.738963
     38          1           0        6.301697   -2.192706    0.906566
     39          1           0        6.415642   -2.202856   -0.859733
     40          1           0        5.649602   -3.558615   -0.014506
 ---------------------------------------------------------------------

 SCF Done:  E(RHF) =  -470.732294436     A.U. after   11 cycles
 E2 =    -0.1583286323D+01 EUMP2 =    -0.47231558075861D+03

 The electronic state is 1-A.
 Alpha  occ. eigenvalues --  -11.21593 -11.21571 -11.21556 -11.21502 -11.21391
 Alpha  occ. eigenvalues --  -11.21339 -11.21332 -11.21268 -11.21065 -11.21049
 Alpha  occ. eigenvalues --  -11.21007 -11.20865  -1.08418  -1.08357  -1.03541
 Alpha  occ. eigenvalues --   -1.03428  -0.96014  -0.95858  -0.87069  -0.86848
 Alpha  occ. eigenvalues --   -0.79719  -0.79402  -0.78262  -0.78119  -0.65046
 Alpha  occ. eigenvalues --   -0.64997  -0.60952  -0.60838  -0.59401  -0.59210
 Alpha  occ. eigenvalues --   -0.57632  -0.57481  -0.55358  -0.55100  -0.52784
 Alpha  occ. eigenvalues --   -0.52596  -0.52495  -0.52150  -0.50001  -0.49708
 Alpha  occ. eigenvalues --   -0.48042  -0.47670  -0.46640  -0.46495  -0.45864
 Alpha  occ. eigenvalues --   -0.45690  -0.45648  -0.45582  -0.43734  -0.43679
 Alpha virt. eigenvalues --    0.22011   0.23015   0.23659   0.24779   0.26126
 Alpha virt. eigenvalues --    0.26550   0.26603   0.27589   0.27921   0.29401
 Alpha virt. eigenvalues --    0.30350   0.30895   0.31599   0.31874   0.32271

 Mulliken charges:
               1
     1  C   -0.298597
     2  C   -0.300836
     3  C   -0.476999
     4  H    0.149494
     5  H    0.149633
     6  H    0.151434
     7  H    0.151523
     8  H    0.158848
     9  H    0.157091
    10  H    0.158887
    11  C   -0.298215
    12  C   -0.299611
    13  C   -0.475690
    14  H    0.149493
    15  H    0.149614
    16  H    0.151880
    17  H    0.151926
    18  H    0.155168
    19  H    0.155156
    20  H    0.160218
    21  C   -0.299814
    22  C   -0.299887
    23  C   -0.479529
    24  H    0.149156
    25  H    0.152250
    26  H    0.151130
    27  H    0.151018
    28  H    0.163287
    29  H    0.154672
    30  H    0.158296
    31  C   -0.298261
    32  C   -0.299504
    33  C   -0.475632
    34  H    0.149356
    35  H    0.149352
    36  H    0.151633
    37  H    0.151745
    38  H    0.155121
    39  H    0.155152
    40  H    0.160040
 Sum of Mulliken charges =  -0.00000

 Dipole moment (field-independent basis, Debye):
    X=             -0.0333    Y=              0.0039    Z=              0.0045  Tot=              0.0338
 Quadrupole moment (field-independent basis, Debye-Ang):
   XX=            -86.9057   YY=            -84.5251   ZZ=            -83.7410
   XY=             -0.1317   XZ=              0.0367   YZ=              0.3672

 Normal termination of Gaussian 16 at Thu May  6 13:11:12 2021.
