 Gaussian 16, Revision A.03,
 Gaussian 16:  EM64L-G16RevA.03 25-Dec-2016

 -------------
 #p 6-31g* mp2
 -------------

 ------------------------------------------------------
 Input file generated by CHIRIPA (05-May-2021 14:57:23)
 ------------------------------------------------------
 Symbolic Z-matrix:
 Charge =  0 Multiplicity = 1

                         Standard orientation:
 ---------------------------------------------------------------------
 Center     Atomic      Atomic             Coordinates (Angstroms)
 Number     Number       Type             X           Y           Z
 ---------------------------------------------------------------------
      1          6           0       -1.707719   -1.113390    1.636348
      2          6           0       -3.079394   -1.210144    1.892604
      3          6           0       -4.008154   -0.658919    1.004852
      4          6           0       -3.528103   -0.015028   -0.134553
      5          6           0       -2.167794    0.097744   -0.417629
      6          6           0       -1.257091   -0.460905    0.484080
      7          1           0       -0.993249   -1.544478    2.331396
      8          1           0       -3.432231   -1.716299    2.786672
      9          1           0       -5.075639   -0.719375    1.178742
     10          1           0       -1.846357    0.608342   -1.317287
     11          1           0       -0.192415   -0.384251    0.282501
     12          7           0       -4.501782    0.572459   -1.081765
     13          8           0       -4.053284    1.134631   -2.078484
     14          8           0       -5.695012    0.459636   -0.809533
     15          6           0        2.898546    2.234448    1.259251
     16          6           0        2.298519    1.033257    1.651210
     17          6           0        2.551197   -0.148909    0.948938
     18          6           0        3.412978   -0.093352   -0.145382
     19          6           0        4.026003    1.087826   -0.560483
     20          6           0        3.758855    2.257857    0.156600
     21          1           0        2.696639    3.148069    1.810546
     22          1           0        1.629964    1.012096    2.507148
     23          1           0        2.100093   -1.092593    1.230687
     24          1           0        4.687937    1.077508   -1.417894
     25          1           0        4.226249    3.189275   -0.150074
     26          7           0        3.688136   -1.338435   -0.896686
     27          8           0        4.451179   -1.262969   -1.857263
     28          8           0        3.135550   -2.366221   -0.510755
 ---------------------------------------------------------------------

 SCF Done:  E(RHF) =  -868.336770511     A.U. after   16 cycles
 E2 =    -0.2601227907D+01 EUMP2 =    -0.87093799841820D+03

 The electronic state is 1-A.
 Alpha  occ. eigenvalues --  -20.61575 -20.61553 -20.60879 -20.60874 -15.86626
 Alpha  occ. eigenvalues --  -15.85932 -11.32153 -11.31343 -11.28780 -11.28616
 Alpha  occ. eigenvalues --  -11.28365 -11.27904 -11.27882 -11.27781 -11.27723
 Alpha  occ. eigenvalues --  -11.27645 -11.26965 -11.26875  -1.60641  -1.59953
 Alpha  occ. eigenvalues --   -1.40191  -1.39505  -1.20311  -1.19517  -1.09645
 Alpha  occ. eigenvalues --   -1.08926  -1.05745  -1.04912  -0.96471  -0.95750
 Alpha  occ. eigenvalues --   -0.87104  -0.86333  -0.83302  -0.82569  -0.78359
 Alpha  occ. eigenvalues --   -0.77593  -0.72832  -0.72153  -0.71974  -0.71377
 Alpha  occ. eigenvalues --   -0.71275  -0.70672  -0.65952  -0.65713  -0.65176
 Alpha  occ. eigenvalues --   -0.64952  -0.63082  -0.62230  -0.56147  -0.55497
 Alpha  occ. eigenvalues --   -0.54110  -0.53807  -0.53248  -0.52910  -0.49606
 Alpha  occ. eigenvalues --   -0.49584  -0.48913  -0.48902  -0.45561  -0.44900
 Alpha  occ. eigenvalues --   -0.38247  -0.37568  -0.37303  -0.36487
 Alpha virt. eigenvalues --    0.04148   0.04921   0.10179   0.11141   0.15623
 Alpha virt. eigenvalues --    0.16404   0.19269   0.21859   0.25191   0.27162
 Alpha virt. eigenvalues --    0.27646   0.29443   0.30234   0.31007   0.31666

 Mulliken charges:
               1
     1  C   -0.175694
     2  C   -0.217787
     3  C   -0.171451
     4  C    0.159309
     5  C   -0.173167
     6  C   -0.222296
     7  H    0.220199
     8  H    0.223740
     9  H    0.276094
    10  H    0.277222
    11  H    0.230625
    12  N    0.487932
    13  O   -0.459681
    14  O   -0.460099
    15  C   -0.170492
    16  C   -0.216158
    17  C   -0.186342
    18  C    0.160732
    19  C   -0.170363
    20  C   -0.216883
    21  H    0.230070
    22  H    0.224330
    23  H    0.271506
    24  H    0.279280
    25  H    0.228190
    26  N    0.488306
    27  O   -0.455666
    28  O   -0.461457
 Sum of Mulliken charges =  -0.00000

 Dipole moment (field-independent basis, Debye):
    X=              2.7018    Y=              2.5020    Z=              5.8626  Tot=              6.9232
 Quadrupole moment (field-independent basis, Debye-Ang):
   XX=           -130.4998   YY=           -104.5833   ZZ=           -103.7977
   XY=             26.1589   XZ=             -7.8970   YZ=             -3.3257

 Normal termination of Gaussian 16 at Thu May  6 05:00:03 2021.
