 Gaussian 16, Revision A.03,
 Gaussian 16:  EM64L-G16RevA.03 25-Dec-2016

 -------------
 #p 6-31g* mp2
 -------------

 ------------------------------------------------------
 Input file generated by CHIRIPA (05-May-2021 14:55:22)
 ------------------------------------------------------
 Symbolic Z-matrix:
 Charge =  0 Multiplicity = 1

                         Standard orientation:
 ---------------------------------------------------------------------
 Center     Atomic      Atomic             Coordinates (Angstroms)
 Number     Number       Type             X           Y           Z
 ---------------------------------------------------------------------
      1          6           0        2.346109    2.839798    0.356110
      2          6           0        3.290669    2.394367   -0.574437
      3          6           0        3.533660    1.027688   -0.740846
      4          6           0        2.810832    0.130082    0.043445
      5          6           0        1.863284    0.542775    0.978927
      6          6           0        1.636682    1.914212    1.128461
      7          1           0        2.163714    3.903315    0.478826
      8          1           0        3.843100    3.110916   -1.175622
      9          1           0        4.259207    0.655408   -1.453873
     10          1           0        1.328195   -0.195468    1.563815
     11          1           0        0.902527    2.257264    1.851909
     12          7           0        3.059401   -1.319279   -0.123792
     13          8           0        2.409416   -2.089849    0.579329
     14          8           0        3.899506   -1.657274   -0.954827
     15          6           0       -2.917325   -0.819063   -0.352896
     16          6           0       -2.460624   -1.987678    0.521031
     17          6           0       -1.202907   -2.671342   -0.016131
     18          1           0       -3.103169   -1.182885   -1.372720
     19          1           0       -2.102898   -0.085104   -0.426434
     20          1           0       -3.276162   -2.718558    0.594032
     21          1           0       -2.276030   -1.621068    1.538941
     22          1           0       -0.372267   -1.960395   -0.072650
     23          1           0       -1.378082   -3.064121   -1.022927
     24          1           0       -0.894035   -3.503777    0.623800
     25          6           0       -4.173530   -0.125458    0.171117
     26          6           0       -4.630229    1.043157   -0.702811
     27          6           0       -5.887947    1.726821   -0.165649
     28          1           0       -4.987956   -0.859417    0.244655
     29          1           0       -3.987685    0.238364    1.190941
     30          1           0       -4.814823    0.676547   -1.720720
     31          1           0       -3.814692    1.774036   -0.775811
     32          1           0       -5.712772    2.119599    0.841148
     33          1           0       -6.718586    1.015874   -0.109130
     34          1           0       -6.196819    2.559256   -0.805579
 ---------------------------------------------------------------------

 SCF Done:  E(RHF) =  -669.535787712     A.U. after   15 cycles
 E2 =    -0.2091629560D+01 EUMP2 =    -0.67162741727167D+03

 The electronic state is 1-A.
 Alpha  occ. eigenvalues --  -20.60884 -20.60871 -15.85904 -11.31276 -11.27842
 Alpha  occ. eigenvalues --  -11.27833 -11.27579 -11.26860 -11.26849 -11.21706
 Alpha  occ. eigenvalues --  -11.21416 -11.21323 -11.21262 -11.21204 -11.20324
 Alpha  occ. eigenvalues --   -1.59939  -1.39495  -1.19445  -1.08840  -1.08365
 Alpha  occ. eigenvalues --   -1.04848  -1.03377  -0.95800  -0.95667  -0.86797
 Alpha  occ. eigenvalues --   -0.86245  -0.82507  -0.79449  -0.78170  -0.77552
 Alpha  occ. eigenvalues --   -0.72130  -0.71256  -0.70550  -0.65103  -0.65015
 Alpha  occ. eigenvalues --   -0.64844  -0.62200  -0.60780  -0.59192  -0.57403
 Alpha  occ. eigenvalues --   -0.55350  -0.55086  -0.53175  -0.52938  -0.52438
 Alpha  occ. eigenvalues --   -0.52214  -0.49773  -0.48890  -0.48874  -0.47755
 Alpha  occ. eigenvalues --   -0.46532  -0.45716  -0.45668  -0.44765  -0.43623
 Alpha  occ. eigenvalues --   -0.37423  -0.36448
 Alpha virt. eigenvalues --    0.04948   0.11130   0.16427   0.21001   0.22835
 Alpha virt. eigenvalues --    0.24141   0.26458   0.27423   0.27551   0.27766
 Alpha virt. eigenvalues --    0.28760   0.30617   0.31512   0.31884   0.32165

 Mulliken charges:
               1
     1  C   -0.170690
     2  C   -0.218330
     3  C   -0.170818
     4  C    0.158742
     5  C   -0.172822
     6  C   -0.218785
     7  H    0.225971
     8  H    0.223862
     9  H    0.275922
    10  H    0.277025
    11  H    0.223802
    12  N    0.487866
    13  O   -0.457939
    14  O   -0.459173
    15  C   -0.297589
    16  C   -0.301030
    17  C   -0.475505
    18  H    0.151078
    19  H    0.145072
    20  H    0.151406
    21  H    0.145795
    22  H    0.159546
    23  H    0.153444
    24  H    0.166474
    25  C   -0.297495
    26  C   -0.299050
    27  C   -0.475447
    28  H    0.150744
    29  H    0.146308
    30  H    0.153110
    31  H    0.148933
    32  H    0.153577
    33  H    0.156282
    34  H    0.159715
 Sum of Mulliken charges =  -0.00000

 Dipole moment (field-independent basis, Debye):
    X=             -0.7149    Y=              5.0292    Z=              0.5536  Tot=              5.1098
 Quadrupole moment (field-independent basis, Debye-Ang):
   XX=            -98.4393   YY=            -93.4296   ZZ=            -92.4986
   XY=             16.1344   XZ=             -0.5408   YZ=             -0.2857

 Normal termination of Gaussian 16 at Thu May  6 07:50:33 2021.
