 Gaussian 16, Revision A.03,
 Gaussian 16:  EM64L-G16RevA.03 25-Dec-2016

 -------------
 #p 6-31g* mp2
 -------------

 ------------------------------------------------------
 Input file generated by CHIRIPA (05-May-2021 14:57:22)
 ------------------------------------------------------
 Symbolic Z-matrix:
 Charge =  0 Multiplicity = 1

                         Standard orientation:
 ---------------------------------------------------------------------
 Center     Atomic      Atomic             Coordinates (Angstroms)
 Number     Number       Type             X           Y           Z
 ---------------------------------------------------------------------
      1          6           0        5.361669    1.277119    0.196499
      2          6           0        5.437334    0.107550   -0.566983
      3          6           0        4.359391   -0.781553   -0.612600
      4          6           0        3.216013   -0.468367    0.120810
      5          6           0        3.110180    0.688860    0.890820
      6          6           0        4.200380    1.563536    0.921686
      7          1           0        6.203802    1.962192    0.226205
      8          1           0        6.337944   -0.117458   -1.131180
      9          1           0        4.391104   -1.694091   -1.195426
     10          1           0        2.199112    0.886045    1.442628
     11          1           0        4.138802    2.471094    1.515479
     12          7           0        2.068354   -1.401984    0.080327
     13          8           0        1.072261   -1.103175    0.735421
     14          8           0        2.186643   -2.414884   -0.605733
     15          6           0       -2.133203    2.431323   -0.644289
     16          6           0       -3.450695    2.502033   -0.179815
     17          6           0       -4.165026    1.335651    0.109720
     18          6           0       -3.528129    0.109849   -0.077520
     19          6           0       -2.216707    0.006609   -0.538825
     20          6           0       -1.521492    1.186031   -0.821998
     21          1           0       -1.585718    3.342461   -0.866735
     22          1           0       -3.928295    3.467764   -0.040862
     23          1           0       -5.186067    1.361461    0.470590
     24          1           0       -1.767348   -0.970612   -0.667415
     25          1           0       -0.498423    1.128084   -1.182578
     26          7           0       -4.274240   -1.131851    0.225631
     27          8           0       -3.690559   -2.199516    0.052292
     28          8           0       -5.428595   -1.013918    0.630839
 ---------------------------------------------------------------------

 SCF Done:  E(RHF) =  -868.338516509     A.U. after   16 cycles
 E2 =    -0.2599572681D+01 EUMP2 =    -0.87093808919031D+03

 The electronic state is 1-A.
 Alpha  occ. eigenvalues --  -20.61531 -20.61507 -20.59907 -20.59865 -15.86540
 Alpha  occ. eigenvalues --  -15.84941 -11.31828 -11.30297 -11.28390 -11.28355
 Alpha  occ. eigenvalues --  -11.28087 -11.27374 -11.27342 -11.26985 -11.26779
 Alpha  occ. eigenvalues --  -11.26742 -11.26031 -11.25903  -1.60589  -1.58966
 Alpha  occ. eigenvalues --   -1.40140  -1.38515  -1.19987  -1.18515  -1.09396
 Alpha  occ. eigenvalues --   -1.07943  -1.05369  -1.03901  -0.96241  -0.94755
 Alpha  occ. eigenvalues --   -0.86769  -0.85325  -0.83069  -0.81574  -0.78133
 Alpha  occ. eigenvalues --   -0.76592  -0.72747  -0.71919  -0.71163  -0.71076
 Alpha  occ. eigenvalues --   -0.70290  -0.69656  -0.65632  -0.65360  -0.64174
 Alpha  occ. eigenvalues --   -0.63938  -0.62709  -0.61223  -0.55860  -0.54501
 Alpha  occ. eigenvalues --   -0.53714  -0.53450  -0.52265  -0.52010  -0.49516
 Alpha  occ. eigenvalues --   -0.49498  -0.47938  -0.47900  -0.45552  -0.43921
 Alpha  occ. eigenvalues --   -0.37964  -0.36974  -0.36572  -0.35481
 Alpha virt. eigenvalues --    0.04349   0.05937   0.10661   0.12134   0.15855
 Alpha virt. eigenvalues --    0.17379   0.20851   0.22127   0.26763   0.27505
 Alpha virt. eigenvalues --    0.28121   0.29097   0.30513   0.31492   0.32138

 Mulliken charges:
               1
     1  C   -0.170400
     2  C   -0.218456
     3  C   -0.170693
     4  C    0.156249
     5  C   -0.174549
     6  C   -0.218764
     7  H    0.227535
     8  H    0.225746
     9  H    0.277546
    10  H    0.276282
    11  H    0.224496
    12  N    0.486293
    13  O   -0.463215
    14  O   -0.454865
    15  C   -0.172942
    16  C   -0.219899
    17  C   -0.171675
    18  C    0.155510
    19  C   -0.163914
    20  C   -0.218088
    21  H    0.219189
    22  H    0.219006
    23  H    0.272911
    24  H    0.290500
    25  H    0.218960
    26  N    0.487804
    27  O   -0.455202
    28  O   -0.465367
 Sum of Mulliken charges =  -0.00000

 Dipole moment (field-independent basis, Debye):
    X=              7.0672    Y=              7.3688    Z=             -0.9233  Tot=             10.2517
 Quadrupole moment (field-independent basis, Debye-Ang):
   XX=            -93.6700   YY=           -104.8049   ZZ=           -103.7432
   XY=            -10.0450   XZ=              1.4542   YZ=              3.0684

 Normal termination of Gaussian 16 at Fri May  7 04:49:28 2021.
