 Gaussian 16, Revision A.03,
 Gaussian 16:  EM64L-G16RevA.03 25-Dec-2016

 -------------
 #p 6-31g* mp2
 -------------

 ------------------------------------------------------
 Input file generated by CHIRIPA (05-May-2021 14:57:25)
 ------------------------------------------------------
 Symbolic Z-matrix:
 Charge =  0 Multiplicity = 1

                         Standard orientation:
 ---------------------------------------------------------------------
 Center     Atomic      Atomic             Coordinates (Angstroms)
 Number     Number       Type             X           Y           Z
 ---------------------------------------------------------------------
      1          6           0        1.107792   -1.764741    0.538779
      2          6           0        1.712687   -1.054758    1.581155
      3          6           0        2.862984   -0.294896    1.348833
      4          6           0        3.383956   -0.267274    0.056117
      5          6           0        2.804274   -0.963762   -1.003206
      6          6           0        1.654552   -1.717062   -0.747806
      7          1           0        0.214437   -2.352471    0.728216
      8          1           0        1.290265   -1.089948    2.581338
      9          1           0        3.351559    0.264355    2.137472
     10          1           0        3.248539   -0.909306   -1.989654
     11          1           0        1.186910   -2.267437   -1.559250
     12          7           0        4.601419    0.533684   -0.202047
     13          8           0        5.040830    0.541659   -1.349868
     14          8           0        5.093204    1.138333    0.748312
     15          6           0       -1.493679    2.272517   -0.144318
     16          6           0       -2.845377    2.554338    0.079306
     17          6           0       -3.790322    1.524350    0.106692
     18          6           0       -3.346649    0.218184   -0.094252
     19          6           0       -2.006961   -0.094596   -0.319406
     20          6           0       -1.079514    0.951279   -0.342611
     21          1           0       -0.766419    3.078806   -0.163968
     22          1           0       -3.169892    3.579484    0.233615
     23          1           0       -4.842977    1.714296    0.277740
     24          1           0       -1.713711   -1.126469   -0.469934
     25          1           0       -0.030419    0.729453   -0.516498
     26          7           0       -4.337759   -0.880627   -0.067473
     27          8           0       -3.921350   -2.022953   -0.247285
     28          8           0       -5.512230   -0.578743    0.132823
 ---------------------------------------------------------------------

 SCF Done:  E(RHF) =  -868.337194198     A.U. after   16 cycles
 E2 =    -0.2602859817D+01 EUMP2 =    -0.87094005401461D+03

 The electronic state is 1-A.
 Alpha  occ. eigenvalues --  -20.61549 -20.61544 -20.61316 -20.61284 -15.86607
 Alpha  occ. eigenvalues --  -15.86348 -11.32138 -11.31639 -11.28711 -11.28664
 Alpha  occ. eigenvalues --  -11.28375 -11.28198 -11.28120 -11.27779 -11.27708
 Alpha  occ. eigenvalues --  -11.27645 -11.27129 -11.26998  -1.60625  -1.60376
 Alpha  occ. eigenvalues --   -1.40171  -1.39935  -1.20333  -1.19759  -1.09684
 Alpha  occ. eigenvalues --   -1.09152  -1.05709  -1.05142  -0.96483  -0.96016
 Alpha  occ. eigenvalues --   -0.87078  -0.86540  -0.83288  -0.82845  -0.78311
 Alpha  occ. eigenvalues --   -0.77943  -0.72811  -0.72571  -0.71961  -0.71699
 Alpha  occ. eigenvalues --   -0.71439  -0.70798  -0.65930  -0.65660  -0.65396
 Alpha  occ. eigenvalues --   -0.65120  -0.63009  -0.62562  -0.56179  -0.55631
 Alpha  occ. eigenvalues --   -0.54212  -0.53739  -0.53465  -0.52958  -0.49585
 Alpha  occ. eigenvalues --   -0.49563  -0.49339  -0.49301  -0.45540  -0.45358
 Alpha  occ. eigenvalues --   -0.38378  -0.37733  -0.37399  -0.36585
 Alpha virt. eigenvalues --    0.04065   0.04666   0.10190   0.10921   0.15495
 Alpha virt. eigenvalues --    0.16263   0.19657   0.21777   0.25470   0.26790
 Alpha virt. eigenvalues --    0.27503   0.29191   0.30131   0.31041   0.31537

 Mulliken charges:
               1
     1  C   -0.181376
     2  C   -0.216857
     3  C   -0.173302
     4  C    0.156772
     5  C   -0.172980
     6  C   -0.228997
     7  H    0.235202
     8  H    0.229796
     9  H    0.278539
    10  H    0.279278
    11  H    0.229739
    12  N    0.487849
    13  O   -0.457983
    14  O   -0.458235
    15  C   -0.173202
    16  C   -0.217689
    17  C   -0.171999
    18  C    0.159985
    19  C   -0.178350
    20  C   -0.220406
    21  H    0.229030
    22  H    0.225226
    23  H    0.276244
    24  H    0.263383
    25  H    0.234997
    26  N    0.488438
    27  O   -0.465474
    28  O   -0.457630
 Sum of Mulliken charges =  -0.00000

 Dipole moment (field-independent basis, Debye):
    X=             -0.5638    Y=              1.1186    Z=              0.9073  Tot=              1.5467
 Quadrupole moment (field-independent basis, Debye-Ang):
   XX=           -155.0941   YY=            -99.7188   ZZ=           -100.5249
   XY=            -23.8304   XZ=              2.2563   YZ=              1.3097

 Normal termination of Gaussian 16 at Fri May  7 11:08:20 2021.
