 Gaussian 16, Revision A.03,
 Gaussian 16:  EM64L-G16RevA.03 25-Dec-2016

 -------------
 #p 6-31g* mp2
 -------------

 ------------------------------------------------------
 Input file generated by CHIRIPA (05-May-2021 14:57:22)
 ------------------------------------------------------
 Symbolic Z-matrix:
 Charge =  0 Multiplicity = 1

                         Standard orientation:
 ---------------------------------------------------------------------
 Center     Atomic      Atomic             Coordinates (Angstroms)
 Number     Number       Type             X           Y           Z
 ---------------------------------------------------------------------
      1          6           0       -2.114446    2.062031   -0.044185
      2          6           0       -3.449164    2.231710   -0.426621
      3          6           0       -4.330104    1.146134   -0.430607
      4          6           0       -3.840439   -0.100661   -0.044577
      5          6           0       -2.516158   -0.301673    0.341643
      6          6           0       -1.653016    0.798109    0.338053
      7          1           0       -1.437023    2.910850   -0.044031
      8          1           0       -3.810284    3.212134   -0.723952
      9          1           0       -5.368280    1.249296   -0.722097
     10          1           0       -2.185346   -1.291173    0.632972
     11          1           0       -0.616968    0.663378    0.635537
     12          7           0       -4.763630   -1.257432   -0.044786
     13          8           0       -4.307606   -2.345590    0.299584
     14          8           0       -5.925770   -1.054047   -0.389317
     15          6           0        3.184486    2.364385    0.341455
     16          6           0        2.382217    1.404432    0.967055
     17          6           0        2.652031    0.041735    0.809556
     18          6           0        3.736991   -0.327269    0.015838
     19          6           0        4.554784    0.605295   -0.620426
     20          6           0        4.266301    1.962463   -0.448895
     21          1           0        2.967637    3.420814    0.469255
     22          1           0        1.541407    1.713663    1.581432
     23          1           0        2.047243   -0.722485    1.282437
     24          1           0        5.386007    0.266394   -1.226754
     25          1           0        4.891061    2.705768   -0.935943
     26          7           0        4.032513   -1.766968   -0.158327
     27          8           0        4.994223   -2.066187   -0.862754
     28          8           0        3.296837   -2.568922    0.412888
 ---------------------------------------------------------------------

 SCF Done:  E(RHF) =  -868.336364234     A.U. after   16 cycles
 E2 =    -0.2600462178D+01 EUMP2 =    -0.87093682641186D+03

 The electronic state is 1-A.
 Alpha  occ. eigenvalues --  -20.61370 -20.61364 -20.60945 -20.60935 -15.86434
 Alpha  occ. eigenvalues --  -15.86001 -11.32010 -11.31498 -11.28695 -11.28574
 Alpha  occ. eigenvalues --  -11.28415 -11.28091 -11.28083 -11.27938 -11.27779
 Alpha  occ. eigenvalues --  -11.27607 -11.27195 -11.27141  -1.60442  -1.60016
 Alpha  occ. eigenvalues --   -1.39990  -1.39565  -1.20220  -1.19700  -1.09571
 Alpha  occ. eigenvalues --   -1.09087  -1.05676  -1.05125  -0.96367  -0.95892
 Alpha  occ. eigenvalues --   -0.87055  -0.86531  -0.83215  -0.82719  -0.78231
 Alpha  occ. eigenvalues --   -0.77724  -0.72646  -0.72218  -0.71769  -0.71341
 Alpha  occ. eigenvalues --   -0.71321  -0.70841  -0.65887  -0.65751  -0.65359
 Alpha  occ. eigenvalues --   -0.65129  -0.63055  -0.62412  -0.56151  -0.55675
 Alpha  occ. eigenvalues --   -0.53989  -0.53787  -0.53442  -0.53178  -0.49422
 Alpha  occ. eigenvalues --   -0.49390  -0.48990  -0.48963  -0.45349  -0.44941
 Alpha  occ. eigenvalues --   -0.38196  -0.37712  -0.37270  -0.36719
 Alpha virt. eigenvalues --    0.04300   0.04812   0.10338   0.10898   0.15538
 Alpha virt. eigenvalues --    0.16258   0.18794   0.22011   0.24969   0.26412
 Alpha virt. eigenvalues --    0.28172   0.28928   0.29966   0.30891   0.32150

 Mulliken charges:
               1
     1  C   -0.171727
     2  C   -0.218158
     3  C   -0.170327
     4  C    0.159253
     5  C   -0.170943
     6  C   -0.220923
     7  H    0.220089
     8  H    0.223724
     9  H    0.276945
    10  H    0.279098
    11  H    0.219117
    12  N    0.487883
    13  O   -0.457819
    14  O   -0.459822
    15  C   -0.171123
    16  C   -0.223650
    17  C   -0.171401
    18  C    0.159564
    19  C   -0.168827
    20  C   -0.218015
    21  H    0.225903
    22  H    0.218554
    23  H    0.274792
    24  H    0.279046
    25  H    0.226590
    26  N    0.488101
    27  O   -0.457341
    28  O   -0.458585
 Sum of Mulliken charges =  -0.00000

 Dipole moment (field-independent basis, Debye):
    X=              2.3799    Y=              9.0330    Z=              0.4902  Tot=              9.3542
 Quadrupole moment (field-independent basis, Debye-Ang):
   XX=           -130.5238   YY=           -107.7960   ZZ=           -103.9987
   XY=              2.0288   XZ=              0.6583   YZ=             -2.3241

 Normal termination of Gaussian 16 at Thu May  6 06:31:44 2021.
