 Gaussian 16, Revision A.03,
 Gaussian 16:  EM64L-G16RevA.03 25-Dec-2016

 -------------
 #p 6-31g* mp2
 -------------

 ------------------------------------------------------
 Input file generated by CHIRIPA (05-May-2021 14:53:14)
 ------------------------------------------------------
 Symbolic Z-matrix:
 Charge =  0 Multiplicity = 1

                         Standard orientation:
 ---------------------------------------------------------------------
 Center     Atomic      Atomic             Coordinates (Angstroms)
 Number     Number       Type             X           Y           Z
 ---------------------------------------------------------------------
      1          6           0        2.377394    1.267931    0.174094
      2          6           0        1.410772    1.925029   -0.811730
      3          6           0        0.373290    2.810670   -0.121031
      4          1           0        1.804605    0.669579    0.895781
      5          1           0        2.888388    2.050149    0.752380
      6          1           0        0.902767    1.141850   -1.388946
      7          1           0        1.985943    2.521732   -1.531271
      8          1           0        0.863756    3.612375    0.440497
      9          1           0       -0.225575    2.224653    0.583630
     10          1           0       -0.307424    3.270415   -0.844303
     11          6           0        3.420527    0.379432   -0.501312
     12          6           0        4.387150   -0.277666    0.484512
     13          6           0        5.424632   -1.163307   -0.206187
     14          1           0        2.909533   -0.402786   -1.079598
     15          1           0        3.993316    0.977783   -1.222999
     16          1           0        3.811978   -0.874369    1.204053
     17          1           0        4.895155    0.505513    1.061728
     18          1           0        6.023497   -0.577290   -0.910848
     19          1           0        4.934166   -1.965012   -0.767715
     20          1           0        6.105345   -1.623052    0.517085
     21          6           0       -4.151506    1.022859   -0.044102
     22          6           0       -4.073096   -0.041531   -0.948230
     23          6           0       -3.032118   -0.970802   -0.862402
     24          6           0       -2.082414   -0.804598    0.144440
     25          6           0       -2.133234    0.245284    1.060112
     26          6           0       -3.183033    1.162623    0.955421
     27          1           0       -4.963589    1.740105   -0.118101
     28          1           0       -4.823818   -0.152567   -1.725488
     29          1           0       -2.947324   -1.804167   -1.549229
     30          1           0       -1.370052    0.329701    1.824209
     31          1           0       -3.241401    1.988262    1.658953
     32          7           0       -0.975708   -1.782061    0.245287
     33          8           0       -0.151535   -1.613458    1.141361
     34          8           0       -0.953401   -2.698290   -0.573653
 ---------------------------------------------------------------------

 SCF Done:  E(RHF) =  -669.535269957     A.U. after   15 cycles
 E2 =    -0.2093745519D+01 EUMP2 =    -0.67162901547633D+03

 The electronic state is 1-A.
 Alpha  occ. eigenvalues --  -20.60997 -20.60991 -15.86024 -11.31313 -11.27875
 Alpha  occ. eigenvalues --  -11.27867 -11.27592 -11.26864 -11.26852 -11.21285
 Alpha  occ. eigenvalues --  -11.20998 -11.20761 -11.20702 -11.20597 -11.20309
 Alpha  occ. eigenvalues --   -1.60054  -1.39611  -1.19484  -1.08885  -1.07798
 Alpha  occ. eigenvalues --   -1.04884  -1.02996  -0.95741  -0.95454  -0.86496
 Alpha  occ. eigenvalues --   -0.86272  -0.82571  -0.79081  -0.77682  -0.77522
 Alpha  occ. eigenvalues --   -0.72246  -0.71373  -0.70600  -0.65139  -0.64886
 Alpha  occ. eigenvalues --   -0.64401  -0.62248  -0.60397  -0.58854  -0.57064
 Alpha  occ. eigenvalues --   -0.55380  -0.54843  -0.53150  -0.52965  -0.52187
 Alpha  occ. eigenvalues --   -0.51879  -0.49418  -0.48997  -0.48989  -0.47398
 Alpha  occ. eigenvalues --   -0.46109  -0.45288  -0.45081  -0.44730  -0.43209
 Alpha  occ. eigenvalues --   -0.37448  -0.36388
 Alpha virt. eigenvalues --    0.04846   0.11123   0.16288   0.20909   0.23329
 Alpha virt. eigenvalues --    0.24678   0.26254   0.27330   0.27829   0.28535
 Alpha virt. eigenvalues --    0.29182   0.30903   0.31661   0.32047   0.32390

 Mulliken charges:
               1
     1  C   -0.305938
     2  C   -0.299099
     3  C   -0.475863
     4  H    0.164465
     5  H    0.144710
     6  H    0.150630
     7  H    0.150968
     8  H    0.153406
     9  H    0.149502
    10  H    0.156925
    11  C   -0.297332
    12  C   -0.301358
    13  C   -0.475966
    14  H    0.155556
    15  H    0.144854
    16  H    0.161985
    17  H    0.147220
    18  H    0.151490
    19  H    0.158666
    20  H    0.158481
    21  C   -0.170597
    22  C   -0.218348
    23  C   -0.171337
    24  C    0.158524
    25  C   -0.171448
    26  C   -0.215332
    27  H    0.226255
    28  H    0.223902
    29  H    0.275800
    30  H    0.276197
    31  H    0.224847
    32  N    0.488463
    33  O   -0.461330
    34  O   -0.458896
 Sum of Mulliken charges =  -0.00000

 Dipole moment (field-independent basis, Debye):
    X=             -4.0561    Y=              3.2431    Z=             -0.3198  Tot=              5.2030
 Quadrupole moment (field-independent basis, Debye-Ang):
   XX=            -78.9272   YY=            -99.8365   ZZ=            -92.2394
   XY=             -2.5052   XZ=              2.2457   YZ=              2.8144

 Normal termination of Gaussian 16 at Thu May  6 20:23:28 2021.
