 Gaussian 16, Revision A.03,
 Gaussian 16:  EM64L-G16RevA.03 25-Dec-2016

 -------------
 #p 6-31g* mp2
 -------------

 ------------------------------------------------------
 Input file generated by CHIRIPA (05-May-2021 14:51:12)
 ------------------------------------------------------
 Symbolic Z-matrix:
 Charge =  0 Multiplicity = 1

                         Standard orientation:
 ---------------------------------------------------------------------
 Center     Atomic      Atomic             Coordinates (Angstroms)
 Number     Number       Type             X           Y           Z
 ---------------------------------------------------------------------
      1          6           0        3.751014    0.188625   -0.668502
      2          6           0        4.102511   -1.251628   -0.294195
      3          6           0        5.231606   -1.826152   -1.150269
      4          1           0        3.464709    0.225814   -1.728497
      5          1           0        4.646964    0.816206   -0.564525
      6          1           0        3.205824   -1.876043   -0.397517
      7          1           0        4.387829   -1.285424    0.765082
      8          1           0        6.141615   -1.227588   -1.039790
      9          1           0        4.952895   -1.821562   -2.208994
     10          1           0        5.466653   -2.856532   -0.865790
     11          6           0        2.623962    0.776862    0.178529
     12          6           0        2.272465    2.217115   -0.195778
     13          6           0        1.143370    2.791638    0.660296
     14          1           0        1.728013    0.149280    0.074552
     15          1           0        2.910268    0.739673    1.238525
     16          1           0        1.987148    2.250911   -1.255055
     17          1           0        3.169152    2.841529   -0.092456
     18          1           0        1.422081    2.787049    1.719022
     19          1           0        0.233361    2.193075    0.549817
     20          1           0        0.908323    3.822019    0.375817
     21          6           0       -3.751339   -0.711101   -0.216919
     22          6           0       -4.578789    0.444451   -0.780843
     23          6           0       -5.702940   -0.028358   -1.703085
     24          1           0       -3.326362   -1.289489   -1.048669
     25          1           0       -4.414427   -1.394016    0.332024
     26          1           0       -3.914117    1.125711   -1.327387
     27          1           0       -5.001689    1.020267    0.052348
     28          1           0       -6.389126   -0.690896   -1.165689
     29          1           0       -5.295374   -0.584853   -2.553264
     30          1           0       -6.281727    0.813847   -2.094947
     31          6           0       -2.623637   -0.254385    0.706892
     32          6           0       -1.796187   -1.409937    1.270816
     33          6           0       -0.672035   -0.937129    2.193057
     34          1           0       -1.960550    0.428529    0.157949
     35          1           0       -3.048614    0.324002    1.538642
     36          1           0       -1.373288   -1.985754    0.437624
     37          1           0       -2.460859   -2.091198    1.817360
     38          1           0       -1.079601   -0.380634    3.043236
     39          1           0        0.014149   -0.274590    1.655661
     40          1           0       -0.093249   -1.779334    2.584920
 ---------------------------------------------------------------------

 SCF Done:  E(RHF) =  -470.732896304     A.U. after   11 cycles
 E2 =    -0.1583574441D+01 EUMP2 =    -0.47231647074551D+03

 The electronic state is 1-A.
 Alpha  occ. eigenvalues --  -11.21630 -11.21611 -11.21609 -11.21588 -11.21428
 Alpha  occ. eigenvalues --  -11.21424 -11.21368 -11.21364 -11.21082 -11.21081
 Alpha  occ. eigenvalues --  -11.21078 -11.20948  -1.08470  -1.08426  -1.03566
 Alpha  occ. eigenvalues --   -1.03504  -0.96003  -0.95961  -0.87026  -0.86972
 Alpha  occ. eigenvalues --   -0.79674  -0.79532  -0.78335  -0.78192  -0.65184
 Alpha  occ. eigenvalues --   -0.64989  -0.61045  -0.60835  -0.59403  -0.59305
 Alpha  occ. eigenvalues --   -0.57615  -0.57571  -0.55367  -0.55195  -0.52698
 Alpha  occ. eigenvalues --   -0.52652  -0.52450  -0.52362  -0.50024  -0.49862
 Alpha  occ. eigenvalues --   -0.48112  -0.47771  -0.46817  -0.46552  -0.45948
 Alpha  occ. eigenvalues --   -0.45766  -0.45753  -0.45312  -0.43806  -0.43777
 Alpha virt. eigenvalues --    0.20445   0.23269   0.23454   0.24725   0.25897
 Alpha virt. eigenvalues --    0.26870   0.26910   0.27245   0.28190   0.29384
 Alpha virt. eigenvalues --    0.30656   0.30966   0.31673   0.31776   0.31845

 Mulliken charges:
               1
     1  C   -0.297696
     2  C   -0.299648
     3  C   -0.475737
     4  H    0.149379
     5  H    0.149698
     6  H    0.151926
     7  H    0.152246
     8  H    0.155228
     9  H    0.155082
    10  H    0.160343
    11  C   -0.302824
    12  C   -0.299616
    13  C   -0.480783
    14  H    0.153098
    15  H    0.150616
    16  H    0.151432
    17  H    0.152193
    18  H    0.156029
    19  H    0.159307
    20  H    0.160493
    21  C   -0.298178
    22  C   -0.299676
    23  C   -0.475712
    24  H    0.149398
    25  H    0.149854
    26  H    0.151845
    27  H    0.152153
    28  H    0.155235
    29  H    0.155093
    30  H    0.160325
    31  C   -0.301300
    32  C   -0.299665
    33  C   -0.484590
    34  H    0.150975
    35  H    0.150289
    36  H    0.150852
    37  H    0.152031
    38  H    0.154793
    39  H    0.165764
    40  H    0.159749
 Sum of Mulliken charges =  -0.00000

 Dipole moment (field-independent basis, Debye):
    X=              0.0224    Y=              0.0165    Z=              0.0080  Tot=              0.0289
 Quadrupole moment (field-independent basis, Debye-Ang):
   XX=            -85.2241   YY=            -85.0406   ZZ=            -84.4562
   XY=              0.5511   XZ=             -0.1615   YZ=             -0.1938

 Normal termination of Gaussian 16 at Wed May  5 19:55:54 2021.
