 Gaussian 16, Revision A.03,
 Gaussian 16:  EM64L-G16RevA.03 25-Dec-2016

 -------------
 #p 6-31g* mp2
 -------------

 ------------------------------------------------------
 Input file generated by CHIRIPA (05-May-2021 14:57:23)
 ------------------------------------------------------
 Symbolic Z-matrix:
 Charge =  0 Multiplicity = 1

                         Standard orientation:
 ---------------------------------------------------------------------
 Center     Atomic      Atomic             Coordinates (Angstroms)
 Number     Number       Type             X           Y           Z
 ---------------------------------------------------------------------
      1          6           0       -5.476849   -1.359248    0.238000
      2          6           0       -5.494527   -0.407901   -0.787255
      3          6           0       -4.465217    0.531159   -0.902307
      4          6           0       -3.429075    0.489909    0.029357
      5          6           0       -3.383146   -0.445512    1.061911
      6          6           0       -4.423073   -1.374989    1.157690
      7          1           0       -6.280565   -2.085010    0.319889
      8          1           0       -6.311630   -0.393312   -1.502919
      9          1           0       -4.453918    1.278626   -1.686260
     10          1           0       -2.555206   -0.435139    1.760356
     11          1           0       -4.406725   -2.112668    1.954940
     12          7           0       -2.333771    1.478977   -0.082241
     13          8           0       -1.432251    1.421600    0.751189
     14          8           0       -2.397533    2.292858   -1.001028
     15          6           0        5.783700    0.920761    0.239533
     16          6           0        4.574146    1.533978    0.582263
     17          6           0        3.363497    0.852175    0.427269
     18          6           0        3.399410   -0.447517   -0.075524
     19          6           0        4.588261   -1.085571   -0.425968
     20          6           0        5.786892   -0.384755   -0.262602
     21          1           0        6.719494    1.457787    0.363188
     22          1           0        4.568640    2.547763    0.972459
     23          1           0        2.412755    1.303003    0.684679
     24          1           0        4.561849   -2.097161   -0.812497
     25          1           0        6.724745   -0.863492   -0.529600
     26          7           0        2.124111   -1.179376   -0.244039
     27          8           0        2.182683   -2.323563   -0.689058
     28          8           0        1.090109   -0.594962    0.072087
 ---------------------------------------------------------------------

 SCF Done:  E(RHF) =  -868.338170633     A.U. after   16 cycles
 E2 =    -0.2599396238D+01 EUMP2 =    -0.87093756687141D+03

 The electronic state is 1-A.
 Alpha  occ. eigenvalues --  -20.60116 -20.60049 -20.59968 -20.59866 -15.85125
 Alpha  occ. eigenvalues --  -15.84955 -11.30524 -11.30350 -11.27168 -11.27007
 Alpha  occ. eigenvalues --  -11.26978 -11.26911 -11.26892 -11.26741 -11.26191
 Alpha  occ. eigenvalues --  -11.26104 -11.26014 -11.25960  -1.59175  -1.58971
 Alpha  occ. eigenvalues --   -1.38717  -1.38522  -1.18719  -1.18539  -1.08122
 Alpha  occ. eigenvalues --   -1.07939  -1.04120  -1.03957  -0.94945  -0.94765
 Alpha  occ. eigenvalues --   -0.85519  -0.85357  -0.81777  -0.81589  -0.76801
 Alpha  occ. eigenvalues --   -0.76616  -0.71435  -0.71129  -0.70504  -0.70234
 Alpha  occ. eigenvalues --   -0.69823  -0.69674  -0.64370  -0.64204  -0.64130
 Alpha  occ. eigenvalues --   -0.63983  -0.61446  -0.61306  -0.54650  -0.54492
 Alpha  occ. eigenvalues --   -0.52465  -0.52275  -0.52208  -0.52065  -0.48157
 Alpha  occ. eigenvalues --   -0.48119  -0.47947  -0.47929  -0.44130  -0.43881
 Alpha  occ. eigenvalues --   -0.36730  -0.36533  -0.35729  -0.35554
 Alpha virt. eigenvalues --    0.05724   0.05919   0.11922   0.12101   0.17194
 Alpha virt. eigenvalues --    0.17374   0.22031   0.22164   0.27963   0.28051
 Alpha virt. eigenvalues --    0.28912   0.29127   0.31548   0.31684   0.33195

 Mulliken charges:
               1
     1  C   -0.170920
     2  C   -0.218917
     3  C   -0.171153
     4  C    0.160169
     5  C   -0.165349
     6  C   -0.218747
     7  H    0.222924
     8  H    0.220465
     9  H    0.273229
    10  H    0.279128
    11  H    0.221940
    12  N    0.490021
    13  O   -0.454835
    14  O   -0.467079
    15  C   -0.171085
    16  C   -0.219535
    17  C   -0.172838
    18  C    0.156458
    19  C   -0.171738
    20  C   -0.219243
    21  H    0.223492
    22  H    0.223992
    23  H    0.288896
    24  H    0.273133
    25  H    0.220766
    26  N    0.487673
    27  O   -0.467669
    28  O   -0.453179
 Sum of Mulliken charges =  -0.00000

 Dipole moment (field-independent basis, Debye):
    X=              0.6204    Y=             -0.8099    Z=              1.1148  Tot=              1.5111
 Quadrupole moment (field-independent basis, Debye-Ang):
   XX=            -48.6498   YY=           -107.9547   ZZ=           -102.2154
   XY=             14.3880   XZ=              1.2620   YZ=             -0.6056

 Normal termination of Gaussian 16 at Wed May  5 17:51:11 2021.
