 Gaussian 16, Revision A.03,
 Gaussian 16:  EM64L-G16RevA.03 25-Dec-2016

 -------------
 #p 6-31g* mp2
 -------------

 ------------------------------------------------------
 Input file generated by CHIRIPA (05-May-2021 14:57:25)
 ------------------------------------------------------
 Symbolic Z-matrix:
 Charge =  0 Multiplicity = 1

                         Standard orientation:
 ---------------------------------------------------------------------
 Center     Atomic      Atomic             Coordinates (Angstroms)
 Number     Number       Type             X           Y           Z
 ---------------------------------------------------------------------
      1          6           0       -3.588056   -1.790303   -0.865352
      2          6           0       -3.160402   -2.007103    0.448661
      3          6           0       -2.509529   -0.994513    1.159698
      4          6           0       -2.301817    0.228138    0.523090
      5          6           0       -2.716074    0.474760   -0.784908
      6          6           0       -3.364921   -0.552246   -1.476865
      7          1           0       -4.092883   -2.582506   -1.410292
      8          1           0       -3.332342   -2.967590    0.926098
      9          1           0       -2.168019   -1.135335    2.178010
     10          1           0       -2.530445    1.442800   -1.234193
     11          1           0       -3.695949   -0.381045   -2.497235
     12          7           0       -1.613840    1.307753    1.265734
     13          8           0       -1.442861    2.375978    0.682384
     14          8           0       -1.258609    1.065286    2.417106
     15          6           0        1.051913    1.725341   -1.564651
     16          6           0        0.780524    0.372351   -1.793318
     17          6           0        1.529466   -0.619978   -1.153852
     18          6           0        2.547002   -0.221858   -0.288167
     19          6           0        2.841579    1.117842   -0.039734
     20          6           0        2.079762    2.093120   -0.690131
     21          1           0        0.465116    2.489583   -2.065651
     22          1           0       -0.017113    0.083798   -2.471962
     23          1           0        1.340706   -1.674756   -1.312695
     24          1           0        3.643071    1.374599    0.642250
     25          1           0        2.292763    3.143100   -0.510640
     26          7           0        3.346689   -1.263367    0.394594
     27          8           0        4.237762   -0.886546    1.152639
     28          8           0        3.067268   -2.436800    0.158769
 ---------------------------------------------------------------------

 SCF Done:  E(RHF) =  -868.337948047     A.U. after   16 cycles
 E2 =    -0.2603137855D+01 EUMP2 =    -0.87094108590203D+03

 The electronic state is 1-A.
 Alpha  occ. eigenvalues --  -20.61286 -20.61273 -20.60409 -20.60382 -15.86310
 Alpha  occ. eigenvalues --  -15.85451 -11.31702 -11.30699 -11.28377 -11.28223
 Alpha  occ. eigenvalues --  -11.28022 -11.27369 -11.27346 -11.27233 -11.27208
 Alpha  occ. eigenvalues --  -11.26986 -11.26325 -11.26144  -1.60329  -1.59475
 Alpha  occ. eigenvalues --   -1.39893  -1.39033  -1.19894  -1.18877  -1.09268
 Alpha  occ. eigenvalues --   -1.08282  -1.05316  -1.04266  -0.96109  -0.95133
 Alpha  occ. eigenvalues --   -0.86700  -0.85668  -0.82953  -0.81973  -0.77999
 Alpha  occ. eigenvalues --   -0.77045  -0.72563  -0.71676  -0.71646  -0.70999
 Alpha  occ. eigenvalues --   -0.70793  -0.69968  -0.65549  -0.65307  -0.64527
 Alpha  occ. eigenvalues --   -0.64286  -0.62658  -0.61630  -0.55787  -0.54765
 Alpha  occ. eigenvalues --   -0.53688  -0.53394  -0.52558  -0.52338  -0.49330
 Alpha  occ. eigenvalues --   -0.49286  -0.48434  -0.48419  -0.45315  -0.44467
 Alpha  occ. eigenvalues --   -0.37946  -0.37107  -0.36590  -0.35715
 Alpha virt. eigenvalues --    0.04481   0.05564   0.10434   0.12087   0.15943
 Alpha virt. eigenvalues --    0.17052   0.20422   0.22048   0.26333   0.27383
 Alpha virt. eigenvalues --    0.27841   0.29088   0.30370   0.31406   0.32527

 Mulliken charges:
               1
     1  C   -0.171079
     2  C   -0.218318
     3  C   -0.169791
     4  C    0.164045
     5  C   -0.173503
     6  C   -0.223290
     7  H    0.227782
     8  H    0.227605
     9  H    0.279636
    10  H    0.268990
    11  H    0.222307
    12  N    0.490194
    13  O   -0.465801
    14  O   -0.455897
    15  C   -0.159890
    16  C   -0.224587
    17  C   -0.173738
    18  C    0.157496
    19  C   -0.169066
    20  C   -0.212117
    21  H    0.224801
    22  H    0.215609
    23  H    0.271492
    24  H    0.276047
    25  H    0.226846
    26  N    0.488571
    27  O   -0.459489
    28  O   -0.464854
 Sum of Mulliken charges =  -0.00000

 Dipole moment (field-independent basis, Debye):
    X=             -5.2882    Y=             -0.0195    Z=             -4.7481  Tot=              7.1071
 Quadrupole moment (field-independent basis, Debye-Ang):
   XX=           -107.7921   YY=           -104.2176   ZZ=           -102.9800
   XY=             21.1507   XZ=              1.1062   YZ=             -4.1626

 Normal termination of Gaussian 16 at Fri May  7 03:30:16 2021.
