 Gaussian 16, Revision A.03,
 Gaussian 16:  EM64L-G16RevA.03 25-Dec-2016

 -------------
 #p 6-31g* mp2
 -------------

 ------------------------------------------------------
 Input file generated by CHIRIPA (05-May-2021 14:51:09)
 ------------------------------------------------------
 Symbolic Z-matrix:
 Charge =  0 Multiplicity = 1

                         Standard orientation:
 ---------------------------------------------------------------------
 Center     Atomic      Atomic             Coordinates (Angstroms)
 Number     Number       Type             X           Y           Z
 ---------------------------------------------------------------------
      1          6           0       -3.299867   -0.325360   -0.111749
      2          6           0       -2.383905   -1.519484   -0.382059
      3          6           0       -3.150844   -2.836185   -0.508139
      4          1           0       -3.869319   -0.509325    0.809568
      5          1           0       -4.036055   -0.245671   -0.923581
      6          1           0       -1.648791   -1.596066    0.429334
      7          1           0       -1.816427   -1.332570   -1.302737
      8          1           0       -3.872644   -2.784438   -1.329679
      9          1           0       -3.704055   -3.049431    0.412233
     10          1           0       -2.476748   -3.676528   -0.701220
     11          6           0       -2.547821    0.998131    0.016805
     12          6           0       -3.463783    2.192255    0.287115
     13          6           0       -2.696844    3.508957    0.413195
     14          1           0       -1.811633    0.918442    0.828637
     15          1           0       -1.978369    1.182097   -0.904512
     16          1           0       -4.031261    2.005341    1.207792
     17          1           0       -4.198897    2.268837   -0.524278
     18          1           0       -2.143633    3.722202   -0.507177
     19          1           0       -1.975044    3.457209    1.234735
     20          1           0       -3.370940    4.349299    0.606276
     21          6           0        2.330480   -0.808486   -0.044569
     22          6           0        2.529054   -2.169395    0.623624
     23          6           0        1.333487   -3.102768    0.430676
     24          1           0        1.425516   -0.336254    0.361611
     25          1           0        2.150174   -0.957754   -1.118163
     26          1           0        2.710307   -2.017521    1.695398
     27          1           0        3.433756   -2.638358    0.215945
     28          1           0        1.153900   -3.283699   -0.634037
     29          1           0        0.426340   -2.659334    0.853821
     30          1           0        1.496717   -4.069900    0.916341
     31          6           0        3.517208    0.135715    0.139513
     32          6           0        3.318634    1.496623   -0.528680
     33          6           0        4.514201    2.429996   -0.335731
     34          1           0        3.697514    0.284983    1.213107
     35          1           0        4.422171   -0.336517   -0.266667
     36          1           0        2.413932    1.965587   -0.121000
     37          1           0        3.137381    1.344750   -1.600454
     38          1           0        5.421348    1.986563   -0.758878
     39          1           0        4.693788    2.610928    0.728982
     40          1           0        4.350971    3.397129   -0.821398
 ---------------------------------------------------------------------

 SCF Done:  E(RHF) =  -470.733218282     A.U. after   11 cycles
 E2 =    -0.1583084412D+01 EUMP2 =    -0.47231630269424D+03

 The electronic state is 1-A.
 Alpha  occ. eigenvalues --  -11.21611 -11.21580 -11.21578 -11.21553 -11.21406
 Alpha  occ. eigenvalues --  -11.21378 -11.21341 -11.21318 -11.21084 -11.21053
 Alpha  occ. eigenvalues --  -11.21029 -11.21021  -1.08432  -1.08398  -1.03541
 Alpha  occ. eigenvalues --   -1.03483  -0.95988  -0.95935  -0.86990  -0.86966
 Alpha  occ. eigenvalues --   -0.79663  -0.79497  -0.78309  -0.78140  -0.65107
 Alpha  occ. eigenvalues --   -0.64994  -0.61021  -0.60819  -0.59392  -0.59274
 Alpha  occ. eigenvalues --   -0.57695  -0.57447  -0.55316  -0.55188  -0.52667
 Alpha  occ. eigenvalues --   -0.52645  -0.52390  -0.52375  -0.49996  -0.49835
 Alpha  occ. eigenvalues --   -0.48080  -0.47735  -0.46770  -0.46464  -0.45995
 Alpha  occ. eigenvalues --   -0.45746  -0.45681  -0.45385  -0.43779  -0.43751
 Alpha virt. eigenvalues --    0.21224   0.23242   0.23385   0.24699   0.25336
 Alpha virt. eigenvalues --    0.26610   0.26775   0.27303   0.28698   0.29513
 Alpha virt. eigenvalues --    0.30127   0.31310   0.31642   0.31929   0.32117

 Mulliken charges:
               1
     1  C   -0.297936
     2  C   -0.303427
     3  C   -0.476526
     4  H    0.149340
     5  H    0.149508
     6  H    0.155650
     7  H    0.152489
     8  H    0.154981
     9  H    0.154728
    10  H    0.161754
    11  C   -0.298599
    12  C   -0.299629
    13  C   -0.475704
    14  H    0.148602
    15  H    0.150350
    16  H    0.151912
    17  H    0.152126
    18  H    0.155374
    19  H    0.154796
    20  H    0.160335
    21  C   -0.299007
    22  C   -0.299695
    23  C   -0.480271
    24  H    0.150835
    25  H    0.149363
    26  H    0.151464
    27  H    0.151788
    28  H    0.155156
    29  H    0.160763
    30  H    0.159738
    31  C   -0.298299
    32  C   -0.299714
    33  C   -0.475673
    34  H    0.149289
    35  H    0.149566
    36  H    0.152445
    37  H    0.151706
    38  H    0.155070
    39  H    0.155111
    40  H    0.160240
 Sum of Mulliken charges =  -0.00000

 Dipole moment (field-independent basis, Debye):
    X=             -0.0130    Y=             -0.0045    Z=             -0.0125  Tot=              0.0186
 Quadrupole moment (field-independent basis, Debye-Ang):
   XX=            -85.4952   YY=            -86.3439   ZZ=            -83.0173
   XY=             -1.1833   XZ=             -0.3520   YZ=              0.0050

 Normal termination of Gaussian 16 at Wed May  5 19:42:06 2021.
