 Gaussian 16, Revision A.03,
 Gaussian 16:  EM64L-G16RevA.03 25-Dec-2016

 -------------
 #p 6-31g* mp2
 -------------

 ------------------------------------------------------
 Input file generated by CHIRIPA (05-May-2021 14:53:15)
 ------------------------------------------------------
 Symbolic Z-matrix:
 Charge =  0 Multiplicity = 1

                         Standard orientation:
 ---------------------------------------------------------------------
 Center     Atomic      Atomic             Coordinates (Angstroms)
 Number     Number       Type             X           Y           Z
 ---------------------------------------------------------------------
      1          6           0        3.521370   -0.904210    0.182417
      2          6           0        2.429812   -0.569317    1.199439
      3          6           0        1.380335   -1.674068    1.325598
      4          1           0        3.057956   -1.085276   -0.797076
      5          1           0        4.010059   -1.843731    0.475468
      6          1           0        1.944255    0.370013    0.905314
      7          1           0        2.895897   -0.388839    2.176582
      8          1           0        1.845715   -2.613218    1.641856
      9          1           0        0.888667   -1.850054    0.363365
     10          1           0        0.609612   -1.413918    2.057833
     11          6           0        4.577894    0.190603    0.045051
     12          6           0        5.669452   -0.144290   -0.971970
     13          6           0        6.718930    0.960462   -1.098130
     14          1           0        4.089205    1.130124   -0.247999
     15          1           0        5.041308    0.371669    1.024544
     16          1           0        5.203368   -0.324767   -1.949114
     17          1           0        6.155009   -1.083620   -0.677846
     18          1           0        7.210597    1.136447   -0.135897
     19          1           0        6.253549    1.899612   -1.414387
     20          1           0        7.489652    0.700312   -1.830365
     21          6           0       -1.905252    2.340730    0.639356
     22          6           0       -1.335153    1.075179    0.812245
     23          6           0       -2.023373   -0.074203    0.412469
     24          6           0       -3.285445    0.079409   -0.159255
     25          6           0       -3.880115    1.326496   -0.344806
     26          6           0       -3.173678    2.462135    0.062400
     27          1           0       -1.363550    3.228260    0.952798
     28          1           0       -0.350234    0.977875    1.260030
     29          1           0       -1.605552   -1.066137    0.534580
     30          1           0       -4.863581    1.391672   -0.794213
     31          1           0       -3.618890    3.443701   -0.073097
     32          7           0       -4.023675   -1.130117   -0.586413
     33          8           0       -5.134170   -0.967919   -1.087544
     34          8           0       -3.477828   -2.217439   -0.412002
 ---------------------------------------------------------------------

 SCF Done:  E(RHF) =  -669.535070291     A.U. after   15 cycles
 E2 =    -0.2092289078D+01 EUMP2 =    -0.67162735936923D+03

 The electronic state is 1-A.
 Alpha  occ. eigenvalues --  -20.60702 -20.60697 -15.85753 -11.31094 -11.27684
 Alpha  occ. eigenvalues --  -11.27612 -11.27420 -11.26698 -11.26626 -11.22572
 Alpha  occ. eigenvalues --  -11.22050 -11.22035 -11.22027 -11.21925 -11.21442
 Alpha  occ. eigenvalues --   -1.59778  -1.39331  -1.19273  -1.09090  -1.08675
 Alpha  occ. eigenvalues --   -1.04689  -1.04203  -0.96655  -0.95510  -0.87672
 Alpha  occ. eigenvalues --   -0.86076  -0.82343  -0.80300  -0.78867  -0.77397
 Alpha  occ. eigenvalues --   -0.71973  -0.71101  -0.70393  -0.65754  -0.64925
 Alpha  occ. eigenvalues --   -0.64687  -0.62292  -0.61412  -0.59987  -0.58244
 Alpha  occ. eigenvalues --   -0.55922  -0.55152  -0.53364  -0.53112  -0.52986
 Alpha  occ. eigenvalues --   -0.52759  -0.50556  -0.48742  -0.48727  -0.48590
 Alpha  occ. eigenvalues --   -0.47302  -0.46408  -0.46305  -0.44741  -0.44450
 Alpha  occ. eigenvalues --   -0.37264  -0.36272
 Alpha virt. eigenvalues --    0.05119   0.11337   0.16564   0.19833   0.22631
 Alpha virt. eigenvalues --    0.23836   0.25683   0.26053   0.26501   0.28248
 Alpha virt. eigenvalues --    0.29349   0.29886   0.30942   0.31358   0.32127

 Mulliken charges:
               1
     1  C   -0.298686
     2  C   -0.304614
     3  C   -0.485846
     4  H    0.153162
     5  H    0.153205
     6  H    0.144780
     7  H    0.155335
     8  H    0.165172
     9  H    0.160652
    10  H    0.156143
    11  C   -0.298829
    12  C   -0.300345
    13  C   -0.476037
    14  H    0.148149
    15  H    0.150174
    16  H    0.153538
    17  H    0.153492
    18  H    0.155452
    19  H    0.154872
    20  H    0.162091
    21  C   -0.172096
    22  C   -0.226962
    23  C   -0.177952
    24  C    0.159475
    25  C   -0.170787
    26  C   -0.218762
    27  H    0.225374
    28  H    0.233828
    29  H    0.281054
    30  H    0.275236
    31  H    0.223006
    32  N    0.488096
    33  O   -0.460874
    34  O   -0.460496
 Sum of Mulliken charges =  -0.00000

 Dipole moment (field-independent basis, Debye):
    X=              2.8430    Y=              4.1455    Z=              1.4795  Tot=              5.2399
 Quadrupole moment (field-independent basis, Debye-Ang):
   XX=           -109.0125   YY=            -92.9418   ZZ=            -95.0383
   XY=            -17.5315   XZ=             -3.4873   YZ=             -1.8403

 Normal termination of Gaussian 16 at Wed May  5 15:38:10 2021.
