 Gaussian 16, Revision A.03,
 Gaussian 16:  EM64L-G16RevA.03 25-Dec-2016

 -------------
 #p 6-31g* mp2
 -------------

 ------------------------------------------------------
 Input file generated by CHIRIPA (05-May-2021 14:55:20)
 ------------------------------------------------------
 Symbolic Z-matrix:
 Charge =  0 Multiplicity = 1

                         Standard orientation:
 ---------------------------------------------------------------------
 Center     Atomic      Atomic             Coordinates (Angstroms)
 Number     Number       Type             X           Y           Z
 ---------------------------------------------------------------------
      1          6           0       -0.370475   -0.302786    1.586264
      2          6           0       -0.786803   -1.409209    0.838587
      3          6           0       -1.967131   -1.357569    0.091119
      4          6           0       -2.710089   -0.178260    0.114194
      5          6           0       -2.321713    0.940834    0.849098
      6          6           0       -1.137906    0.866642    1.589128
      7          1           0        0.547783   -0.351661    2.164027
      8          1           0       -0.192809   -2.318714    0.834493
      9          1           0       -2.312751   -2.199356   -0.496554
     10          1           0       -2.934937    1.833656    0.833472
     11          1           0       -0.817024    1.727452    2.168857
     12          7           0       -3.961490   -0.111653   -0.673180
     13          8           0       -4.598223    0.938986   -0.636213
     14          8           0       -4.281911   -1.111348   -1.312382
     15          6           0        2.910687    0.872789    0.002761
     16          6           0        3.044880    2.112224   -0.882551
     17          6           0        2.451612    3.365692   -0.238619
     18          1           0        1.848665    0.703719    0.227419
     19          1           0        3.407312    1.062180    0.964473
     20          1           0        2.549346    1.920049   -1.842827
     21          1           0        4.106690    2.278253   -1.105285
     22          1           0        2.952013    3.585067    0.710103
     23          1           0        1.385820    3.224828   -0.031629
     24          1           0        2.558357    4.239801   -0.888542
     25          6           0        3.499151   -0.388342   -0.627306
     26          6           0        3.364958   -1.627777    0.258005
     27          6           0        3.958225   -2.881244   -0.385925
     28          1           0        3.002526   -0.577733   -1.589019
     29          1           0        4.561172   -0.219272   -0.851964
     30          1           0        2.303148   -1.793805    0.480739
     31          1           0        3.860493   -1.435602    1.218282
     32          1           0        5.024018   -2.740382   -0.592916
     33          1           0        3.457825   -3.100619   -1.334648
     34          1           0        3.851482   -3.755353    0.263997
 ---------------------------------------------------------------------

 SCF Done:  E(RHF) =  -669.534714336     A.U. after   15 cycles
 E2 =    -0.2093937273D+01 EUMP2 =    -0.67162865160869D+03

 The electronic state is 1-A.
 Alpha  occ. eigenvalues --  -20.60815 -20.60810 -15.85871 -11.31256 -11.27847
 Alpha  occ. eigenvalues --  -11.27844 -11.27545 -11.26840 -11.26828 -11.22563
 Alpha  occ. eigenvalues --  -11.22145 -11.22093 -11.21989 -11.21850 -11.21642
 Alpha  occ. eigenvalues --   -1.59891  -1.39444  -1.19449  -1.09168  -1.08821
 Alpha  occ. eigenvalues --   -1.04850  -1.04242  -0.96671  -0.95664  -0.87691
 Alpha  occ. eigenvalues --   -0.86246  -0.82493  -0.80334  -0.79002  -0.77530
 Alpha  occ. eigenvalues --   -0.72089  -0.71216  -0.70550  -0.65817  -0.65093
 Alpha  occ. eigenvalues --   -0.64817  -0.62228  -0.61603  -0.60046  -0.58305
 Alpha  occ. eigenvalues --   -0.55978  -0.55318  -0.53390  -0.53249  -0.53041
 Alpha  occ. eigenvalues --   -0.52938  -0.50614  -0.48853  -0.48843  -0.48640
 Alpha  occ. eigenvalues --   -0.47368  -0.46506  -0.46415  -0.44846  -0.44479
 Alpha  occ. eigenvalues --   -0.37304  -0.36454
 Alpha virt. eigenvalues --    0.04972   0.11016   0.16382   0.20102   0.22724
 Alpha virt. eigenvalues --    0.23156   0.25722   0.26032   0.27051   0.27150
 Alpha virt. eigenvalues --    0.29658   0.30639   0.30776   0.31186   0.31463

 Mulliken charges:
               1
     1  C   -0.171577
     2  C   -0.221123
     3  C   -0.170960
     4  C    0.158250
     5  C   -0.170643
     6  C   -0.220183
     7  H    0.231266
     8  H    0.225563
     9  H    0.276061
    10  H    0.276150
    11  H    0.225189
    12  N    0.488104
    13  O   -0.460189
    14  O   -0.460279
    15  C   -0.309734
    16  C   -0.298797
    17  C   -0.477147
    18  H    0.156758
    19  H    0.144993
    20  H    0.155469
    21  H    0.153309
    22  H    0.153311
    23  H    0.153174
    24  H    0.163801
    25  C   -0.296815
    26  C   -0.304663
    27  C   -0.476250
    28  H    0.152989
    29  H    0.152373
    30  H    0.143852
    31  H    0.151401
    32  H    0.159128
    33  H    0.157475
    34  H    0.159747
 Sum of Mulliken charges =  -0.00000

 Dipole moment (field-independent basis, Debye):
    X=              4.4378    Y=             -0.2224    Z=              2.6915  Tot=              5.1950
 Quadrupole moment (field-independent basis, Debye-Ang):
   XX=           -118.3802   YY=            -91.1980   ZZ=            -94.1495
   XY=             -0.4421   XZ=             -7.1691   YZ=              0.9159

 Normal termination of Gaussian 16 at Wed May  5 17:23:21 2021.
