 Gaussian 16, Revision A.03,
 Gaussian 16:  EM64L-G16RevA.03 25-Dec-2016

 -------------
 #p 6-31g* mp2
 -------------

 ------------------------------------------------------
 Input file generated by CHIRIPA (05-May-2021 14:57:27)
 ------------------------------------------------------
 Symbolic Z-matrix:
 Charge =  0 Multiplicity = 1

                         Standard orientation:
 ---------------------------------------------------------------------
 Center     Atomic      Atomic             Coordinates (Angstroms)
 Number     Number       Type             X           Y           Z
 ---------------------------------------------------------------------
      1          6           0        3.491568    2.673787    0.377258
      2          6           0        4.685824    2.023047    0.704076
      3          6           0        4.826018    0.648155    0.492972
      4          6           0        3.746891   -0.048220   -0.049096
      5          6           0        2.544301    0.571649   -0.384998
      6          6           0        2.426495    1.947292   -0.165280
      7          1           0        3.391357    3.742128    0.544595
      8          1           0        5.514635    2.584714    1.125559
      9          1           0        5.739345    0.119244    0.736909
     10          1           0        1.735613   -0.015001   -0.803668
     11          1           0        1.497844    2.450031   -0.420043
     12          7           0        3.883457   -1.504154   -0.277142
     13          8           0        2.917961   -2.095075   -0.755960
     14          8           0        4.953409   -2.026826    0.027251
     15          6           0       -5.946988    1.002262   -0.006495
     16          6           0       -4.954500    1.356694   -0.926205
     17          6           0       -3.719264    0.701913   -0.925391
     18          6           0       -3.509510   -0.307167    0.013252
     19          6           0       -4.478414   -0.683064    0.942346
     20          6           0       -5.706201   -0.014694    0.923207
     21          1           0       -6.903656    1.516190   -0.014245
     22          1           0       -5.138710    2.146092   -1.649366
     23          1           0       -2.933322    0.956213   -1.626137
     24          1           0       -4.265403   -1.474009    1.651185
     25          1           0       -6.475137   -0.292058    1.638646
     26          7           0       -2.205764   -1.007548    0.023815
     27          8           0       -2.045776   -1.893143    0.860929
     28          8           0       -1.368561   -0.657649   -0.805222
 ---------------------------------------------------------------------

 SCF Done:  E(RHF) =  -868.338178905     A.U. after   15 cycles
 E2 =    -0.2599059166D+01 EUMP2 =    -0.87093723807119D+03

 The electronic state is 1-A.
 Alpha  occ. eigenvalues --  -20.61118 -20.61067 -20.59735 -20.59672 -15.86140
 Alpha  occ. eigenvalues --  -15.84760 -11.31483 -11.30198 -11.28073 -11.28019
 Alpha  occ. eigenvalues --  -11.27775 -11.27066 -11.27031 -11.26886 -11.26677
 Alpha  occ. eigenvalues --  -11.26641 -11.25932 -11.25836  -1.60148  -1.58787
 Alpha  occ. eigenvalues --   -1.39708  -1.38331  -1.19648  -1.18419  -1.09043
 Alpha  occ. eigenvalues --   -1.07824  -1.05049  -1.03825  -0.95883  -0.94625
 Alpha  occ. eigenvalues --   -0.86447  -0.85230  -0.82720  -0.81447  -0.77772
 Alpha  occ. eigenvalues --   -0.76453  -0.72356  -0.71470  -0.70977  -0.70754
 Alpha  occ. eigenvalues --   -0.70115  -0.69537  -0.65303  -0.65048  -0.64074
 Alpha  occ. eigenvalues --   -0.63848  -0.62398  -0.61136  -0.55543  -0.54387
 Alpha  occ. eigenvalues --   -0.53378  -0.53140  -0.52179  -0.51917  -0.49106
 Alpha  occ. eigenvalues --   -0.49078  -0.47766  -0.47711  -0.45119  -0.43719
 Alpha  occ. eigenvalues --   -0.37624  -0.36653  -0.36460  -0.35437
 Alpha virt. eigenvalues --    0.04751   0.06065   0.11002   0.12206   0.16240
 Alpha virt. eigenvalues --    0.17502   0.21127   0.22290   0.27047   0.27821
 Alpha virt. eigenvalues --    0.28324   0.29262   0.30743   0.31780   0.32269

 Mulliken charges:
               1
     1  C   -0.171346
     2  C   -0.219843
     3  C   -0.171281
     4  C    0.156522
     5  C   -0.175268
     6  C   -0.221341
     7  H    0.220800
     8  H    0.219470
     9  H    0.273055
    10  H    0.297188
    11  H    0.220395
    12  N    0.487013
    13  O   -0.451826
    14  O   -0.466349
    15  C   -0.170670
    16  C   -0.218453
    17  C   -0.171764
    18  C    0.158351
    19  C   -0.170442
    20  C   -0.218444
    21  H    0.226423
    22  H    0.223370
    23  H    0.272730
    24  H    0.277370
    25  H    0.224751
    26  N    0.490173
    27  O   -0.452640
    28  O   -0.467943
 Sum of Mulliken charges =  -0.00000

 Dipole moment (field-independent basis, Debye):
    X=             -5.4898    Y=              7.3620    Z=              0.7604  Tot=              9.2149
 Quadrupole moment (field-independent basis, Debye-Ang):
   XX=            -72.9133   YY=           -106.6861   ZZ=           -102.4533
   XY=             12.8535   XZ=              3.2372   YZ=             -2.8109

 Normal termination of Gaussian 16 at Fri May  7 03:35:12 2021.
