 Gaussian 16, Revision A.03,
 Gaussian 16:  EM64L-G16RevA.03 25-Dec-2016

 -------------
 #p 6-31g* mp2
 -------------

 ------------------------------------------------------
 Input file generated by CHIRIPA (05-May-2021 14:55:23)
 ------------------------------------------------------
 Symbolic Z-matrix:
 Charge =  0 Multiplicity = 1

                         Standard orientation:
 ---------------------------------------------------------------------
 Center     Atomic      Atomic             Coordinates (Angstroms)
 Number     Number       Type             X           Y           Z
 ---------------------------------------------------------------------
      1          6           0       -3.107553    2.607030    0.661020
      2          6           0       -1.843964    2.040769    0.462995
      3          6           0       -1.719049    0.722595    0.014262
      4          6           0       -2.883987   -0.003823   -0.227662
      5          6           0       -4.157031    0.532254   -0.039858
      6          6           0       -4.258025    1.852296    0.409405
      7          1           0       -3.195298    3.631745    1.009813
      8          1           0       -0.948763    2.624544    0.657592
      9          1           0       -0.753263    0.259418   -0.147420
     10          1           0       -5.031194   -0.074575   -0.242385
     11          1           0       -5.240648    2.289462    0.562316
     12          7           0       -2.764407   -1.400303   -0.702996
     13          8           0       -3.806100   -2.019261   -0.908919
     14          8           0       -1.631252   -1.849464   -0.860640
     15          6           0        3.523913   -1.013788    0.339328
     16          6           0        2.144438   -1.154196    0.983778
     17          6           0        1.772913   -2.608641    1.274217
     18          1           0        3.546207   -1.592820   -0.594037
     19          1           0        4.277824   -1.460406    1.002309
     20          1           0        1.393524   -0.706213    0.320411
     21          1           0        2.125364   -0.574607    1.915619
     22          1           0        2.500124   -3.063525    1.954543
     23          1           0        1.764126   -3.195879    0.350270
     24          1           0        0.783045   -2.685872    1.734713
     25          6           0        3.909546    0.434372    0.042935
     26          6           0        5.289022    0.574780   -0.601516
     27          6           0        5.660546    2.029225   -0.891954
     28          1           0        3.155635    0.880990   -0.620048
     29          1           0        3.887253    1.013404    0.976300
     30          1           0        5.308095   -0.004809   -1.533358
     31          1           0        6.039935    0.126798    0.061852
     32          1           0        5.669332    2.616463    0.031991
     33          1           0        4.933335    2.484110   -1.572281
     34          1           0        6.650414    2.106457   -1.352451
 ---------------------------------------------------------------------

 SCF Done:  E(RHF) =  -669.535675455     A.U. after   15 cycles
 E2 =    -0.2091499157D+01 EUMP2 =    -0.67162717461201D+03

 The electronic state is 1-A.
 Alpha  occ. eigenvalues --  -20.60794 -20.60788 -15.85839 -11.31182 -11.27755
 Alpha  occ. eigenvalues --  -11.27731 -11.27497 -11.26769 -11.26751 -11.21685
 Alpha  occ. eigenvalues --  -11.21565 -11.21514 -11.21317 -11.21206 -11.20577
 Alpha  occ. eigenvalues --   -1.59864  -1.39419  -1.19357  -1.08757  -1.08441
 Alpha  occ. eigenvalues --   -1.04757  -1.03469  -0.95887  -0.95593  -0.86899
 Alpha  occ. eigenvalues --   -0.86158  -0.82425  -0.79566  -0.78291  -0.77470
 Alpha  occ. eigenvalues --   -0.72060  -0.71185  -0.70474  -0.65091  -0.65008
 Alpha  occ. eigenvalues --   -0.64748  -0.62133  -0.60837  -0.59274  -0.57511
 Alpha  occ. eigenvalues --   -0.55274  -0.55152  -0.53088  -0.52863  -0.52554
 Alpha  occ. eigenvalues --   -0.52314  -0.49816  -0.48819  -0.48814  -0.47863
 Alpha  occ. eigenvalues --   -0.46595  -0.45805  -0.45729  -0.44825  -0.43730
 Alpha  occ. eigenvalues --   -0.37341  -0.36357
 Alpha virt. eigenvalues --    0.05046   0.11285   0.16544   0.20396   0.22930
 Alpha virt. eigenvalues --    0.24009   0.25452   0.27003   0.27727   0.28155
 Alpha virt. eigenvalues --    0.29198   0.30435   0.31521   0.31733   0.32315

 Mulliken charges:
               1
     1  C   -0.170450
     2  C   -0.223157
     3  C   -0.178127
     4  C    0.156089
     5  C   -0.169862
     6  C   -0.219127
     7  H    0.225650
     8  H    0.224445
     9  H    0.290677
    10  H    0.275575
    11  H    0.223408
    12  N    0.486675
    13  O   -0.459992
    14  O   -0.462048
    15  C   -0.297520
    16  C   -0.306679
    17  C   -0.472358
    18  H    0.153856
    19  H    0.150327
    20  H    0.151077
    21  H    0.147215
    22  H    0.151217
    23  H    0.163740
    24  H    0.164745
    25  C   -0.297766
    26  C   -0.299632
    27  C   -0.475727
    28  H    0.144821
    29  H    0.147021
    30  H    0.153973
    31  H    0.152847
    32  H    0.153876
    33  H    0.154019
    34  H    0.161191
 Sum of Mulliken charges =  -0.00000

 Dipole moment (field-independent basis, Debye):
    X=             -0.4219    Y=              4.7826    Z=              1.6446  Tot=              5.0750
 Quadrupole moment (field-independent basis, Debye-Ang):
   XX=            -87.2637   YY=            -96.0712   ZZ=            -95.7179
   XY=            -14.6029   XZ=             -4.3450   YZ=             -0.6787

 Normal termination of Gaussian 16 at Wed May  5 23:55:43 2021.
