 Gaussian 16, Revision A.03,
 Gaussian 16:  EM64L-G16RevA.03 25-Dec-2016

 -------------
 #p 6-31g* mp2
 -------------

 ------------------------------------------------------
 Input file generated by CHIRIPA (05-May-2021 14:51:09)
 ------------------------------------------------------
 Symbolic Z-matrix:
 Charge =  0 Multiplicity = 1

                         Standard orientation:
 ---------------------------------------------------------------------
 Center     Atomic      Atomic             Coordinates (Angstroms)
 Number     Number       Type             X           Y           Z
 ---------------------------------------------------------------------
      1          6           0        2.335418   -0.385659    0.460163
      2          6           0        3.274095   -1.570821    0.688770
      3          6           0        2.874136   -2.417073    1.897772
      4          1           0        2.322415    0.242730    1.361220
      5          1           0        1.310925   -0.759109    0.324723
      6          1           0        4.296730   -1.195339    0.822362
      7          1           0        3.285012   -2.196358   -0.213005
      8          1           0        1.864027   -2.819278    1.769277
      9          1           0        2.881493   -1.812571    2.810528
     10          1           0        3.558540   -3.258756    2.042760
     11          6           0        2.722219    0.469842   -0.744922
     12          6           0        1.783541    1.655003   -0.973529
     13          6           0        2.183500    2.501256   -2.182530
     14          1           0        3.746712    0.843292   -0.609481
     15          1           0        2.735221   -0.158547   -1.645979
     16          1           0        1.772624    2.280541   -0.071753
     17          1           0        0.760906    1.279521   -1.107121
     18          1           0        2.176143    1.896754   -3.095287
     19          1           0        3.193610    2.903461   -2.054036
     20          1           0        1.499097    3.342938   -2.327519
     21          6           0       -2.701558   -0.773268    0.004633
     22          6           0       -2.592961   -1.154140   -1.472231
     23          6           0       -2.941609   -2.620028   -1.731866
     24          1           0       -2.036323   -1.419688    0.593317
     25          1           0       -3.723507   -0.975511    0.354077
     26          1           0       -1.571898   -0.949942   -1.819146
     27          1           0       -3.258388   -0.506611   -2.057490
     28          1           0       -3.966674   -2.834560   -1.412776
     29          1           0       -2.270602   -3.280411   -1.173078
     30          1           0       -2.857408   -2.870693   -2.793910
     31          6           0       -2.356079    0.689085    0.280125
     32          6           0       -2.464676    1.069957    1.756990
     33          6           0       -2.116027    2.535845    2.016624
     34          1           0       -1.334129    0.891328   -0.069318
     35          1           0       -3.021314    1.335506   -0.308558
     36          1           0       -1.799249    0.422427    2.342248
     37          1           0       -3.485738    0.865759    2.103905
     38          1           0       -2.787034    3.196228    1.457836
     39          1           0       -1.090962    2.750377    1.697534
     40          1           0       -2.200228    2.786509    3.078669
 ---------------------------------------------------------------------

 SCF Done:  E(RHF) =  -470.733387040     A.U. after   11 cycles
 E2 =    -0.1583694057D+01 EUMP2 =    -0.47231708109698D+03

 The electronic state is 1-A.
 Alpha  occ. eigenvalues --  -11.21672 -11.21668 -11.21646 -11.21564 -11.21488
 Alpha  occ. eigenvalues --  -11.21426 -11.21401 -11.21313 -11.21130 -11.21115
 Alpha  occ. eigenvalues --  -11.21107 -11.21032  -1.08515  -1.08421  -1.03597
 Alpha  occ. eigenvalues --   -1.03526  -0.96040  -0.95976  -0.87059  -0.86991
 Alpha  occ. eigenvalues --   -0.79684  -0.79580  -0.78397  -0.78171  -0.65265
 Alpha  occ. eigenvalues --   -0.64944  -0.61002  -0.60921  -0.59419  -0.59335
 Alpha  occ. eigenvalues --   -0.57654  -0.57585  -0.55327  -0.55268  -0.52735
 Alpha  occ. eigenvalues --   -0.52672  -0.52471  -0.52398  -0.50021  -0.49893
 Alpha  occ. eigenvalues --   -0.48067  -0.47872  -0.46792  -0.46627  -0.46186
 Alpha  occ. eigenvalues --   -0.45818  -0.45744  -0.45193  -0.43849  -0.43779
 Alpha virt. eigenvalues --    0.19560   0.23294   0.23626   0.24058   0.25147
 Alpha virt. eigenvalues --    0.26356   0.27039   0.27883   0.28160   0.30252
 Alpha virt. eigenvalues --    0.30857   0.31319   0.31756   0.31888   0.32068

 Mulliken charges:
               1
     1  C   -0.300167
     2  C   -0.299708
     3  C   -0.475687
     4  H    0.149806
     5  H    0.149949
     6  H    0.152386
     7  H    0.152177
     8  H    0.154769
     9  H    0.155357
    10  H    0.160637
    11  C   -0.297798
    12  C   -0.308669
    13  C   -0.475074
    14  H    0.150035
    15  H    0.149725
    16  H    0.151936
    17  H    0.159600
    18  H    0.155300
    19  H    0.155365
    20  H    0.160879
    21  C   -0.298110
    22  C   -0.300526
    23  C   -0.475611
    24  H    0.149357
    25  H    0.149783
    26  H    0.151050
    27  H    0.152340
    28  H    0.155571
    29  H    0.154922
    30  H    0.160292
    31  C   -0.308527
    32  C   -0.298911
    33  C   -0.476585
    34  H    0.159909
    35  H    0.149207
    36  H    0.152304
    37  H    0.151620
    38  H    0.154902
    39  H    0.156255
    40  H    0.159941
 Sum of Mulliken charges =  -0.00000

 Dipole moment (field-independent basis, Debye):
    X=              0.0312    Y=              0.0091    Z=             -0.0100  Tot=              0.0340
 Quadrupole moment (field-independent basis, Debye-Ang):
   XX=            -83.4821   YY=            -85.9460   ZZ=            -85.2269
   XY=             -0.2397   XZ=              0.5796   YZ=              0.5182

 Normal termination of Gaussian 16 at Thu May  6 06:56:00 2021.
