 Gaussian 16, Revision A.03,
 Gaussian 16:  EM64L-G16RevA.03 25-Dec-2016

 -------------
 #p 6-31g* mp2
 -------------

 ------------------------------------------------------
 Input file generated by CHIRIPA (05-May-2021 14:53:13)
 ------------------------------------------------------
 Symbolic Z-matrix:
 Charge =  0 Multiplicity = 1

                         Standard orientation:
 ---------------------------------------------------------------------
 Center     Atomic      Atomic             Coordinates (Angstroms)
 Number     Number       Type             X           Y           Z
 ---------------------------------------------------------------------
      1          6           0       -3.337583    0.554844    0.119620
      2          6           0       -2.791626    1.969198   -0.079174
      3          6           0       -3.563487    3.018724    0.721150
      4          1           0       -4.396921    0.533404   -0.170707
      5          1           0       -3.301217    0.302130    1.188362
      6          1           0       -2.827726    2.218648   -1.147391
      7          1           0       -1.733415    1.987227    0.211479
      8          1           0       -3.517092    2.797244    1.792316
      9          1           0       -4.617621    3.029979    0.425725
     10          1           0       -3.156468    4.022518    0.564324
     11          6           0       -2.576315   -0.505504   -0.674018
     12          6           0       -3.122272   -1.919858   -0.475223
     13          6           0       -2.350411   -2.969384   -1.275548
     14          1           0       -2.612681   -0.252789   -1.742759
     15          1           0       -1.516978   -0.484064   -0.383690
     16          1           0       -4.180483   -1.937887   -0.765876
     17          1           0       -3.086172   -2.169308    0.592994
     18          1           0       -1.296278   -2.980639   -0.980122
     19          1           0       -2.396807   -2.747904   -2.346713
     20          1           0       -2.757430   -3.973177   -1.118721
     21          6           0        3.442912    1.889191   -0.983632
     22          6           0        4.036824    0.622919   -0.965049
     23          6           0        3.418159   -0.441834   -0.303156
     24          6           0        2.200602   -0.203777    0.332592
     25          6           0        1.583772    1.046347    0.331871
     26          6           0        2.220437    2.096497   -0.336254
     27          1           0        3.930497    2.710643   -1.500228
     28          1           0        4.986176    0.459006   -1.466956
     29          1           0        3.855798   -1.432280   -0.273069
     30          1           0        0.636997    1.179034    0.841212
     31          1           0        1.756874    3.078838   -0.349040
     32          7           0        1.536121   -1.323253    1.036607
     33          8           0        0.463803   -1.087598    1.589089
     34          8           0        2.100201   -2.415157    1.022602
 ---------------------------------------------------------------------

 SCF Done:  E(RHF) =  -669.536227912     A.U. after   15 cycles
 E2 =    -0.2092825124D+01 EUMP2 =    -0.67162905303623D+03

 The electronic state is 1-A.
 Alpha  occ. eigenvalues --  -20.61017 -20.61012 -15.86029 -11.31299 -11.27855
 Alpha  occ. eigenvalues --  -11.27847 -11.27582 -11.26856 -11.26841 -11.21672
 Alpha  occ. eigenvalues --  -11.21121 -11.20991 -11.20799 -11.20687 -11.20251
 Alpha  occ. eigenvalues --   -1.60069  -1.39627  -1.19463  -1.08877  -1.07983
 Alpha  occ. eigenvalues --   -1.04851  -1.03113  -0.95729  -0.95545  -0.86576
 Alpha  occ. eigenvalues --   -0.86256  -0.82563  -0.79245  -0.77815  -0.77560
 Alpha  occ. eigenvalues --   -0.72257  -0.71380  -0.70578  -0.65125  -0.64894
 Alpha  occ. eigenvalues --   -0.64558  -0.62201  -0.60488  -0.58982  -0.57160
 Alpha  occ. eigenvalues --   -0.55361  -0.54808  -0.53182  -0.52951  -0.52297
 Alpha  occ. eigenvalues --   -0.51982  -0.49522  -0.49007  -0.49003  -0.47547
 Alpha  occ. eigenvalues --   -0.46278  -0.45555  -0.45223  -0.44646  -0.43342
 Alpha  occ. eigenvalues --   -0.37437  -0.36439
 Alpha virt. eigenvalues --    0.04859   0.11133   0.16343   0.20035   0.23146
 Alpha virt. eigenvalues --    0.24557   0.25515   0.27407   0.27777   0.28367
 Alpha virt. eigenvalues --    0.29238   0.31248   0.31539   0.32017   0.32305

 Mulliken charges:
               1
     1  C   -0.298149
     2  C   -0.299847
     3  C   -0.475481
     4  H    0.148265
     5  H    0.155966
     6  H    0.150952
     7  H    0.140722
     8  H    0.157478
     9  H    0.157131
    10  H    0.155725
    11  C   -0.303529
    12  C   -0.298479
    13  C   -0.476950
    14  H    0.142933
    15  H    0.158900
    16  H    0.146807
    17  H    0.160797
    18  H    0.162480
    19  H    0.149156
    20  H    0.159397
    21  C   -0.170439
    22  C   -0.218587
    23  C   -0.170362
    24  C    0.158965
    25  C   -0.175848
    26  C   -0.219859
    27  H    0.226137
    28  H    0.223915
    29  H    0.275783
    30  H    0.282342
    31  H    0.224368
    32  N    0.487439
    33  O   -0.459956
    34  O   -0.458171
 Sum of Mulliken charges =  -0.00000

 Dipole moment (field-independent basis, Debye):
    X=              2.4793    Y=              3.8182    Z=             -2.3511  Tot=              5.1238
 Quadrupole moment (field-independent basis, Debye-Ang):
   XX=            -81.6585   YY=            -95.7811   ZZ=            -96.6633
   XY=              6.1561   XZ=             -5.6896   YZ=              1.8743

 Normal termination of Gaussian 16 at Thu May  6 05:46:01 2021.
