 Gaussian 16, Revision A.03,
 Gaussian 16:  EM64L-G16RevA.03 25-Dec-2016

 -------------
 #p 6-31g* mp2
 -------------

 ------------------------------------------------------
 Input file generated by CHIRIPA (05-May-2021 14:55:25)
 ------------------------------------------------------
 Symbolic Z-matrix:
 Charge =  0 Multiplicity = 1

                         Standard orientation:
 ---------------------------------------------------------------------
 Center     Atomic      Atomic             Coordinates (Angstroms)
 Number     Number       Type             X           Y           Z
 ---------------------------------------------------------------------
      1          6           0        4.381994   -1.450905   -1.146955
      2          6           0        3.698198   -2.074972   -0.098391
      3          6           0        2.780844   -1.359115    0.676565
      4          6           0        2.570739   -0.014675    0.373863
      5          6           0        3.236478    0.635266   -0.664239
      6          6           0        4.149362   -0.100159   -1.426040
      7          1           0        5.092881   -2.014601   -1.743849
      8          1           0        3.876859   -3.123855    0.120629
      9          1           0        2.237756   -1.817391    1.494157
     10          1           0        3.037259    1.682153   -0.858554
     11          1           0        4.678970    0.387104   -2.239757
     12          7           0        1.601943    0.753529    1.187311
     13          8           0        1.434673    1.936877    0.900355
     14          8           0        1.028216    0.157752    2.096445
     15          6           0       -3.604391   -0.549597   -0.112250
     16          6           0       -5.046745   -1.018979   -0.305330
     17          6           0       -5.249922   -2.482347    0.088456
     18          1           0       -2.935428   -1.186988   -0.706527
     19          1           0       -3.317938   -0.690509    0.939169
     20          1           0       -5.330851   -0.875935   -1.355777
     21          1           0       -5.712372   -0.380275    0.289326
     22          1           0       -4.993248   -2.637143    1.141432
     23          1           0       -4.609558   -3.135620   -0.513018
     24          1           0       -6.287986   -2.796961   -0.057494
     25          6           0       -3.385453    0.911286   -0.501631
     26          6           0       -1.943100    1.380667   -0.308551
     27          6           0       -1.739923    2.844036   -0.702337
     28          1           0       -3.671907    1.052198   -1.553051
     29          1           0       -4.054418    1.548677    0.092645
     30          1           0       -1.277473    0.741964   -0.903207
     31          1           0       -1.658994    1.237624    0.741895
     32          1           0       -2.380287    3.497308   -0.100862
     33          1           0       -1.996597    2.998832   -1.755312
     34          1           0       -0.701860    3.158650   -0.556387
 ---------------------------------------------------------------------

 SCF Done:  E(RHF) =  -669.536531847     A.U. after   15 cycles
 E2 =    -0.2092098439D+01 EUMP2 =    -0.67162863028614D+03

 The electronic state is 1-A.
 Alpha  occ. eigenvalues --  -20.60984 -20.60979 -15.85994 -11.31304 -11.27863
 Alpha  occ. eigenvalues --  -11.27858 -11.27598 -11.26865 -11.26856 -11.21034
 Alpha  occ. eigenvalues --  -11.20640 -11.20627 -11.20471 -11.20347 -11.19718
 Alpha  occ. eigenvalues --   -1.60023  -1.39583  -1.19467  -1.08875  -1.07585
 Alpha  occ. eigenvalues --   -1.04861  -1.02635  -0.95723  -0.95095  -0.86263
 Alpha  occ. eigenvalues --   -0.86128  -0.82557  -0.78742  -0.77612  -0.77370
 Alpha  occ. eigenvalues --   -0.72226  -0.71322  -0.70577  -0.65125  -0.64865
 Alpha  occ. eigenvalues --   -0.64225  -0.62209  -0.60045  -0.58490  -0.56666
 Alpha  occ. eigenvalues --   -0.55366  -0.54415  -0.53191  -0.52953  -0.51770
 Alpha  occ. eigenvalues --   -0.51531  -0.49096  -0.48983  -0.48962  -0.47043
 Alpha  occ. eigenvalues --   -0.45784  -0.44983  -0.44934  -0.44747  -0.42881
 Alpha  occ. eigenvalues --   -0.37442  -0.36461
 Alpha virt. eigenvalues --    0.04872   0.11194   0.16343   0.21299   0.23654
 Alpha virt. eigenvalues --    0.25219   0.27232   0.27444   0.27957   0.28390
 Alpha virt. eigenvalues --    0.28978   0.30834   0.32118   0.32211   0.32521

 Mulliken charges:
               1
     1  C   -0.170524
     2  C   -0.218647
     3  C   -0.170578
     4  C    0.158916
     5  C   -0.170616
     6  C   -0.218622
     7  H    0.226046
     8  H    0.223900
     9  H    0.275995
    10  H    0.275659
    11  H    0.223895
    12  N    0.491173
    13  O   -0.460763
    14  O   -0.459509
    15  C   -0.297959
    16  C   -0.298865
    17  C   -0.475140
    18  H    0.145393
    19  H    0.153817
    20  H    0.149786
    21  H    0.151801
    22  H    0.155615
    23  H    0.152793
    24  H    0.158212
    25  C   -0.297750
    26  C   -0.301981
    27  C   -0.480462
    28  H    0.144708
    29  H    0.148883
    30  H    0.139730
    31  H    0.171112
    32  H    0.152116
    33  H    0.144504
    34  H    0.177363
 Sum of Mulliken charges =  -0.00000

 Dipole moment (field-independent basis, Debye):
    X=              3.7053    Y=             -2.6655    Z=             -2.6728  Tot=              5.2894
 Quadrupole moment (field-independent basis, Debye-Ang):
   XX=            -78.5159   YY=            -92.6814   ZZ=            -95.2390
   XY=             -6.7573   XZ=             -7.5533   YZ=             -2.7685

 Normal termination of Gaussian 16 at Thu May  6 20:56:33 2021.
