 Gaussian 16, Revision A.03,
 Gaussian 16:  EM64L-G16RevA.03 25-Dec-2016

 -------------
 #p 6-31g* mp2
 -------------

 ------------------------------------------------------
 Input file generated by CHIRIPA (05-May-2021 14:53:16)
 ------------------------------------------------------
 Symbolic Z-matrix:
 Charge =  0 Multiplicity = 1

                         Standard orientation:
 ---------------------------------------------------------------------
 Center     Atomic      Atomic             Coordinates (Angstroms)
 Number     Number       Type             X           Y           Z
 ---------------------------------------------------------------------
      1          6           0        3.944305   -0.761883    0.088064
      2          6           0        2.578841   -0.096992   -0.089172
      3          6           0        1.422321   -1.094907   -0.022689
      4          1           0        4.074958   -1.528948   -0.687491
      5          1           0        3.966418   -1.286414    1.053347
      6          1           0        2.559796    0.427287   -1.053218
      7          1           0        2.451504    0.668712    0.686778
      8          1           0        1.412951   -1.609938    0.943363
      9          1           0        1.521858   -1.852735   -0.806520
     10          1           0        0.455604   -0.598260   -0.151765
     11          6           0        5.110492    0.222818    0.024016
     12          6           0        6.475956   -0.442073    0.201252
     13          6           0        7.632476    0.555843    0.134769
     14          1           0        5.088380    0.747350   -0.941267
     15          1           0        4.979839    0.989884    0.799571
     16          1           0        6.603294   -1.207777   -0.574698
     17          1           0        6.495002   -0.966352    1.165298
     18          1           0        7.532939    1.313670    0.918600
     19          1           0        7.641846    1.070874   -0.831283
     20          1           0        8.599193    0.059195    0.263845
     21          6           0       -4.770245   -1.982748    0.141826
     22          6           0       -3.489321   -1.945163   -0.418834
     23          6           0       -2.796712   -0.735535   -0.526722
     24          6           0       -3.417808    0.422614   -0.061725
     25          6           0       -4.692883    0.417635    0.501700
     26          6           0       -5.366886   -0.803308    0.599497
     27          1           0       -5.301054   -2.926811    0.221716
     28          1           0       -3.023497   -2.859563   -0.775101
     29          1           0       -1.804055   -0.677789   -0.956509
     30          1           0       -5.131269    1.345680    0.848066
     31          1           0       -6.361564   -0.829494    1.035359
     32          7           0       -2.694421    1.709183   -0.170599
     33          8           0       -3.263533    2.715562    0.246475
     34          8           0       -1.572018    1.686855   -0.670948
 ---------------------------------------------------------------------

 SCF Done:  E(RHF) =  -669.535793351     A.U. after   15 cycles
 E2 =    -0.2091238103D+01 EUMP2 =    -0.67162703145357D+03

 The electronic state is 1-A.
 Alpha  occ. eigenvalues --  -20.60847 -20.60841 -15.85883 -11.31207 -11.27775
 Alpha  occ. eigenvalues --  -11.27750 -11.27513 -11.26788 -11.26771 -11.21370
 Alpha  occ. eigenvalues --  -11.21195 -11.21108 -11.21050 -11.20906 -11.20847
 Alpha  occ. eigenvalues --   -1.59910  -1.39467  -1.19379  -1.08783  -1.08136
 Alpha  occ. eigenvalues --   -1.04776  -1.03254  -0.95751  -0.95614  -0.86776
 Alpha  occ. eigenvalues --   -0.86175  -0.82455  -0.79319  -0.77935  -0.77511
 Alpha  occ. eigenvalues --   -0.72105  -0.71225  -0.70497  -0.65033  -0.64792
 Alpha  occ. eigenvalues --   -0.64766  -0.62160  -0.60655  -0.59080  -0.57320
 Alpha  occ. eigenvalues --   -0.55286  -0.55040  -0.53114  -0.52960  -0.52347
 Alpha  occ. eigenvalues --   -0.52144  -0.49691  -0.48862  -0.48858  -0.47626
 Alpha  occ. eigenvalues --   -0.46338  -0.45486  -0.45403  -0.44874  -0.43506
 Alpha  occ. eigenvalues --   -0.37360  -0.36370
 Alpha virt. eigenvalues --    0.04988   0.11227   0.16511   0.21068   0.23142
 Alpha virt. eigenvalues --    0.24320   0.26599   0.26955   0.27735   0.27873
 Alpha virt. eigenvalues --    0.29033   0.30358   0.31584   0.31636   0.32192

 Mulliken charges:
               1
     1  C   -0.298796
     2  C   -0.296296
     3  C   -0.487792
     4  H    0.147250
     5  H    0.147699
     6  H    0.156522
     7  H    0.157222
     8  H    0.152906
     9  H    0.148921
    10  H    0.170135
    11  C   -0.298299
    12  C   -0.299359
    13  C   -0.475608
    14  H    0.150607
    15  H    0.151012
    16  H    0.150852
    17  H    0.151038
    18  H    0.155627
    19  H    0.155493
    20  H    0.159213
    21  C   -0.170611
    22  C   -0.220260
    23  C   -0.172871
    24  C    0.156830
    25  C   -0.170691
    26  C   -0.218610
    27  H    0.225699
    28  H    0.224336
    29  H    0.282325
    30  H    0.275535
    31  H    0.223479
    32  N    0.488647
    33  O   -0.459449
    34  O   -0.462709
 Sum of Mulliken charges =  -0.00000

 Dipole moment (field-independent basis, Debye):
    X=             -2.6162    Y=             -4.4276    Z=              0.3896  Tot=              5.1576
 Quadrupole moment (field-independent basis, Debye-Ang):
   XX=            -75.5865   YY=            -98.4417   ZZ=            -93.6655
   XY=             12.3119   XZ=             -3.1784   YZ=              1.7598

 Normal termination of Gaussian 16 at Wed May  5 23:34:04 2021.
