 Gaussian 16, Revision A.03,
 Gaussian 16:  EM64L-G16RevA.03 25-Dec-2016

 -------------
 #p 6-31g* mp2
 -------------

 ------------------------------------------------------
 Input file generated by CHIRIPA (05-May-2021 14:55:25)
 ------------------------------------------------------
 Symbolic Z-matrix:
 Charge =  0 Multiplicity = 1

                         Standard orientation:
 ---------------------------------------------------------------------
 Center     Atomic      Atomic             Coordinates (Angstroms)
 Number     Number       Type             X           Y           Z
 ---------------------------------------------------------------------
      1          6           0       -4.556982   -2.002702   -0.697215
      2          6           0       -4.394253   -1.774854    0.673233
      3          6           0       -3.623646   -0.700572    1.127799
      4          6           0       -3.027354    0.129688    0.179962
      5          6           0       -3.170724   -0.071182   -1.192039
      6          6           0       -3.945775   -1.151640   -1.623843
      7          1           0       -5.157334   -2.839629   -1.041491
      8          1           0       -4.867753   -2.434166    1.395141
      9          1           0       -3.481113   -0.501114    2.182938
     10          1           0       -2.686369    0.603278   -1.887685
     11          1           0       -4.070417   -1.326172   -2.688760
     12          7           0       -2.209194    1.270252    0.649142
     13          8           0       -1.694285    1.987169   -0.206155
     14          8           0       -2.098322    1.425710    1.863299
     15          6           0        3.856185    0.743954   -0.445647
     16          6           0        2.423851    1.175123   -0.128634
     17          6           0        2.055743    2.516075   -0.764352
     18          1           0        4.551539    1.519793   -0.097075
     19          1           0        3.979788    0.680281   -1.535630
     20          1           0        2.302593    1.236625    0.960462
     21          1           0        1.731838    0.398080   -0.477829
     22          1           0        2.148669    2.464270   -1.853977
     23          1           0        2.722667    3.307580   -0.407514
     24          1           0        1.027653    2.805130   -0.524900
     25          6           0        4.239039   -0.594731    0.182900
     26          6           0        5.671373   -1.025900   -0.134113
     27          6           0        6.039482   -2.366852    0.501606
     28          1           0        4.115436   -0.531057    1.272883
     29          1           0        3.543685   -1.370570   -0.165673
     30          1           0        6.363386   -0.248856    0.215082
     31          1           0        5.792631   -1.087402   -1.223209
     32          1           0        5.372557   -3.158356    0.144767
     33          1           0        5.946555   -2.315046    1.591230
     34          1           0        7.067572   -2.655908    0.262154
 ---------------------------------------------------------------------

 SCF Done:  E(RHF) =  -669.536351514     A.U. after   15 cycles
 E2 =    -0.2090945760D+01 EUMP2 =    -0.67162729727363D+03

 The electronic state is 1-A.
 Alpha  occ. eigenvalues --  -20.60970 -20.60955 -15.85991 -11.31299 -11.27859
 Alpha  occ. eigenvalues --  -11.27856 -11.27596 -11.26865 -11.26855 -11.21181
 Alpha  occ. eigenvalues --  -11.20832 -11.20752 -11.20638 -11.20554 -11.19638
 Alpha  occ. eigenvalues --   -1.60018  -1.39576  -1.19465  -1.08872  -1.07748
 Alpha  occ. eigenvalues --   -1.04860  -1.02757  -0.95718  -0.95193  -0.86263
 Alpha  occ. eigenvalues --   -0.86215  -0.82551  -0.78863  -0.77604  -0.77531
 Alpha  occ. eigenvalues --   -0.72218  -0.71328  -0.70574  -0.65122  -0.64863
 Alpha  occ. eigenvalues --   -0.64394  -0.62207  -0.60174  -0.58597  -0.56764
 Alpha  occ. eigenvalues --   -0.55365  -0.54515  -0.53192  -0.52952  -0.51837
 Alpha  occ. eigenvalues --   -0.51626  -0.49185  -0.48970  -0.48951  -0.47146
 Alpha  occ. eigenvalues --   -0.45933  -0.45073  -0.45021  -0.44947  -0.42978
 Alpha  occ. eigenvalues --   -0.37443  -0.36460
 Alpha virt. eigenvalues --    0.04908   0.11195   0.16392   0.21323   0.23478
 Alpha virt. eigenvalues --    0.25147   0.27234   0.27281   0.28053   0.28232
 Alpha virt. eigenvalues --    0.28900   0.30891   0.32082   0.32345   0.32446

 Mulliken charges:
               1
     1  C   -0.170554
     2  C   -0.218593
     3  C   -0.170522
     4  C    0.157999
     5  C   -0.170861
     6  C   -0.218588
     7  H    0.226018
     8  H    0.223858
     9  H    0.275910
    10  H    0.275983
    11  H    0.223847
    12  N    0.490108
    13  O   -0.461374
    14  O   -0.458746
    15  C   -0.297390
    16  C   -0.296942
    17  C   -0.486725
    18  H    0.148674
    19  H    0.146416
    20  H    0.154610
    21  H    0.146522
    22  H    0.146639
    23  H    0.149310
    24  H    0.189848
    25  C   -0.297366
    26  C   -0.298970
    27  C   -0.475202
    28  H    0.149660
    29  H    0.146782
    30  H    0.151825
    31  H    0.150548
    32  H    0.153510
    33  H    0.154991
    34  H    0.158776
 Sum of Mulliken charges =  -0.00000

 Dipole moment (field-independent basis, Debye):
    X=             -3.1941    Y=             -3.9481    Z=             -1.5805  Tot=              5.3186
 Quadrupole moment (field-independent basis, Debye-Ang):
   XX=            -78.8231   YY=            -96.7879   ZZ=            -90.4193
   XY=             13.0113   XZ=              3.8884   YZ=             -1.3931

 Normal termination of Gaussian 16 at Thu May  6 19:23:04 2021.
