 Gaussian 16, Revision A.03,
 Gaussian 16:  EM64L-G16RevA.03 25-Dec-2016

 -------------
 #p 6-31g* mp2
 -------------

 ------------------------------------------------------
 Input file generated by CHIRIPA (05-May-2021 14:55:20)
 ------------------------------------------------------
 Symbolic Z-matrix:
 Charge =  0 Multiplicity = 1

                         Standard orientation:
 ---------------------------------------------------------------------
 Center     Atomic      Atomic             Coordinates (Angstroms)
 Number     Number       Type             X           Y           Z
 ---------------------------------------------------------------------
      1          6           0       -3.015094   -2.000586    1.362141
      2          6           0       -1.663511   -1.731439    1.122758
      3          6           0       -1.287521   -0.709785    0.245602
      4          6           0       -2.293843    0.026307   -0.377914
      5          6           0       -3.648931   -0.217717   -0.160017
      6          6           0       -4.001751   -1.244200    0.721119
      7          1           0       -3.298172   -2.796107    2.045082
      8          1           0       -0.895106   -2.317239    1.619183
      9          1           0       -0.248646   -0.480126    0.042099
     10          1           0       -4.392216    0.383306   -0.669641
     11          1           0       -5.052192   -1.450990    0.905121
     12          7           0       -1.908064    1.110442   -1.308627
     13          8           0       -2.813800    1.744530   -1.845481
     14          8           0       -0.707260    1.305571   -1.483641
     15          6           0        3.292799   -0.516316    0.247105
     16          6           0        3.795140   -0.894071   -1.146789
     17          6           0        4.342842   -2.320128   -1.211404
     18          1           0        4.113689   -0.628386    0.968581
     19          1           0        2.510092   -1.224848    0.551647
     20          1           0        4.575696   -0.184208   -1.449183
     21          1           0        2.973011   -0.780904   -1.865061
     22          1           0        3.568473   -3.043093   -0.935220
     23          1           0        5.180265   -2.443007   -0.516980
     24          1           0        4.696457   -2.569204   -2.216779
     25          6           0        2.742207    0.906387    0.327670
     26          6           0        2.239867    1.284142    1.721564
     27          6           0        1.692165    2.710199    1.786180
     28          1           0        3.524914    1.614920    0.023129
     29          1           0        1.921319    1.018457   -0.393805
     30          1           0        3.061996    1.170975    2.439836
     31          1           0        1.459310    0.574280    2.023960
     32          1           0        0.854741    2.833078    1.091756
     33          1           0        2.466533    3.433164    1.509996
     34          1           0        1.338550    2.959275    2.791554
 ---------------------------------------------------------------------

 SCF Done:  E(RHF) =  -669.536189408     A.U. after   15 cycles
 E2 =    -0.2092965916D+01 EUMP2 =    -0.67162915532423D+03

 The electronic state is 1-A.
 Alpha  occ. eigenvalues --  -20.60996 -20.60982 -15.86021 -11.31299 -11.27861
 Alpha  occ. eigenvalues --  -11.27848 -11.27591 -11.26864 -11.26853 -11.21492
 Alpha  occ. eigenvalues --  -11.21470 -11.21411 -11.21065 -11.20975 -11.20652
 Alpha  occ. eigenvalues --   -1.60048  -1.39607  -1.19467  -1.08878  -1.08295
 Alpha  occ. eigenvalues --   -1.04859  -1.03367  -0.95810  -0.95723  -0.86816
 Alpha  occ. eigenvalues --   -0.86261  -0.82567  -0.79439  -0.78089  -0.77619
 Alpha  occ. eigenvalues --   -0.72252  -0.71357  -0.70584  -0.65156  -0.65100
 Alpha  occ. eigenvalues --   -0.64708  -0.62189  -0.60758  -0.59173  -0.57410
 Alpha  occ. eigenvalues --   -0.55373  -0.55090  -0.53189  -0.52943  -0.52502
 Alpha  occ. eigenvalues --   -0.52209  -0.49743  -0.49023  -0.48988  -0.47745
 Alpha  occ. eigenvalues --   -0.46491  -0.45660  -0.45497  -0.44963  -0.43623
 Alpha  occ. eigenvalues --   -0.37443  -0.36452
 Alpha virt. eigenvalues --    0.04872   0.11169   0.16362   0.19091   0.22964
 Alpha virt. eigenvalues --    0.24451   0.25557   0.26972   0.27854   0.28091
 Alpha virt. eigenvalues --    0.30303   0.31159   0.31524   0.31941   0.32103

 Mulliken charges:
               1
     1  C   -0.170147
     2  C   -0.221606
     3  C   -0.175028
     4  C    0.156657
     5  C   -0.169983
     6  C   -0.218870
     7  H    0.226206
     8  H    0.224542
     9  H    0.286001
    10  H    0.275808
    11  H    0.223932
    12  N    0.492404
    13  O   -0.458276
    14  O   -0.467180
    15  C   -0.296775
    16  C   -0.300807
    17  C   -0.475123
    18  H    0.149604
    19  H    0.134743
    20  H    0.154513
    21  H    0.157491
    22  H    0.151003
    23  H    0.154513
    24  H    0.161617
    25  C   -0.317107
    26  C   -0.297800
    27  C   -0.478849
    28  H    0.152307
    29  H    0.176872
    30  H    0.150250
    31  H    0.139567
    32  H    0.166964
    33  H    0.156151
    34  H    0.156405
 Sum of Mulliken charges =  -0.00000

 Dipole moment (field-independent basis, Debye):
    X=             -1.4670    Y=             -3.6683    Z=              3.0901  Tot=              5.0157
 Quadrupole moment (field-independent basis, Debye-Ang):
   XX=            -82.9314   YY=            -96.2519   ZZ=            -98.0568
   XY=              8.8773   XZ=             -6.3195   YZ=              0.9366

 Normal termination of Gaussian 16 at Thu May  6 12:27:24 2021.
