 Gaussian 16, Revision A.03,
 Gaussian 16:  EM64L-G16RevA.03 25-Dec-2016

 -------------
 #p 6-31g* mp2
 -------------

 ------------------------------------------------------
 Input file generated by CHIRIPA (05-May-2021 14:51:09)
 ------------------------------------------------------
 Symbolic Z-matrix:
 Charge =  0 Multiplicity = 1

                         Standard orientation:
 ---------------------------------------------------------------------
 Center     Atomic      Atomic             Coordinates (Angstroms)
 Number     Number       Type             X           Y           Z
 ---------------------------------------------------------------------
      1          6           0       -3.298563   -0.425249    0.352360
      2          6           0       -3.376156   -1.802321   -0.307669
      3          6           0       -2.452337   -2.826807    0.351710
      4          1           0       -2.261526   -0.064754    0.313066
      5          1           0       -3.556006   -0.521251    1.416269
      6          1           0       -3.119989   -1.703526   -1.370323
      7          1           0       -4.413165   -2.159495   -0.266970
      8          1           0       -2.710527   -2.954778    1.407911
      9          1           0       -1.410004   -2.496218    0.298289
     10          1           0       -2.523702   -3.804096   -0.135806
     11          6           0       -4.216440    0.609759   -0.295705
     12          6           0       -4.138846    1.986830    0.364323
     13          6           0       -5.062665    3.011316   -0.295055
     14          1           0       -3.958997    0.705761   -1.359614
     15          1           0       -5.253476    0.249264   -0.256412
     16          1           0       -3.101838    2.344005    0.323625
     17          1           0       -4.395014    1.888035    1.426977
     18          1           0       -6.104998    2.680727   -0.241635
     19          1           0       -4.804475    3.139287   -1.351257
     20          1           0       -4.991300    3.988606    0.192461
     21          6           0        3.097008   -0.426315    0.160313
     22          6           0        2.950132   -1.840314   -0.402731
     23          6           0        1.623634   -2.495466   -0.016762
     24          1           0        3.009509   -0.463397    1.254806
     25          1           0        2.263127    0.192423   -0.199133
     26          1           0        3.784799   -2.455832   -0.043447
     27          1           0        3.038182   -1.799885   -1.495996
     28          1           0        0.779877   -1.905410   -0.388929
     29          1           0        1.530735   -2.565084    1.071872
     30          1           0        1.539609   -3.505552   -0.429710
     31          6           0        4.417994    0.241805   -0.216968
     32          6           0        4.564870    1.655804    0.346076
     33          6           0        5.891368    2.310957   -0.039893
     34          1           0        5.251876   -0.376932    0.142477
     35          1           0        4.505493    0.278889   -1.311460
     36          1           0        4.476820    1.615376    1.439342
     37          1           0        3.730204    2.271323   -0.013208
     38          1           0        5.984267    2.380576   -1.128527
     39          1           0        6.735126    1.720901    0.332275
     40          1           0        5.975393    3.321042    0.373056
 ---------------------------------------------------------------------

 SCF Done:  E(RHF) =  -470.733099128     A.U. after   11 cycles
 E2 =    -0.1582451345D+01 EUMP2 =    -0.47231555047315D+03

 The electronic state is 1-A.
 Alpha  occ. eigenvalues --  -11.21632 -11.21622 -11.21587 -11.21537 -11.21435
 Alpha  occ. eigenvalues --  -11.21378 -11.21375 -11.21318 -11.21112 -11.21087
 Alpha  occ. eigenvalues --  -11.21062 -11.20906  -1.08460  -1.08394  -1.03567
 Alpha  occ. eigenvalues --   -1.03476  -0.96034  -0.95908  -0.87076  -0.86903
 Alpha  occ. eigenvalues --   -0.79673  -0.79501  -0.78279  -0.78202  -0.65102
 Alpha  occ. eigenvalues --   -0.65019  -0.61024  -0.60832  -0.59379  -0.59294
 Alpha  occ. eigenvalues --   -0.57679  -0.57497  -0.55421  -0.55123  -0.52746
 Alpha  occ. eigenvalues --   -0.52604  -0.52548  -0.52227  -0.50074  -0.49748
 Alpha  occ. eigenvalues --   -0.48047  -0.47751  -0.46722  -0.46495  -0.45855
 Alpha  occ. eigenvalues --   -0.45753  -0.45713  -0.45601  -0.43813  -0.43736
 Alpha virt. eigenvalues --    0.21894   0.23008   0.23659   0.24748   0.26058
 Alpha virt. eigenvalues --    0.26685   0.27113   0.27505   0.27812   0.29002
 Alpha virt. eigenvalues --    0.30602   0.31436   0.31656   0.31824   0.32153

 Mulliken charges:
               1
     1  C   -0.298210
     2  C   -0.299377
     3  C   -0.483954
     4  H    0.148891
     5  H    0.149646
     6  H    0.151127
     7  H    0.151611
     8  H    0.154346
     9  H    0.166105
    10  H    0.159499
    11  C   -0.298228
    12  C   -0.299595
    13  C   -0.475679
    14  H    0.149250
    15  H    0.149712
    16  H    0.151773
    17  H    0.151974
    18  H    0.155195
    19  H    0.155063
    20  H    0.160194
    21  C   -0.298305
    22  C   -0.300212
    23  C   -0.477392
    24  H    0.149913
    25  H    0.148986
    26  H    0.152171
    27  H    0.151966
    28  H    0.155595
    29  H    0.156158
    30  H    0.161474
    31  C   -0.298296
    32  C   -0.299654
    33  C   -0.475727
    34  H    0.149680
    35  H    0.149657
    36  H    0.152054
    37  H    0.151826
    38  H    0.155183
    39  H    0.155249
    40  H    0.160330
 Sum of Mulliken charges =  -0.00000

 Dipole moment (field-independent basis, Debye):
    X=              0.0480    Y=             -0.0141    Z=              0.0093  Tot=              0.0509
 Quadrupole moment (field-independent basis, Debye-Ang):
   XX=            -85.3368   YY=            -85.6689   ZZ=            -83.8273
   XY=             -0.0859   XZ=             -0.1676   YZ=             -0.0744

 Normal termination of Gaussian 16 at Wed May  5 21:21:31 2021.
