 Gaussian 16, Revision A.03,
 Gaussian 16:  EM64L-G16RevA.03 25-Dec-2016

 -------------
 #p 6-31g* mp2
 -------------

 ------------------------------------------------------
 Input file generated by CHIRIPA (05-May-2021 14:53:14)
 ------------------------------------------------------
 Symbolic Z-matrix:
 Charge =  0 Multiplicity = 1

                         Standard orientation:
 ---------------------------------------------------------------------
 Center     Atomic      Atomic             Coordinates (Angstroms)
 Number     Number       Type             X           Y           Z
 ---------------------------------------------------------------------
      1          6           0       -3.052185    0.663126   -0.787847
      2          6           0       -2.928057    2.111528   -0.313810
      3          6           0       -2.103341    2.976910   -1.267094
      4          1           0       -2.047395    0.233108   -0.899322
      5          1           0       -3.510568    0.649465   -1.786393
      6          1           0       -2.471311    2.122369    0.684129
      7          1           0       -3.933264    2.538088   -0.203266
      8          1           0       -2.559323    2.995878   -2.262244
      9          1           0       -1.089063    2.577797   -1.369806
     10          1           0       -2.027409    4.008344   -0.908992
     11          6           0       -3.873858   -0.214479    0.154698
     12          6           0       -3.997986   -1.662880   -0.319339
     13          6           0       -4.822702   -2.528262    0.633945
     14          1           0       -3.415475   -0.200818    1.153244
     15          1           0       -4.878647    0.215540    0.266173
     16          1           0       -2.992778   -2.089441   -0.429883
     17          1           0       -4.454732   -1.673722   -1.317278
     18          1           0       -5.836980   -2.129150    0.736657
     19          1           0       -4.366720   -2.547231    1.629095
     20          1           0       -4.898634   -3.559697    0.275843
     21          6           0        0.783529    0.548014    1.713234
     22          6           0        0.572822   -0.384657    0.692329
     23          6           0        1.630377   -0.792663   -0.125997
     24          6           0        2.891293   -0.245176    0.105605
     25          6           0        3.132987    0.685863    1.114585
     26          6           0        2.060688    1.079361    1.920738
     27          1           0       -0.043732    0.859328    2.344200
     28          1           0       -0.417968   -0.798982    0.528879
     29          1           0        1.495279   -1.513122   -0.923558
     30          1           0        4.131910    1.081250    1.253292
     31          1           0        2.227263    1.803852    2.712830
     32          7           0        4.018684   -0.669433   -0.754276
     33          8           0        5.120050   -0.172210   -0.529780
     34          8           0        3.779619   -1.491157   -1.636464
 ---------------------------------------------------------------------

 SCF Done:  E(RHF) =  -669.535397933     A.U. after   15 cycles
 E2 =    -0.2092386748D+01 EUMP2 =    -0.67162778468167D+03

 The electronic state is 1-A.
 Alpha  occ. eigenvalues --  -20.60791 -20.60786 -15.85846 -11.31232 -11.27808
 Alpha  occ. eigenvalues --  -11.27803 -11.27560 -11.26819 -11.26806 -11.22487
 Alpha  occ. eigenvalues --  -11.22409 -11.22333 -11.22233 -11.21787 -11.21624
 Alpha  occ. eigenvalues --   -1.59866  -1.39419  -1.19410  -1.09312  -1.08798
 Alpha  occ. eigenvalues --   -1.04817  -1.04302  -0.96734  -0.95630  -0.87742
 Alpha  occ. eigenvalues --   -0.86214  -0.82465  -0.80373  -0.79128  -0.77506
 Alpha  occ. eigenvalues --   -0.72064  -0.71190  -0.70517  -0.66109  -0.65060
 Alpha  occ. eigenvalues --   -0.64715  -0.62153  -0.61705  -0.60099  -0.58345
 Alpha  occ. eigenvalues --   -0.56039  -0.55305  -0.53394  -0.53170  -0.53132
 Alpha  occ. eigenvalues --   -0.52882  -0.50671  -0.48827  -0.48817  -0.48675
 Alpha  occ. eigenvalues --   -0.47431  -0.46631  -0.46597  -0.44820  -0.44583
 Alpha  occ. eigenvalues --   -0.37382  -0.36405
 Alpha virt. eigenvalues --    0.05018   0.11122   0.16431   0.18217   0.22840
 Alpha virt. eigenvalues --    0.23441   0.25022   0.25261   0.27010   0.28600
 Alpha virt. eigenvalues --    0.29513   0.30684   0.31096   0.31308   0.31978

 Mulliken charges:
               1
     1  C   -0.302968
     2  C   -0.297961
     3  C   -0.477517
     4  H    0.145911
     5  H    0.154964
     6  H    0.143842
     7  H    0.154846
     8  H    0.157772
     9  H    0.159087
    10  H    0.161337
    11  C   -0.299566
    12  C   -0.300527
    13  C   -0.475868
    14  H    0.141802
    15  H    0.154657
    16  H    0.146076
    17  H    0.156790
    18  H    0.157736
    19  H    0.154001
    20  H    0.163582
    21  C   -0.172658
    22  C   -0.222106
    23  C   -0.172657
    24  C    0.158759
    25  C   -0.170629
    26  C   -0.218483
    27  H    0.226395
    28  H    0.230060
    29  H    0.276028
    30  H    0.275898
    31  H    0.223772
    32  N    0.488104
    33  O   -0.460289
    34  O   -0.460190
 Sum of Mulliken charges =  -0.00000

 Dipole moment (field-independent basis, Debye):
    X=             -4.0942    Y=              1.5279    Z=              2.9485  Tot=              5.2717
 Quadrupole moment (field-independent basis, Debye-Ang):
   XX=           -114.9965   YY=            -94.4486   ZZ=            -93.3786
   XY=              6.9502   XZ=             11.2852   YZ=              1.4619

 Normal termination of Gaussian 16 at Wed May  5 18:37:01 2021.
