 Gaussian 16, Revision A.03,
 Gaussian 16:  EM64L-G16RevA.03 25-Dec-2016

 -------------
 #p 6-31g* mp2
 -------------

 ------------------------------------------------------
 Input file generated by CHIRIPA (05-May-2021 14:55:20)
 ------------------------------------------------------
 Symbolic Z-matrix:
 Charge =  0 Multiplicity = 1

                         Standard orientation:
 ---------------------------------------------------------------------
 Center     Atomic      Atomic             Coordinates (Angstroms)
 Number     Number       Type             X           Y           Z
 ---------------------------------------------------------------------
      1          6           0       -1.305704   -0.142421   -0.274642
      2          6           0       -1.966728   -1.372188   -0.189543
      3          6           0       -3.357267   -1.422943   -0.053993
      4          6           0       -4.058631   -0.219140   -0.006695
      5          6           0       -3.428800    1.021761   -0.088965
      6          6           0       -2.037559    1.048529   -0.224171
      7          1           0       -0.225227   -0.112310   -0.379807
      8          1           0       -1.400931   -2.298689   -0.228463
      9          1           0       -3.894390   -2.361175    0.014110
     10          1           0       -4.019909    1.928551   -0.047255
     11          1           0       -1.526859    2.005029   -0.290028
     12          7           0       -5.531103   -0.260175    0.136623
     13          8           0       -6.126131    0.814553    0.175834
     14          8           0       -6.062319   -1.366290    0.207031
     15          6           0        4.297964    0.595718   -0.328089
     16          6           0        3.472161    1.531348    0.555444
     17          6           0        2.302541    2.171647   -0.192755
     18          1           0        4.677395    1.157884   -1.192351
     19          1           0        3.643723   -0.190586   -0.729451
     20          1           0        4.128047    2.314854    0.956129
     21          1           0        3.094812    0.966936    1.417803
     22          1           0        1.625177    1.403072   -0.578853
     23          1           0        2.664284    2.758649   -1.043150
     24          1           0        1.725700    2.836577    0.457615
     25          6           0        5.470867   -0.052033    0.405698
     26          6           0        6.296670   -0.987663   -0.477836
     27          6           0        7.466290   -1.627962    0.270362
     28          1           0        6.125107    0.734272    0.807058
     29          1           0        5.091436   -0.614198    1.269959
     30          1           0        6.674019   -0.423251   -1.340194
     31          1           0        5.640784   -1.771169   -0.878521
     32          1           0        7.104547   -2.214964    1.120759
     33          1           0        8.143654   -0.859387    0.656462
     34          1           0        8.043131   -2.292892   -0.380007
 ---------------------------------------------------------------------

 SCF Done:  E(RHF) =  -669.535473732     A.U. after   15 cycles
 E2 =    -0.2090909397D+01 EUMP2 =    -0.67162638312938D+03

 The electronic state is 1-A.
 Alpha  occ. eigenvalues --  -20.60726 -20.60721 -15.85779 -11.31137 -11.27708
 Alpha  occ. eigenvalues --  -11.27699 -11.27428 -11.26724 -11.26695 -11.22613
 Alpha  occ. eigenvalues --  -11.22383 -11.22278 -11.22214 -11.22082 -11.21578
 Alpha  occ. eigenvalues --   -1.59802  -1.39356  -1.19308  -1.09258  -1.08704
 Alpha  occ. eigenvalues --   -1.04710  -1.04377  -0.96845  -0.95542  -0.87865
 Alpha  occ. eigenvalues --   -0.86105  -0.82376  -0.80445  -0.79031  -0.77421
 Alpha  occ. eigenvalues --   -0.71998  -0.71125  -0.70446  -0.65893  -0.64960
 Alpha  occ. eigenvalues --   -0.64714  -0.62063  -0.61777  -0.60224  -0.58431
 Alpha  occ. eigenvalues --   -0.56226  -0.55164  -0.53541  -0.53247  -0.53040
 Alpha  occ. eigenvalues --   -0.52796  -0.50780  -0.48772  -0.48753  -0.48735
 Alpha  occ. eigenvalues --   -0.47471  -0.46580  -0.46487  -0.44763  -0.44616
 Alpha  occ. eigenvalues --   -0.37287  -0.36316
 Alpha virt. eigenvalues --    0.05112   0.11337   0.16605   0.19201   0.22409
 Alpha virt. eigenvalues --    0.23751   0.25338   0.26097   0.26491   0.27472
 Alpha virt. eigenvalues --    0.28891   0.29691   0.30984   0.31431   0.32258

 Mulliken charges:
               1
     1  C   -0.175126
     2  C   -0.219335
     3  C   -0.170852
     4  C    0.158327
     5  C   -0.171007
     6  C   -0.221493
     7  H    0.232071
     8  H    0.223352
     9  H    0.275324
    10  H    0.275505
    11  H    0.225170
    12  N    0.488033
    13  O   -0.460539
    14  O   -0.460594
    15  C   -0.297890
    16  C   -0.300604
    17  C   -0.480621
    18  H    0.152242
    19  H    0.144893
    20  H    0.156921
    21  H    0.152603
    22  H    0.145371
    23  H    0.161481
    24  H    0.161795
    25  C   -0.298917
    26  C   -0.300034
    27  C   -0.476133
    28  H    0.151718
    29  H    0.150053
    30  H    0.153145
    31  H    0.151235
    32  H    0.155640
    33  H    0.156371
    34  H    0.161898
 Sum of Mulliken charges =  -0.00000

 Dipole moment (field-independent basis, Debye):
    X=              5.4558    Y=              0.2037    Z=             -0.4794  Tot=              5.4807
 Quadrupole moment (field-independent basis, Debye-Ang):
   XX=           -136.9141   YY=            -89.2464   ZZ=            -95.7512
   XY=             -0.7755   XZ=              1.5691   YZ=              0.0324

 Normal termination of Gaussian 16 at Thu May  6 09:18:28 2021.
