 Gaussian 16, Revision A.03,
 Gaussian 16:  EM64L-G16RevA.03 25-Dec-2016

 -------------
 #p 6-31g* mp2
 -------------

 ------------------------------------------------------
 Input file generated by CHIRIPA (05-May-2021 14:53:15)
 ------------------------------------------------------
 Symbolic Z-matrix:
 Charge =  0 Multiplicity = 1

                         Standard orientation:
 ---------------------------------------------------------------------
 Center     Atomic      Atomic             Coordinates (Angstroms)
 Number     Number       Type             X           Y           Z
 ---------------------------------------------------------------------
      1          6           0        3.529799   -0.455913   -0.251857
      2          6           0        4.003633   -1.781272    0.345546
      3          6           0        3.127947   -2.963715   -0.070142
      4          1           0        2.491806   -0.271896    0.057423
      5          1           0        3.519527   -0.538446   -1.347520
      6          1           0        4.014330   -1.695810    1.439711
      7          1           0        5.040682   -1.962062    0.034965
      8          1           0        3.125727   -3.077413   -1.159026
      9          1           0        2.093543   -2.809649    0.253701
     10          1           0        3.484614   -3.901044    0.368109
     11          6           0        4.395171    0.735586    0.154579
     12          6           0        3.921337    2.060945   -0.442824
     13          6           0        4.797023    3.243388   -0.027136
     14          1           0        4.405443    0.818119    1.250242
     15          1           0        5.433164    0.551569   -0.154701
     16          1           0        2.884288    2.241734   -0.132243
     17          1           0        3.910640    1.975483   -1.536989
     18          1           0        5.831426    3.089321   -0.350979
     19          1           0        4.799243    3.357085    1.061748
     20          1           0        4.440356    4.180717   -0.465387
     21          6           0       -1.111609   -1.665010    0.132574
     22          6           0       -1.525422   -0.987507    1.284213
     23          6           0       -2.623418   -0.123046    1.243482
     24          6           0       -3.287505    0.041158    0.028856
     25          6           0       -2.899424   -0.619665   -1.135616
     26          6           0       -1.798720   -1.479255   -1.071542
     27          1           0       -0.257607   -2.334651    0.173282
     28          1           0       -0.993698   -1.129837    2.220725
     29          1           0       -2.965141    0.413974    2.119982
     30          1           0       -3.449450   -0.457447   -2.054623
     31          1           0       -1.479587   -2.004100   -1.967498
     32          7           0       -4.451339    0.953745   -0.026620
     33          8           0       -5.019534    1.081239   -1.108995
     34          8           0       -4.773317    1.524258    1.013323
 ---------------------------------------------------------------------

 SCF Done:  E(RHF) =  -669.535580584     A.U. after   15 cycles
 E2 =    -0.2091086603D+01 EUMP2 =    -0.67162666718699D+03

 The electronic state is 1-A.
 Alpha  occ. eigenvalues --  -20.60758 -20.60753 -15.85812 -11.31181 -11.27750
 Alpha  occ. eigenvalues --  -11.27742 -11.27473 -11.26771 -11.26751 -11.22456
 Alpha  occ. eigenvalues --  -11.22227 -11.22107 -11.22018 -11.21914 -11.21393
 Alpha  occ. eigenvalues --   -1.59834  -1.39387  -1.19352  -1.09088  -1.08745
 Alpha  occ. eigenvalues --   -1.04755  -1.04203  -0.96671  -0.95581  -0.87690
 Alpha  occ. eigenvalues --   -0.86151  -0.82415  -0.80276  -0.78863  -0.77460
 Alpha  occ. eigenvalues --   -0.72030  -0.71157  -0.70478  -0.65720  -0.65003
 Alpha  occ. eigenvalues --   -0.64759  -0.62103  -0.61609  -0.60049  -0.58268
 Alpha  occ. eigenvalues --   -0.56054  -0.55211  -0.53354  -0.53084  -0.53077
 Alpha  occ. eigenvalues --   -0.52847  -0.50620  -0.48793  -0.48785  -0.48578
 Alpha  occ. eigenvalues --   -0.47301  -0.46411  -0.46312  -0.44792  -0.44435
 Alpha  occ. eigenvalues --   -0.37324  -0.36360
 Alpha virt. eigenvalues --    0.05056   0.11287   0.16474   0.19663   0.22528
 Alpha virt. eigenvalues --    0.23798   0.25329   0.26337   0.27065   0.27395
 Alpha virt. eigenvalues --    0.28823   0.30343   0.31015   0.31439   0.32371

 Mulliken charges:
               1
     1  C   -0.299459
     2  C   -0.299784
     3  C   -0.479178
     4  H    0.147618
     5  H    0.150357
     6  H    0.152645
     7  H    0.155979
     8  H    0.157584
     9  H    0.144317
    10  H    0.164798
    11  C   -0.298639
    12  C   -0.300335
    13  C   -0.476116
    14  H    0.149752
    15  H    0.151069
    16  H    0.153246
    17  H    0.152565
    18  H    0.155587
    19  H    0.155535
    20  H    0.162419
    21  C   -0.176778
    22  C   -0.221702
    23  C   -0.170834
    24  C    0.158481
    25  C   -0.170764
    26  C   -0.220742
    27  H    0.236641
    28  H    0.223209
    29  H    0.275517
    30  H    0.275588
    31  H    0.224319
    32  N    0.487984
    33  O   -0.460377
    34  O   -0.460504
 Sum of Mulliken charges =  -0.00000

 Dipole moment (field-independent basis, Debye):
    X=              4.2715    Y=             -3.1678    Z=              0.1616  Tot=              5.3204
 Quadrupole moment (field-independent basis, Debye-Ang):
   XX=           -121.6880   YY=            -96.3137   ZZ=            -89.3928
   XY=             10.3006   XZ=             -0.5247   YZ=              1.0428

 Normal termination of Gaussian 16 at Thu May  6 13:48:00 2021.
