 Gaussian 16, Revision A.03,
 Gaussian 16:  EM64L-G16RevA.03 25-Dec-2016

 -------------
 #p 6-31g* mp2
 -------------

 ------------------------------------------------------
 Input file generated by CHIRIPA (05-May-2021 14:51:07)
 ------------------------------------------------------
 Symbolic Z-matrix:
 Charge =  0 Multiplicity = 1

                         Standard orientation:
 ---------------------------------------------------------------------
 Center     Atomic      Atomic             Coordinates (Angstroms)
 Number     Number       Type             X           Y           Z
 ---------------------------------------------------------------------
      1          6           0        3.083253    1.223443    0.011198
      2          6           0        1.789010    2.029222    0.127989
      3          6           0        2.024441    3.457987    0.618905
      4          1           0        3.582001    1.198937    0.989766
      5          1           0        3.767869    1.740024   -0.675707
      6          1           0        1.106498    1.510561    0.813397
      7          1           0        1.293188    2.051651   -0.850925
      8          1           0        2.685213    3.997222   -0.067539
      9          1           0        2.497462    3.453058    1.606239
     10          1           0        1.086037    4.016068    0.695082
     11          6           0        2.864241   -0.206958   -0.478408
     12          6           0        4.158484   -1.012738   -0.595199
     13          6           0        3.923053   -2.441502   -1.086116
     14          1           0        2.179625   -0.723540    0.208497
     15          1           0        2.365493   -0.182453   -1.456976
     16          1           0        4.654306   -1.035167    0.383715
     17          1           0        4.840996   -0.494076   -1.280607
     18          1           0        3.450032   -2.436574   -2.073449
     19          1           0        3.262282   -2.980738   -0.399671
     20          1           0        4.861457   -2.999584   -1.162292
     21          6           0       -2.655446   -0.966514    0.755241
     22          6           0       -1.128257   -0.893832    0.775103
     23          6           0       -0.506126   -1.816253    1.823856
     24          1           0       -3.041559   -0.705854    1.750187
     25          1           0       -2.963749   -2.003356    0.562097
     26          1           0       -0.822921    0.142820    0.966776
     27          1           0       -0.745743   -1.154510   -0.220059
     28          1           0       -0.782008   -2.858325    1.632607
     29          1           0       -0.859625   -1.553624    2.826186
     30          1           0        0.586237   -1.748458    1.820784
     31          6           0       -3.292048   -0.049970   -0.288030
     32          6           0       -4.819237   -0.122652   -0.307892
     33          6           0       -5.441368    0.799769   -1.356647
     34          1           0       -2.983745    0.986871   -0.094887
     35          1           0       -2.905935   -0.310631   -1.282977
     36          1           0       -5.201751    0.138025    0.687270
     37          1           0       -5.124573   -1.159305   -0.499567
     38          1           0       -5.087869    0.537140   -2.358977
     39          1           0       -5.165486    1.841840   -1.165397
     40          1           0       -6.533731    0.731973   -1.353574
 ---------------------------------------------------------------------

 SCF Done:  E(RHF) =  -470.732741789     A.U. after   11 cycles
 E2 =    -0.1584012922D+01 EUMP2 =    -0.47231675471043D+03

 The electronic state is 1-A.
 Alpha  occ. eigenvalues --  -11.21597 -11.21592 -11.21561 -11.21557 -11.21396
 Alpha  occ. eigenvalues --  -11.21382 -11.21336 -11.21321 -11.21114 -11.21069
 Alpha  occ. eigenvalues --  -11.21069 -11.21064  -1.08454  -1.08389  -1.03543
 Alpha  occ. eigenvalues --   -1.03512  -0.96006  -0.95956  -0.87023  -0.86970
 Alpha  occ. eigenvalues --   -0.79683  -0.79513  -0.78376  -0.78083  -0.65120
 Alpha  occ. eigenvalues --   -0.65013  -0.61045  -0.60819  -0.59386  -0.59326
 Alpha  occ. eigenvalues --   -0.57686  -0.57511  -0.55288  -0.55246  -0.52719
 Alpha  occ. eigenvalues --   -0.52651  -0.52479  -0.52330  -0.49976  -0.49877
 Alpha  occ. eigenvalues --   -0.48133  -0.47761  -0.46814  -0.46433  -0.45994
 Alpha  occ. eigenvalues --   -0.45757  -0.45657  -0.45339  -0.43784  -0.43767
 Alpha virt. eigenvalues --    0.20726   0.23088   0.23854   0.24086   0.25954
 Alpha virt. eigenvalues --    0.26438   0.26614   0.27809   0.28102   0.29589
 Alpha virt. eigenvalues --    0.29887   0.31423   0.31634   0.31951   0.32514

 Mulliken charges:
               1
     1  C   -0.297605
     2  C   -0.305744
     3  C   -0.475255
     4  H    0.149099
     5  H    0.149459
     6  H    0.158430
     7  H    0.152055
     8  H    0.155206
     9  H    0.154936
    10  H    0.159705
    11  C   -0.306805
    12  C   -0.299302
    13  C   -0.475860
    14  H    0.158697
    15  H    0.149505
    16  H    0.151664
    17  H    0.151959
    18  H    0.155018
    19  H    0.155161
    20  H    0.160297
    21  C   -0.297910
    22  C   -0.305194
    23  C   -0.480308
    24  H    0.149307
    25  H    0.149401
    26  H    0.157388
    27  H    0.153681
    28  H    0.155832
    29  H    0.155263
    30  H    0.161849
    31  C   -0.298226
    32  C   -0.299649
    33  C   -0.475695
    34  H    0.149607
    35  H    0.149678
    36  H    0.151885
    37  H    0.151930
    38  H    0.155145
    39  H    0.155158
    40  H    0.160236
 Sum of Mulliken charges =  -0.00000

 Dipole moment (field-independent basis, Debye):
    X=             -0.0117    Y=             -0.0017    Z=             -0.0062  Tot=              0.0133
 Quadrupole moment (field-independent basis, Debye-Ang):
   XX=            -85.2611   YY=            -85.6870   ZZ=            -83.9958
   XY=              0.3336   XZ=             -0.5529   YZ=              0.3057

 Normal termination of Gaussian 16 at Wed May  5 15:01:49 2021.
