 Gaussian 16, Revision A.03,
 Gaussian 16:  EM64L-G16RevA.03 25-Dec-2016

 -------------
 #p 6-31g* mp2
 -------------

 ------------------------------------------------------
 Input file generated by CHIRIPA (05-May-2021 14:53:17)
 ------------------------------------------------------
 Symbolic Z-matrix:
 Charge =  0 Multiplicity = 1

                         Standard orientation:
 ---------------------------------------------------------------------
 Center     Atomic      Atomic             Coordinates (Angstroms)
 Number     Number       Type             X           Y           Z
 ---------------------------------------------------------------------
      1          6           0        2.741076    0.592491   -0.092169
      2          6           0        3.406752    1.912832    0.297140
      3          6           0        2.544643    3.130590   -0.036966
      4          1           0        2.520953    0.603530   -1.168444
      5          1           0        1.774335    0.511181    0.423773
      6          1           0        4.372579    1.990992   -0.218307
      7          1           0        3.625490    1.898571    1.372578
      8          1           0        1.585717    3.079672    0.488836
      9          1           0        2.337050    3.172618   -1.111089
     10          1           0        3.039603    4.063708    0.249678
     11          6           0        3.590701   -0.634072    0.235564
     12          6           0        2.925025   -1.954412   -0.153745
     13          6           0        3.787134   -3.172170    0.180361
     14          1           0        4.557442   -0.552761   -0.280378
     15          1           0        3.810824   -0.645110    1.311839
     16          1           0        2.706287   -1.940152   -1.229183
     17          1           0        1.959198   -2.032573    0.361703
     18          1           0        3.994727   -3.214199    1.254484
     19          1           0        4.746060   -3.121252   -0.345441
     20          1           0        3.292174   -4.105289   -0.106283
     21          6           0       -1.761194    2.435630   -0.128959
     22          6           0       -0.871001    1.431682   -0.524140
     23          6           0       -1.254818    0.087839   -0.487839
     24          6           0       -2.542199   -0.217656   -0.048962
     25          6           0       -3.451920    0.759863    0.351233
     26          6           0       -3.046546    2.097113    0.306699
     27          1           0       -1.454662    3.476998   -0.160355
     28          1           0        0.127845    1.691639   -0.862923
     29          1           0       -0.585780   -0.709448   -0.788071
     30          1           0       -4.441038    0.469755    0.684250
     31          1           0       -3.739989    2.874688    0.614200
     32          7           0       -2.959940   -1.636831   -0.006173
     33          8           0       -4.099681   -1.879825    0.384445
     34          8           0       -2.139715   -2.479317   -0.364065
 ---------------------------------------------------------------------

 SCF Done:  E(RHF) =  -669.534250835     A.U. after   15 cycles
 E2 =    -0.2094165114D+01 EUMP2 =    -0.67162841594872D+03

 The electronic state is 1-A.
 Alpha  occ. eigenvalues --  -20.60711 -20.60706 -15.85760 -11.31103 -11.27667
 Alpha  occ. eigenvalues --  -11.27610 -11.27370 -11.26689 -11.26506 -11.22492
 Alpha  occ. eigenvalues --  -11.22256 -11.22230 -11.21938 -11.21877 -11.21190
 Alpha  occ. eigenvalues --   -1.59786  -1.39340  -1.19262  -1.09144  -1.08657
 Alpha  occ. eigenvalues --   -1.04662  -1.04164  -0.96654  -0.95501  -0.87673
 Alpha  occ. eigenvalues --   -0.86063  -0.82359  -0.80298  -0.78983  -0.77325
 Alpha  occ. eigenvalues --   -0.71979  -0.71109  -0.70365  -0.65763  -0.64908
 Alpha  occ. eigenvalues --   -0.64686  -0.62046  -0.61536  -0.60005  -0.58250
 Alpha  occ. eigenvalues --   -0.55954  -0.55153  -0.53302  -0.53113  -0.53008
 Alpha  occ. eigenvalues --   -0.52749  -0.50597  -0.48774  -0.48736  -0.48466
 Alpha  occ. eigenvalues --   -0.47306  -0.46401  -0.46313  -0.44750  -0.44416
 Alpha  occ. eigenvalues --   -0.37241  -0.36210
 Alpha virt. eigenvalues --    0.05093   0.11269   0.16496   0.20528   0.22604
 Alpha virt. eigenvalues --    0.23238   0.25031   0.25883   0.26368   0.28359
 Alpha virt. eigenvalues --    0.29825   0.30106   0.31054   0.31253   0.32289

 Mulliken charges:
               1
     1  C   -0.312785
     2  C   -0.295879
     3  C   -0.487466
     4  H    0.144756
     5  H    0.153967
     6  H    0.156072
     7  H    0.156690
     8  H    0.153392
     9  H    0.152107
    10  H    0.167057
    11  C   -0.297062
    12  C   -0.304247
    13  C   -0.476354
    14  H    0.151318
    15  H    0.152637
    16  H    0.151337
    17  H    0.157311
    18  H    0.156248
    19  H    0.154737
    20  H    0.166097
    21  C   -0.176271
    22  C   -0.224796
    23  C   -0.177935
    24  C    0.158534
    25  C   -0.171551
    26  C   -0.218313
    27  H    0.226251
    28  H    0.240668
    29  H    0.278938
    30  H    0.275116
    31  H    0.222964
    32  N    0.487975
    33  O   -0.460752
    34  O   -0.460758
 Sum of Mulliken charges =  -0.00000

 Dipole moment (field-independent basis, Debye):
    X=              1.6934    Y=              4.9119    Z=             -0.0749  Tot=              5.1961
 Quadrupole moment (field-independent basis, Debye-Ang):
   XX=            -97.8048   YY=            -97.7082   ZZ=            -94.1248
   XY=            -14.1620   XZ=             -1.6989   YZ=              0.5177

 Normal termination of Gaussian 16 at Thu May  6 15:36:53 2021.
