 Gaussian 16, Revision A.03,
 Gaussian 16:  EM64L-G16RevA.03 25-Dec-2016

 -------------
 #p 6-31g* mp2
 -------------

 ------------------------------------------------------
 Input file generated by CHIRIPA (05-May-2021 14:57:25)
 ------------------------------------------------------
 Symbolic Z-matrix:
 Charge =  0 Multiplicity = 1

                         Standard orientation:
 ---------------------------------------------------------------------
 Center     Atomic      Atomic             Coordinates (Angstroms)
 Number     Number       Type             X           Y           Z
 ---------------------------------------------------------------------
      1          6           0       -5.460215    0.817034    0.241252
      2          6           0       -5.029296   -0.342704    0.893814
      3          6           0       -3.746995   -0.850892    0.665787
      4          6           0       -2.918051   -0.170957   -0.225184
      5          6           0       -3.318386    0.986728   -0.890606
      6          6           0       -4.604893    1.476886   -0.647308
      7          1           0       -6.457971    1.204804    0.424321
      8          1           0       -5.691402   -0.857235    1.584407
      9          1           0       -3.387803   -1.746774    1.157514
     10          1           0       -2.635722    1.477702   -1.573492
     11          1           0       -4.936868    2.377758   -1.155507
     12          7           0       -1.558310   -0.699408   -0.474669
     13          8           0       -0.847126   -0.081864   -1.264285
     14          8           0       -1.229475   -1.721148    0.124125
     15          6           0        3.484813    2.573813    0.404627
     16          6           0        4.315175    1.824644   -0.435472
     17          6           0        4.134482    0.444421   -0.565400
     18          6           0        3.109026   -0.156858    0.162742
     19          6           0        2.265284    0.562296    1.007849
     20          6           0        2.464317    1.941363    1.122341
     21          1           0        3.632305    3.645555    0.499563
     22          1           0        5.108513    2.313145   -0.994067
     23          1           0        4.762822   -0.159615   -1.208633
     24          1           0        1.482935    0.047221    1.551951
     25          1           0        1.817928    2.520656    1.775522
     26          7           0        2.908025   -1.617427    0.033364
     27          8           0        1.997430   -2.123418    0.685610
     28          8           0        3.664884   -2.228572   -0.717838
 ---------------------------------------------------------------------

 SCF Done:  E(RHF) =  -868.336080908     A.U. after   16 cycles
 E2 =    -0.2601036981D+01 EUMP2 =    -0.87093711788907D+03

 The electronic state is 1-A.
 Alpha  occ. eigenvalues --  -20.60590 -20.60511 -20.59332 -20.59185 -15.85592
 Alpha  occ. eigenvalues --  -15.84310 -11.31139 -11.29971 -11.27743 -11.27701
 Alpha  occ. eigenvalues --  -11.27496 -11.26786 -11.26755 -11.26632 -11.26588
 Alpha  occ. eigenvalues --  -11.26481 -11.25739 -11.25727  -1.59629  -1.58319
 Alpha  occ. eigenvalues --   -1.39171  -1.37865  -1.19328  -1.18193  -1.08689
 Alpha  occ. eigenvalues --   -1.07549  -1.04751  -1.03667  -0.95489  -0.94333
 Alpha  occ. eigenvalues --   -0.86140  -0.85055  -0.82313  -0.81178  -0.77341
 Alpha  occ. eigenvalues --   -0.76155  -0.71786  -0.70997  -0.70529  -0.70426
 Alpha  occ. eigenvalues --   -0.69618  -0.69352  -0.64969  -0.64749  -0.63867
 Alpha  occ. eigenvalues --   -0.63715  -0.62092  -0.61026  -0.55242  -0.54210
 Alpha  occ. eigenvalues --   -0.53081  -0.52840  -0.51949  -0.51795  -0.48595
 Alpha  occ. eigenvalues --   -0.48536  -0.47344  -0.47265  -0.44530  -0.43162
 Alpha  occ. eigenvalues --   -0.37324  -0.36367  -0.36193  -0.35261
 Alpha virt. eigenvalues --    0.05167   0.06436   0.11284   0.12383   0.16643
 Alpha virt. eigenvalues --    0.17831   0.21429   0.22317   0.27330   0.28154
 Alpha virt. eigenvalues --    0.28352   0.29241   0.30967   0.31798   0.32586

 Mulliken charges:
               1
     1  C   -0.171414
     2  C   -0.218652
     3  C   -0.171896
     4  C    0.157291
     5  C   -0.172390
     6  C   -0.218723
     7  H    0.225136
     8  H    0.223776
     9  H    0.278157
    10  H    0.274551
    11  H    0.222426
    12  N    0.484312
    13  O   -0.465390
    14  O   -0.445873
    15  C   -0.171829
    16  C   -0.218909
    17  C   -0.170862
    18  C    0.164343
    19  C   -0.162688
    20  C   -0.219056
    21  H    0.219948
    22  H    0.218823
    23  H    0.273260
    24  H    0.276091
    25  H    0.216880
    26  N    0.488730
    27  O   -0.447180
    28  O   -0.468862
 Sum of Mulliken charges =  -0.00000

 Dipole moment (field-independent basis, Debye):
    X=             -4.3296    Y=              6.6435    Z=              1.3777  Tot=              8.0486
 Quadrupole moment (field-independent basis, Debye-Ang):
   XX=            -71.8138   YY=           -105.4974   ZZ=           -102.1796
   XY=             11.6334   XZ=             -3.6244   YZ=             -2.6654

 Normal termination of Gaussian 16 at Fri May  7 09:37:57 2021.
