 Gaussian 16, Revision A.03,
 Gaussian 16:  EM64L-G16RevA.03 25-Dec-2016

 -------------
 #p 6-31g* mp2
 -------------

 ------------------------------------------------------
 Input file generated by CHIRIPA (05-May-2021 14:51:08)
 ------------------------------------------------------
 Symbolic Z-matrix:
 Charge =  0 Multiplicity = 1

                         Standard orientation:
 ---------------------------------------------------------------------
 Center     Atomic      Atomic             Coordinates (Angstroms)
 Number     Number       Type             X           Y           Z
 ---------------------------------------------------------------------
      1          6           0        5.004005   -0.677605    0.132686
      2          6           0        6.512655   -0.671953   -0.116167
      3          6           0        7.172839   -2.008577    0.223522
      4          1           0        4.813470   -0.925098    1.185962
      5          1           0        4.543921   -1.477091   -0.464423
      6          1           0        6.969579    0.128180    0.480176
      7          1           0        6.699628   -0.424256   -1.168927
      8          1           0        6.744177   -2.814566   -0.380822
      9          1           0        7.015662   -2.258991    1.277651
     10          1           0        8.251183   -1.982302    0.038200
     11          6           0        4.329776    0.651668   -0.202241
     12          6           0        2.821126    0.646016    0.046613
     13          6           0        2.160942    1.982640   -0.293076
     14          1           0        4.789860    1.451154    0.394869
     15          1           0        4.520311    0.899161   -1.255516
     16          1           0        2.634153    0.398319    1.099373
     17          1           0        2.364202   -0.154117   -0.549730
     18          1           0        2.318119    2.233054   -1.347206
     19          1           0        2.589604    2.788629    0.311267
     20          1           0        1.082598    1.956365   -0.107754
     21          6           0       -5.033267   -0.577477   -0.282360
     22          6           0       -6.384169   -0.873886    0.369705
     23          6           0       -7.105050   -2.057761   -0.275712
     24          1           0       -5.185566   -0.377122   -1.351756
     25          1           0       -4.399230   -1.472692   -0.219271
     26          1           0       -7.014971    0.022064    0.306635
     27          1           0       -6.228658   -1.073369    1.437712
     28          1           0       -6.498433   -2.965987   -0.199938
     29          1           0       -7.289215   -1.864329   -1.337441
     30          1           0       -8.068487   -2.252123    0.205822
     31          6           0       -4.300515    0.603413    0.351914
     32          6           0       -2.949612    0.899823   -0.300151
     33          6           0       -2.228730    2.083698    0.345266
     34          1           0       -4.934551    1.498629    0.288825
     35          1           0       -4.148214    0.403059    1.421310
     36          1           0       -3.105124    1.099307   -1.368158
     37          1           0       -2.318810    0.003872   -0.237081
     38          1           0       -2.044567    1.890266    1.406995
     39          1           0       -2.835348    2.991924    0.269491
     40          1           0       -1.265294    2.278061   -0.136268
 ---------------------------------------------------------------------

 SCF Done:  E(RHF) =  -470.733324418     A.U. after   11 cycles
 E2 =    -0.1582123436D+01 EUMP2 =    -0.47231544785409D+03

 The electronic state is 1-A.
 Alpha  occ. eigenvalues --  -11.21609 -11.21603 -11.21598 -11.21593 -11.21408
 Alpha  occ. eigenvalues --  -11.21399 -11.21348 -11.21339 -11.21075 -11.21072
 Alpha  occ. eigenvalues --  -11.21069 -11.21041  -1.08435  -1.08422  -1.03544
 Alpha  occ. eigenvalues --   -1.03513  -0.96014  -0.95946  -0.87050  -0.86946
 Alpha  occ. eigenvalues --   -0.79620  -0.79562  -0.78245  -0.78235  -0.65063
 Alpha  occ. eigenvalues --   -0.65053  -0.60931  -0.60917  -0.59621  -0.59151
 Alpha  occ. eigenvalues --   -0.57724  -0.57445  -0.55270  -0.55255  -0.52988
 Alpha  occ. eigenvalues --   -0.52515  -0.52441  -0.52200  -0.49924  -0.49910
 Alpha  occ. eigenvalues --   -0.47975  -0.47836  -0.46628  -0.46618  -0.45788
 Alpha  occ. eigenvalues --   -0.45777  -0.45712  -0.45702  -0.43954  -0.43590
 Alpha virt. eigenvalues --    0.22004   0.22998   0.23433   0.24944   0.26628
 Alpha virt. eigenvalues --    0.26671   0.26826   0.27504   0.27555   0.28698
 Alpha virt. eigenvalues --    0.30075   0.31394   0.31437   0.31884   0.31974

 Mulliken charges:
               1
     1  C   -0.298212
     2  C   -0.299633
     3  C   -0.475698
     4  H    0.149595
     5  H    0.149472
     6  H    0.151944
     7  H    0.151947
     8  H    0.155161
     9  H    0.155154
    10  H    0.160249
    11  C   -0.298567
    12  C   -0.298751
    13  C   -0.483939
    14  H    0.149565
    15  H    0.149633
    16  H    0.151899
    17  H    0.151747
    18  H    0.154932
    19  H    0.155454
    20  H    0.167737
    21  C   -0.298272
    22  C   -0.299657
    23  C   -0.475709
    24  H    0.149655
    25  H    0.149546
    26  H    0.151945
    27  H    0.151954
    28  H    0.155185
    29  H    0.155178
    30  H    0.160262
    31  C   -0.298462
    32  C   -0.299329
    33  C   -0.482979
    34  H    0.149612
    35  H    0.149673
    36  H    0.152011
    37  H    0.152067
    38  H    0.155183
    39  H    0.155654
    40  H    0.166793
 Sum of Mulliken charges =  -0.00000

 Dipole moment (field-independent basis, Debye):
    X=             -0.0117    Y=              0.0049    Z=              0.0013  Tot=              0.0127
 Quadrupole moment (field-independent basis, Debye-Ang):
   XX=            -85.3966   YY=            -85.7881   ZZ=            -83.5813
   XY=             -0.2394   XZ=              0.1234   YZ=             -0.2334

 Normal termination of Gaussian 16 at Thu May  6 00:30:52 2021.
