 Gaussian 16, Revision A.03,
 Gaussian 16:  EM64L-G16RevA.03 25-Dec-2016

 -------------
 #p 6-31g* mp2
 -------------

 ------------------------------------------------------
 Input file generated by CHIRIPA (05-May-2021 14:57:23)
 ------------------------------------------------------
 Symbolic Z-matrix:
 Charge =  0 Multiplicity = 1

                         Standard orientation:
 ---------------------------------------------------------------------
 Center     Atomic      Atomic             Coordinates (Angstroms)
 Number     Number       Type             X           Y           Z
 ---------------------------------------------------------------------
      1          6           0       -2.075628    0.897252    0.349324
      2          6           0       -3.081549    1.826871    0.065679
      3          6           0       -4.405019    1.410552   -0.106521
      4          6           0       -4.688350    0.050819    0.012386
      5          6           0       -3.708283   -0.899617    0.294222
      6          6           0       -2.391649   -0.460631    0.462490
      7          1           0       -1.050180    1.229462    0.481566
      8          1           0       -2.839039    2.882053   -0.022776
      9          1           0       -5.203319    2.108849   -0.326785
     10          1           0       -3.980755   -1.944808    0.376399
     11          1           0       -1.612487   -1.184827    0.682701
     12          7           0       -6.085830   -0.401917   -0.167833
     13          8           0       -6.309503   -1.605473   -0.058010
     14          8           0       -6.931040    0.455356   -0.415500
     15          6           0        6.912841    0.456565   -0.075129
     16          6           0        6.510064   -0.882020   -0.124930
     17          6           0        5.152646   -1.216162   -0.107208
     18          6           0        4.220706   -0.181701   -0.038895
     19          6           0        4.590564    1.161398    0.011898
     20          6           0        5.953498    1.472212   -0.006994
     21          1           0        7.969458    0.707074   -0.089350
     22          1           0        7.252895   -1.672870   -0.177885
     23          1           0        4.813089   -2.244127   -0.144727
     24          1           0        3.826803    1.927783    0.064267
     25          1           0        6.263391    2.512647    0.031791
     26          7           0        2.780749   -0.523093   -0.019513
     27          8           0        1.979355    0.406820    0.041024
     28          8           0        2.480771   -1.714127   -0.065227
 ---------------------------------------------------------------------

 SCF Done:  E(RHF) =  -868.340788421     A.U. after   16 cycles
 E2 =    -0.2598000340D+01 EUMP2 =    -0.87093878876056D+03

 The electronic state is 1-A.
 Alpha  occ. eigenvalues --  -20.61930 -20.61901 -20.59923 -20.59915 -15.86940
 Alpha  occ. eigenvalues --  -15.84967 -11.31987 -11.30100 -11.28531 -11.28500
 Alpha  occ. eigenvalues --  -11.28192 -11.27462 -11.27442 -11.26695 -11.26611
 Alpha  occ. eigenvalues --  -11.26130 -11.25612 -11.25422  -1.60974  -1.59003
 Alpha  occ. eigenvalues --   -1.40537  -1.38563  -1.20127  -1.18231  -1.09580
 Alpha  occ. eigenvalues --   -1.07625  -1.05482  -1.03606  -0.96470  -0.94507
 Alpha  occ. eigenvalues --   -0.86895  -0.84984  -0.83318  -0.81361  -0.78397
 Alpha  occ. eigenvalues --   -0.76477  -0.73189  -0.72264  -0.71230  -0.71189
 Alpha  occ. eigenvalues --   -0.70325  -0.69219  -0.65784  -0.65481  -0.63858
 Alpha  occ. eigenvalues --   -0.63569  -0.62835  -0.60962  -0.55991  -0.53949
 Alpha  occ. eigenvalues --   -0.53826  -0.53568  -0.51948  -0.51666  -0.49945
 Alpha  occ. eigenvalues --   -0.49902  -0.47959  -0.47922  -0.46007  -0.44022
 Alpha  occ. eigenvalues --   -0.38083  -0.37070  -0.36141  -0.35233
 Alpha virt. eigenvalues --    0.04122   0.06055   0.10590   0.12441   0.15684
 Alpha virt. eigenvalues --    0.17632   0.20751   0.22770   0.26692   0.27588
 Alpha virt. eigenvalues --    0.28554   0.29612   0.30398   0.31758   0.32396

 Mulliken charges:
               1
     1  C   -0.175501
     2  C   -0.220499
     3  C   -0.172485
     4  C    0.156987
     5  C   -0.172899
     6  C   -0.221789
     7  H    0.244567
     8  H    0.218958
     9  H    0.271291
    10  H    0.272832
    11  H    0.234512
    12  N    0.488301
    13  O   -0.462797
    14  O   -0.463993
    15  C   -0.169590
    16  C   -0.218488
    17  C   -0.170026
    18  C    0.157669
    19  C   -0.170261
    20  C   -0.218407
    21  H    0.228322
    22  H    0.226060
    23  H    0.276783
    24  H    0.273779
    25  H    0.225366
    26  N    0.492277
    27  O   -0.472605
    28  O   -0.458366
 Sum of Mulliken charges =  -0.00000

 Dipole moment (field-independent basis, Debye):
    X=             10.7249    Y=              2.7083    Z=              0.5890  Tot=             11.0773
 Quadrupole moment (field-independent basis, Debye-Ang):
   XX=           -109.0394   YY=            -95.9996   ZZ=           -106.4398
   XY=             -5.7344   XZ=             -3.3319   YZ=             -0.5875

 Normal termination of Gaussian 16 at Thu May  6 00:13:50 2021.
