 Gaussian 16, Revision A.03,
 Gaussian 16:  EM64L-G16RevA.03 25-Dec-2016

 -------------
 #p 6-31g* mp2
 -------------

 ------------------------------------------------------
 Input file generated by CHIRIPA (05-May-2021 14:53:17)
 ------------------------------------------------------
 Symbolic Z-matrix:
 Charge =  0 Multiplicity = 1

                         Standard orientation:
 ---------------------------------------------------------------------
 Center     Atomic      Atomic             Coordinates (Angstroms)
 Number     Number       Type             X           Y           Z
 ---------------------------------------------------------------------
      1          6           0       -3.657510    0.502294    0.635130
      2          6           0       -3.045609    1.781017    0.062041
      3          6           0       -2.263732    2.580924    1.104448
      4          1           0       -4.320081    0.763391    1.471654
      5          1           0       -2.857031   -0.123221    1.053890
      6          1           0       -3.846850    2.403304   -0.356751
      7          1           0       -2.384566    1.516862   -0.773339
      8          1           0       -1.444876    1.981512    1.515276
      9          1           0       -2.915468    2.872991    1.934230
     10          1           0       -1.834898    3.490931    0.673347
     11          6           0       -4.442281   -0.308208   -0.394893
     12          6           0       -5.054182   -1.586931    0.178195
     13          6           0       -5.836058   -2.386838   -0.864212
     14          1           0       -5.242760    0.317306   -0.813653
     15          1           0       -3.779710   -0.569305   -1.231418
     16          1           0       -5.715225   -1.322776    1.013575
     17          1           0       -4.252941   -2.209219    0.596988
     18          1           0       -5.184322   -2.678905   -1.693994
     19          1           0       -6.654915   -1.787426   -1.275039
     20          1           0       -6.264892   -3.296846   -0.433111
     21          6           0        5.231708   -1.428342    0.417137
     22          6           0        4.077446   -1.595410    1.189335
     23          6           0        2.925996   -0.851370    0.915266
     24          6           0        2.964081    0.054942   -0.143242
     25          6           0        4.098690    0.244004   -0.930775
     26          6           0        5.238633   -0.510785   -0.638591
     27          1           0        6.121712   -2.010504    0.637077
     28          1           0        4.069183   -2.307268    2.009843
     29          1           0        2.018809   -0.960762    1.497039
     30          1           0        4.076536    0.961291   -1.742209
     31          1           0        6.133623   -0.378946   -1.239970
     32          7           0        1.751183    0.848315   -0.442975
     33          8           0        1.810393    1.640300   -1.381000
     34          8           0        0.764269    0.663152    0.265794
 ---------------------------------------------------------------------

 SCF Done:  E(RHF) =  -669.536233464     A.U. after   15 cycles
 E2 =    -0.2091125640D+01 EUMP2 =    -0.67162735910368D+03

 The electronic state is 1-A.
 Alpha  occ. eigenvalues --  -20.61011 -20.61005 -15.86042 -11.31341 -11.27903
 Alpha  occ. eigenvalues --  -11.27897 -11.27634 -11.26903 -11.26894 -11.20891
 Alpha  occ. eigenvalues --  -11.20502 -11.20431 -11.20162 -11.20015 -11.19300
 Alpha  occ. eigenvalues --   -1.60066  -1.39624  -1.19507  -1.08914  -1.07332
 Alpha  occ. eigenvalues --   -1.04900  -1.02364  -0.95762  -0.94830  -0.86301
 Alpha  occ. eigenvalues --   -0.85861  -0.82596  -0.78504  -0.77652  -0.77084
 Alpha  occ. eigenvalues --   -0.72272  -0.71379  -0.70615  -0.65165  -0.64903
 Alpha  occ. eigenvalues --   -0.63954  -0.62248  -0.59733  -0.58283  -0.56428
 Alpha  occ. eigenvalues --   -0.55405  -0.54109  -0.53232  -0.52990  -0.51546
 Alpha  occ. eigenvalues --   -0.51271  -0.49101  -0.49015  -0.48672  -0.46798
 Alpha  occ. eigenvalues --   -0.45558  -0.45024  -0.44633  -0.44472  -0.42644
 Alpha  occ. eigenvalues --   -0.37484  -0.36500
 Alpha virt. eigenvalues --    0.04870   0.11155   0.16367   0.21276   0.23871
 Alpha virt. eigenvalues --    0.25492   0.27209   0.27630   0.28223   0.28550
 Alpha virt. eigenvalues --    0.29196   0.30862   0.32265   0.32679   0.32698

 Mulliken charges:
               1
     1  C   -0.298259
     2  C   -0.298026
     3  C   -0.477088
     4  H    0.144033
     5  H    0.152157
     6  H    0.143676
     7  H    0.164083
     8  H    0.172188
     9  H    0.142495
    10  H    0.158481
    11  C   -0.297774
    12  C   -0.298529
    13  C   -0.475012
    14  H    0.147141
    15  H    0.150604
    16  H    0.150043
    17  H    0.149909
    18  H    0.154378
    19  H    0.154405
    20  H    0.157186
    21  C   -0.170523
    22  C   -0.218517
    23  C   -0.170714
    24  C    0.157659
    25  C   -0.170513
    26  C   -0.218574
    27  H    0.226179
    28  H    0.223998
    29  H    0.275413
    30  H    0.275979
    31  H    0.223990
    32  N    0.491705
    33  O   -0.458576
    34  O   -0.463595
 Sum of Mulliken charges =  -0.00000

 Dipole moment (field-independent basis, Debye):
    X=              4.6895    Y=             -2.8015    Z=              0.9908  Tot=              5.5517
 Quadrupole moment (field-independent basis, Debye-Ang):
   XX=            -69.7694   YY=            -95.4040   ZZ=            -93.0747
   XY=             -7.7934   XZ=              0.0993   YZ=             -2.1464

 Normal termination of Gaussian 16 at Thu May  6 02:46:14 2021.
