 Gaussian 16, Revision A.03,
 Gaussian 16:  EM64L-G16RevA.03 25-Dec-2016

 -------------
 #p 6-31g* mp2
 -------------

 ------------------------------------------------------
 Input file generated by CHIRIPA (05-May-2021 14:55:21)
 ------------------------------------------------------
 Symbolic Z-matrix:
 Charge =  0 Multiplicity = 1

                         Standard orientation:
 ---------------------------------------------------------------------
 Center     Atomic      Atomic             Coordinates (Angstroms)
 Number     Number       Type             X           Y           Z
 ---------------------------------------------------------------------
      1          6           0       -4.255702    2.425519    0.060429
      2          6           0       -5.142096    1.429873   -0.363266
      3          6           0       -4.727508    0.097068   -0.442613
      4          6           0       -3.413564   -0.205973   -0.089049
      5          6           0       -2.506841    0.763460    0.336796
      6          6           0       -2.943218    2.089727    0.408495
      7          1           0       -4.586227    3.458334    0.119097
      8          1           0       -6.161969    1.687739   -0.634205
      9          1           0       -5.392911   -0.693628   -0.767353
     10          1           0       -1.496304    0.475691    0.600276
     11          1           0       -2.252652    2.860872    0.737885
     12          7           0       -2.963124   -1.613493   -0.169001
     13          8           0       -1.800368   -1.854540    0.148066
     14          8           0       -3.781355   -2.449008   -0.547220
     15          6           0        3.727242   -0.113715   -0.086137
     16          6           0        2.861576   -0.593704    1.079289
     17          6           0        1.389389   -0.749803    0.697070
     18          1           0        3.338276    0.846211   -0.452459
     19          1           0        3.637004   -0.825574   -0.918308
     20          1           0        2.954504    0.118125    1.909519
     21          1           0        3.252763   -1.552506    1.443003
     22          1           0        1.277063   -1.475435   -0.114991
     23          1           0        0.977108    0.204687    0.354176
     24          1           0        0.788788   -1.093781    1.544900
     25          6           0        5.201530    0.047146    0.280369
     26          6           0        6.067196    0.527135   -0.885057
     27          6           0        7.539383    0.683233   -0.502838
     28          1           0        5.291768    0.759006    1.112540
     29          1           0        5.590495   -0.912780    0.646691
     30          1           0        5.676008    1.485936   -1.248771
     31          1           0        5.974268   -0.184693   -1.715287
     32          1           0        7.951663   -0.271256   -0.159944
     33          1           0        7.651708    1.408866    0.309222
     34          1           0        8.139984    1.027213   -1.350668
 ---------------------------------------------------------------------

 SCF Done:  E(RHF) =  -669.535400686     A.U. after   15 cycles
 E2 =    -0.2091701779D+01 EUMP2 =    -0.67162710246489D+03

 The electronic state is 1-A.
 Alpha  occ. eigenvalues --  -20.60758 -20.60752 -15.85800 -11.31146 -11.27731
 Alpha  occ. eigenvalues --  -11.27674 -11.27478 -11.26744 -11.26728 -11.21457
 Alpha  occ. eigenvalues --  -11.21233 -11.21195 -11.21108 -11.20956 -11.20518
 Alpha  occ. eigenvalues --   -1.59832  -1.39384  -1.19326  -1.08729  -1.08192
 Alpha  occ. eigenvalues --   -1.04728  -1.03257  -0.95727  -0.95533  -0.86713
 Alpha  occ. eigenvalues --   -0.86123  -0.82397  -0.79338  -0.78019  -0.77410
 Alpha  occ. eigenvalues --   -0.72021  -0.71151  -0.70442  -0.64983  -0.64845
 Alpha  occ. eigenvalues --   -0.64724  -0.62093  -0.60653  -0.59056  -0.57303
 Alpha  occ. eigenvalues --   -0.55273  -0.54968  -0.53061  -0.52864  -0.52321
 Alpha  occ. eigenvalues --   -0.52097  -0.49643  -0.48780  -0.48762  -0.47634
 Alpha  occ. eigenvalues --   -0.46369  -0.45549  -0.45474  -0.44777  -0.43484
 Alpha  occ. eigenvalues --   -0.37315  -0.36331
 Alpha virt. eigenvalues --    0.05071   0.11310   0.16559   0.21053   0.23093
 Alpha virt. eigenvalues --    0.24369   0.26095   0.27016   0.27755   0.27765
 Alpha virt. eigenvalues --    0.29422   0.30755   0.31513   0.31905   0.32366

 Mulliken charges:
               1
     1  C   -0.170301
     2  C   -0.219145
     3  C   -0.170160
     4  C    0.155270
     5  C   -0.176651
     6  C   -0.221998
     7  H    0.225392
     8  H    0.223241
     9  H    0.275392
    10  H    0.289916
    11  H    0.223403
    12  N    0.490648
    13  O   -0.463432
    14  O   -0.460607
    15  C   -0.297972
    16  C   -0.302010
    17  C   -0.472462
    18  H    0.145984
    19  H    0.151591
    20  H    0.146938
    21  H    0.154019
    22  H    0.169533
    23  H    0.137069
    24  H    0.168028
    25  C   -0.297879
    26  C   -0.299348
    27  C   -0.475541
    28  H    0.147897
    29  H    0.150452
    30  H    0.150433
    31  H    0.152651
    32  H    0.155612
    33  H    0.154345
    34  H    0.159692
 Sum of Mulliken charges =  -0.00000

 Dipole moment (field-independent basis, Debye):
    X=             -1.6478    Y=              4.7899    Z=              0.2672  Tot=              5.0724
 Quadrupole moment (field-independent basis, Debye-Ang):
   XX=            -81.6005   YY=            -95.9523   ZZ=            -95.1415
   XY=            -16.0656   XZ=              0.6123   YZ=              0.2195

 Normal termination of Gaussian 16 at Thu May  6 12:30:29 2021.
