 Gaussian 16, Revision A.03,
 Gaussian 16:  EM64L-G16RevA.03 25-Dec-2016

 -------------
 #p 6-31g* mp2
 -------------

 ------------------------------------------------------
 Input file generated by CHIRIPA (05-May-2021 14:53:14)
 ------------------------------------------------------
 Symbolic Z-matrix:
 Charge =  0 Multiplicity = 1

                         Standard orientation:
 ---------------------------------------------------------------------
 Center     Atomic      Atomic             Coordinates (Angstroms)
 Number     Number       Type             X           Y           Z
 ---------------------------------------------------------------------
      1          6           0       -3.410453    0.723874   -0.439185
      2          6           0       -4.088621    1.965438    0.140980
      3          6           0       -3.764203    3.237188   -0.643365
      4          1           0       -2.323153    0.880498   -0.453052
      5          1           0       -3.721750    0.599821   -1.485655
      6          1           0       -3.777217    2.086327    1.186461
      7          1           0       -5.174421    1.805765    0.153646
      8          1           0       -4.090586    3.141783   -1.684025
      9          1           0       -2.685444    3.423939   -0.645342
     10          1           0       -4.259254    4.112531   -0.211439
     11          6           0       -3.725172   -0.555465    0.334101
     12          6           0       -3.047003   -1.797029   -0.246064
     13          6           0       -3.371422   -3.068779    0.538282
     14          1           0       -3.413875   -0.431413    1.380571
     15          1           0       -4.812472   -0.712089    0.347968
     16          1           0       -1.961204   -1.637356   -0.258729
     17          1           0       -3.358408   -1.917918   -1.291544
     18          1           0       -4.450181   -3.255530    0.540258
     19          1           0       -3.045039   -2.973374    1.578941
     20          1           0       -2.876371   -3.944122    0.106356
     21          6           0        5.173307    0.752950   -0.012102
     22          6           0        4.791847   -0.343252   -0.792710
     23          6           0        3.472606   -0.805513   -0.771141
     24          6           0        2.556688   -0.144937    0.046187
     25          6           0        2.906053    0.949818    0.835329
     26          6           0        4.230853    1.394855    0.797998
     27          1           0        6.200284    1.105357   -0.034979
     28          1           0        5.521635   -0.843708   -1.422788
     29          1           0        3.150210   -1.651879   -1.365400
     30          1           0        2.156079    1.428202    1.453476
     31          1           0        4.524261    2.246420    1.405284
     32          7           0        1.157124   -0.625195    0.077364
     33          8           0        0.369183   -0.025924    0.805828
     34          8           0        0.874587   -1.591799   -0.627255
 ---------------------------------------------------------------------

 SCF Done:  E(RHF) =  -669.537474716     A.U. after   15 cycles
 E2 =    -0.2092481249D+01 EUMP2 =    -0.67162995596419D+03

 The electronic state is 1-A.
 Alpha  occ. eigenvalues --  -20.61307 -20.61295 -15.86265 -11.31484 -11.28023
 Alpha  occ. eigenvalues --  -11.28018 -11.27739 -11.27001 -11.26991 -11.20459
 Alpha  occ. eigenvalues --  -11.20204 -11.19825 -11.19696 -11.19492 -11.19433
 Alpha  occ. eigenvalues --   -1.60315  -1.39875  -1.19632  -1.09059  -1.06864
 Alpha  occ. eigenvalues --   -1.05008  -1.02049  -0.95916  -0.94564  -0.86414
 Alpha  occ. eigenvalues --   -0.85597  -0.82755  -0.78143  -0.77825  -0.76611
 Alpha  occ. eigenvalues --   -0.72466  -0.71603  -0.70739  -0.65287  -0.65013
 Alpha  occ. eigenvalues --   -0.63478  -0.62355  -0.59445  -0.57973  -0.56152
 Alpha  occ. eigenvalues --   -0.55517  -0.53862  -0.53346  -0.53097  -0.51322
 Alpha  occ. eigenvalues --   -0.50996  -0.49362  -0.49241  -0.48504  -0.46453
 Alpha  occ. eigenvalues --   -0.45371  -0.45053  -0.44196  -0.43856  -0.42282
 Alpha  occ. eigenvalues --   -0.37603  -0.36602
 Alpha virt. eigenvalues --    0.04684   0.11056   0.16201   0.21193   0.24367
 Alpha virt. eigenvalues --    0.25738   0.27133   0.27957   0.28298   0.29088
 Alpha virt. eigenvalues --    0.29434   0.30831   0.32308   0.32729   0.33128

 Mulliken charges:
               1
     1  C   -0.302473
     2  C   -0.298225
     3  C   -0.474549
     4  H    0.164129
     5  H    0.143109
     6  H    0.151011
     7  H    0.147868
     8  H    0.152871
     9  H    0.153418
    10  H    0.155505
    11  C   -0.293912
    12  C   -0.314304
    13  C   -0.473840
    14  H    0.150252
    15  H    0.140325
    16  H    0.187301
    17  H    0.142087
    18  H    0.146653
    19  H    0.153074
    20  H    0.157302
    21  C   -0.170115
    22  C   -0.218613
    23  C   -0.170360
    24  C    0.159567
    25  C   -0.170572
    26  C   -0.218611
    27  H    0.226739
    28  H    0.224545
    29  H    0.276370
    30  H    0.276061
    31  H    0.224539
    32  N    0.488606
    33  O   -0.459474
    34  O   -0.456283
 Sum of Mulliken charges =  -0.00000

 Dipole moment (field-independent basis, Debye):
    X=              5.5832    Y=              1.6732    Z=             -0.0845  Tot=              5.8292
 Quadrupole moment (field-independent basis, Debye-Ang):
   XX=            -71.0225   YY=            -94.9572   ZZ=            -93.1199
   XY=              2.6445   XZ=             -0.5509   YZ=              3.6400

 Normal termination of Gaussian 16 at Thu May  6 12:05:29 2021.
