 Gaussian 16, Revision A.03,
 Gaussian 16:  EM64L-G16RevA.03 25-Dec-2016

 -------------
 #p 6-31g* mp2
 -------------

 ------------------------------------------------------
 Input file generated by CHIRIPA (05-May-2021 14:55:21)
 ------------------------------------------------------
 Symbolic Z-matrix:
 Charge =  0 Multiplicity = 1

                         Standard orientation:
 ---------------------------------------------------------------------
 Center     Atomic      Atomic             Coordinates (Angstroms)
 Number     Number       Type             X           Y           Z
 ---------------------------------------------------------------------
      1          6           0       -0.512816    2.436180    0.609998
      2          6           0       -0.610141    1.308567    1.431909
      3          6           0       -1.550662    0.310623    1.159740
      4          6           0       -2.381713    0.473370    0.052420
      5          6           0       -2.309047    1.585246   -0.785280
      6          6           0       -1.361084    2.570684   -0.494027
      7          1           0        0.220694    3.206549    0.828837
      8          1           0        0.047332    1.201451    2.289989
      9          1           0       -1.647450   -0.572567    1.779439
     10          1           0       -2.978189    1.664017   -1.633491
     11          1           0       -1.287748    3.445331   -1.134074
     12          7           0       -3.381339   -0.576488   -0.245815
     13          8           0       -4.101895   -0.409462   -1.227415
     14          8           0       -3.425363   -1.546514    0.507676
     15          6           0        2.297224   -1.256720   -0.457094
     16          6           0        1.334289   -1.889184    0.548257
     17          6           0        0.258714   -2.745109   -0.121312
     18          1           0        1.725679   -0.641740   -1.165671
     19          1           0        2.774399   -2.051439   -1.047112
     20          1           0        0.860103   -1.093584    1.137143
     21          1           0        1.908214   -2.502576    1.254639
     22          1           0        0.715201   -3.558783   -0.694161
     23          1           0       -0.338864   -2.141784   -0.812326
     24          1           0       -0.418705   -3.187562    0.615709
     25          6           0        3.378199   -0.398063    0.197068
     26          6           0        4.341134    0.234401   -0.808283
     27          6           0        5.416709    1.090327   -0.138714
     28          1           0        2.901024    0.396656    0.787086
     29          1           0        3.949744   -1.013043    0.905644
     30          1           0        3.767209    0.847794   -1.514665
     31          1           0        4.815319   -0.561199   -1.397169
     32          1           0        6.014287    0.487002    0.552300
     33          1           0        4.960222    1.904000    0.434136
     34          1           0        6.094128    1.532779   -0.875735
 ---------------------------------------------------------------------

 SCF Done:  E(RHF) =  -669.534190070     A.U. after   15 cycles
 E2 =    -0.2094985169D+01 EUMP2 =    -0.67162917523841D+03

 The electronic state is 1-A.
 Alpha  occ. eigenvalues --  -20.60845 -20.60833 -15.85888 -11.31279 -11.27855
 Alpha  occ. eigenvalues --  -11.27851 -11.27610 -11.26868 -11.26859 -11.21986
 Alpha  occ. eigenvalues --  -11.21774 -11.21674 -11.21554 -11.21509 -11.20899
 Alpha  occ. eigenvalues --   -1.59909  -1.39462  -1.19473  -1.08855  -1.08698
 Alpha  occ. eigenvalues --   -1.04897  -1.03742  -0.96188  -0.95678  -0.87189
 Alpha  occ. eigenvalues --   -0.86265  -0.82530  -0.79829  -0.78537  -0.77551
 Alpha  occ. eigenvalues --   -0.72109  -0.71239  -0.70573  -0.65377  -0.65113
 Alpha  occ. eigenvalues --   -0.64873  -0.62274  -0.61146  -0.59552  -0.57796
 Alpha  occ. eigenvalues --   -0.55522  -0.55345  -0.53178  -0.52964  -0.52830
 Alpha  occ. eigenvalues --   -0.52589  -0.50135  -0.48869  -0.48861  -0.48135
 Alpha  occ. eigenvalues --   -0.46900  -0.46065  -0.45993  -0.44849  -0.43980
 Alpha  occ. eigenvalues --   -0.37440  -0.36353
 Alpha virt. eigenvalues --    0.04949   0.11051   0.16327   0.20535   0.22823
 Alpha virt. eigenvalues --    0.23935   0.25589   0.26669   0.26810   0.28424
 Alpha virt. eigenvalues --    0.28755   0.30613   0.31173   0.31544   0.32066

 Mulliken charges:
               1
     1  C   -0.171810
     2  C   -0.218452
     3  C   -0.166834
     4  C    0.156455
     5  C   -0.171682
     6  C   -0.218987
     7  H    0.226175
     8  H    0.224991
     9  H    0.277833
    10  H    0.276076
    11  H    0.223900
    12  N    0.488697
    13  O   -0.460100
    14  O   -0.459446
    15  C   -0.297245
    16  C   -0.303878
    17  C   -0.477358
    18  H    0.150920
    19  H    0.151393
    20  H    0.146219
    21  H    0.150578
    22  H    0.156235
    23  H    0.154797
    24  H    0.168034
    25  C   -0.296875
    26  C   -0.299817
    27  C   -0.475125
    28  H    0.140950
    29  H    0.150344
    30  H    0.150952
    31  H    0.154388
    32  H    0.156463
    33  H    0.150856
    34  H    0.161357
 Sum of Mulliken charges =  -0.00000

 Dipole moment (field-independent basis, Debye):
    X=              3.4161    Y=              3.6435    Z=              0.9974  Tot=              5.0931
 Quadrupole moment (field-independent basis, Debye-Ang):
   XX=           -112.1302   YY=            -89.8974   ZZ=            -91.9222
   XY=             -9.1594   XZ=             -1.3427   YZ=             -1.9249

 Normal termination of Gaussian 16 at Wed May  5 17:28:20 2021.
