 Gaussian 16, Revision A.03,
 Gaussian 16:  EM64L-G16RevA.03 25-Dec-2016

 -------------
 #p 6-31g* mp2
 -------------

 ------------------------------------------------------
 Input file generated by CHIRIPA (05-May-2021 14:51:09)
 ------------------------------------------------------
 Symbolic Z-matrix:
 Charge =  0 Multiplicity = 1

                         Standard orientation:
 ---------------------------------------------------------------------
 Center     Atomic      Atomic             Coordinates (Angstroms)
 Number     Number       Type             X           Y           Z
 ---------------------------------------------------------------------
      1          6           0        3.646725   -0.137077   -0.255324
      2          6           0        3.972445    1.042612    0.661313
      3          6           0        5.321159    1.686786    0.339125
      4          1           0        4.443206   -0.889107   -0.171571
      5          1           0        3.649934    0.206712   -1.298968
      6          1           0        3.967261    0.697000    1.703015
      7          1           0        3.175000    1.791835    0.575513
      8          1           0        5.334320    2.058627   -0.690517
      9          1           0        6.131082    0.957571    0.443390
     10          1           0        5.533948    2.527873    1.006323
     11          6           0        2.301552   -0.791537    0.054389
     12          6           0        1.975831   -1.971226   -0.862249
     13          6           0        0.627118   -2.615400   -0.540060
     14          1           0        2.298342   -1.135327    1.098033
     15          1           0        1.505071   -0.039508   -0.029364
     16          1           0        2.773277   -2.720449   -0.776449
     17          1           0        1.981016   -1.625614   -1.903950
     18          1           0       -0.182805   -1.886186   -0.644326
     19          1           0        0.613957   -2.987241    0.489582
     20          1           0        0.414329   -3.456487   -1.207258
     21          6           0       -3.199881   -0.232786   -0.115251
     22          6           0       -2.838077   -1.325749    0.890987
     23          6           0       -3.296291   -2.714721    0.445353
     24          1           0       -4.287742   -0.229923   -0.268534
     25          1           0       -2.747917   -0.474707   -1.087155
     26          1           0       -3.289441   -1.081126    1.861062
     27          1           0       -1.750971   -1.325884    1.042037
     28          1           0       -2.835618   -2.984059   -0.510596
     29          1           0       -4.382830   -2.737911    0.313082
     30          1           0       -3.027445   -3.480822    1.179296
     31          6           0       -2.748396    1.161400    0.316186
     32          6           0       -3.110200    2.254363   -0.690052
     33          6           0       -2.651987    3.643335   -0.244417
     34          1           0       -3.200360    1.403321    1.288090
     35          1           0       -1.660536    1.158536    0.469468
     36          1           0       -4.197306    2.254497   -0.841101
     37          1           0       -2.658836    2.009740   -1.660127
     38          1           0       -1.565447    3.666524   -0.112147
     39          1           0       -3.112659    3.912673    0.711531
     40          1           0       -2.920831    4.409436   -0.978361
 ---------------------------------------------------------------------

 SCF Done:  E(RHF) =  -470.732918232     A.U. after   11 cycles
 E2 =    -0.1583548748D+01 EUMP2 =    -0.47231646697933D+03

 The electronic state is 1-A.
 Alpha  occ. eigenvalues --  -11.21658 -11.21640 -11.21613 -11.21476 -11.21470
 Alpha  occ. eigenvalues --  -11.21406 -11.21399 -11.21335 -11.21113 -11.21099
 Alpha  occ. eigenvalues --  -11.21085 -11.20967  -1.08492  -1.08406  -1.03603
 Alpha  occ. eigenvalues --   -1.03473  -0.96051  -0.95929  -0.87053  -0.86962
 Alpha  occ. eigenvalues --   -0.79671  -0.79536  -0.78319  -0.78204  -0.65207
 Alpha  occ. eigenvalues --   -0.64987  -0.61120  -0.60797  -0.59405  -0.59310
 Alpha  occ. eigenvalues --   -0.57662  -0.57522  -0.55359  -0.55200  -0.52718
 Alpha  occ. eigenvalues --   -0.52633  -0.52457  -0.52355  -0.50012  -0.49848
 Alpha  occ. eigenvalues --   -0.48084  -0.47776  -0.46699  -0.46551  -0.45990
 Alpha  occ. eigenvalues --   -0.45776  -0.45716  -0.45497  -0.43833  -0.43752
 Alpha virt. eigenvalues --    0.20228   0.23013   0.23713   0.24652   0.25632
 Alpha virt. eigenvalues --    0.26762   0.26780   0.27502   0.28450   0.29425
 Alpha virt. eigenvalues --    0.30637   0.31374   0.31784   0.31867   0.32100

 Mulliken charges:
               1
     1  C   -0.298245
     2  C   -0.299654
     3  C   -0.475760
     4  H    0.149985
     5  H    0.149619
     6  H    0.152125
     7  H    0.151783
     8  H    0.155235
     9  H    0.155265
    10  H    0.160458
    11  C   -0.299202
    12  C   -0.300171
    13  C   -0.480346
    14  H    0.149843
    15  H    0.149103
    16  H    0.152269
    17  H    0.151845
    18  H    0.161182
    19  H    0.155920
    20  H    0.160527
    21  C   -0.299957
    22  C   -0.304566
    23  C   -0.475918
    24  H    0.149962
    25  H    0.149129
    26  H    0.151823
    27  H    0.157062
    28  H    0.157019
    29  H    0.154320
    30  H    0.159934
    31  C   -0.298926
    32  C   -0.299592
    33  C   -0.475602
    34  H    0.149956
    35  H    0.149412
    36  H    0.152165
    37  H    0.151555
    38  H    0.154802
    39  H    0.155371
    40  H    0.160268
 Sum of Mulliken charges =  -0.00000

 Dipole moment (field-independent basis, Debye):
    X=              0.0329    Y=             -0.0224    Z=              0.0031  Tot=              0.0400
 Quadrupole moment (field-independent basis, Debye-Ang):
   XX=            -84.7616   YY=            -85.7782   ZZ=            -84.1923
   XY=             -1.2927   XZ=             -0.0432   YZ=             -0.4764

 Normal termination of Gaussian 16 at Thu May  6 00:34:32 2021.
