 Gaussian 16, Revision A.03,
 Gaussian 16:  EM64L-G16RevA.03 25-Dec-2016

 -------------
 #p 6-31g* mp2
 -------------

 ------------------------------------------------------
 Input file generated by CHIRIPA (05-May-2021 14:55:20)
 ------------------------------------------------------
 Symbolic Z-matrix:
 Charge =  0 Multiplicity = 1

                         Standard orientation:
 ---------------------------------------------------------------------
 Center     Atomic      Atomic             Coordinates (Angstroms)
 Number     Number       Type             X           Y           Z
 ---------------------------------------------------------------------
      1          6           0        0.719265    0.107403    2.365335
      2          6           0        1.768147    0.967697    2.024365
      3          6           0        2.543676    0.725630    0.886601
      4          6           0        2.241214   -0.391056    0.108900
      5          6           0        1.202805   -1.266709    0.422312
      6          6           0        0.440433   -1.005094    1.564632
      7          1           0        0.121926    0.303039    3.250947
      8          1           0        1.986972    1.832442    2.644346
      9          1           0        3.361525    1.375299    0.599423
     10          1           0        1.008696   -2.120662   -0.215265
     11          1           0       -0.373531   -1.674922    1.827000
     12          7           0        3.055267   -0.657670   -1.098011
     13          8           0        2.768513   -1.648283   -1.766662
     14          8           0        3.964662    0.129021   -1.352484
     15          6           0       -2.675060   -0.279586   -0.151248
     16          6           0       -3.961568   -1.054599   -0.438016
     17          6           0       -3.902274   -2.501204    0.053521
     18          1           0       -1.829882   -0.795638   -0.626969
     19          1           0       -2.480673   -0.292693    0.930156
     20          1           0       -4.154211   -1.038856   -1.518414
     21          1           0       -4.803808   -0.536537    0.038282
     22          1           0       -3.734189   -2.534068    1.134848
     23          1           0       -3.080900   -3.039240   -0.430691
     24          1           0       -4.832169   -3.036775   -0.161697
     25          6           0       -2.718984    1.168200   -0.636754
     26          6           0       -1.432475    1.943213   -0.349986
     27          6           0       -1.491770    3.389819   -0.841525
     28          1           0       -2.913371    1.181309   -1.718159
     29          1           0       -3.564162    1.684252   -0.161034
     30          1           0       -0.590235    1.425151   -0.826285
     31          1           0       -1.239834    1.927471    0.730410
     32          1           0       -2.313143    3.927855   -0.357312
     33          1           0       -1.659856    3.422682   -1.922852
     34          1           0       -0.561874    3.925390   -0.626305
 ---------------------------------------------------------------------

 SCF Done:  E(RHF) =  -669.534320458     A.U. after   15 cycles
 E2 =    -0.2095072047D+01 EUMP2 =    -0.67162939250491D+03

 The electronic state is 1-A.
 Alpha  occ. eigenvalues --  -20.60805 -20.60800 -15.85858 -11.31231 -11.27765
 Alpha  occ. eigenvalues --  -11.27752 -11.27484 -11.26801 -11.26749 -11.22059
 Alpha  occ. eigenvalues --  -11.21862 -11.21757 -11.21685 -11.21674 -11.21250
 Alpha  occ. eigenvalues --   -1.59881  -1.39434  -1.19384  -1.08865  -1.08734
 Alpha  occ. eigenvalues --   -1.04779  -1.03894  -0.96371  -0.95620  -0.87387
 Alpha  occ. eigenvalues --   -0.86183  -0.82452  -0.79963  -0.78662  -0.77477
 Alpha  occ. eigenvalues --   -0.72074  -0.71205  -0.70493  -0.65474  -0.65028
 Alpha  occ. eigenvalues --   -0.64770  -0.62134  -0.61292  -0.59747  -0.57981
 Alpha  occ. eigenvalues --   -0.55672  -0.55286  -0.53354  -0.52928  -0.52870
 Alpha  occ. eigenvalues --   -0.52754  -0.50318  -0.48836  -0.48830  -0.48270
 Alpha  occ. eigenvalues --   -0.47003  -0.46136  -0.46070  -0.44837  -0.44151
 Alpha  occ. eigenvalues --   -0.37280  -0.36296
 Alpha virt. eigenvalues --    0.04988   0.11190   0.16430   0.20219   0.22894
 Alpha virt. eigenvalues --    0.23532   0.25537   0.26326   0.27355   0.28463
 Alpha virt. eigenvalues --    0.28868   0.30190   0.31213   0.31470   0.31823

 Mulliken charges:
               1
     1  C   -0.172447
     2  C   -0.216195
     3  C   -0.171789
     4  C    0.159013
     5  C   -0.174224
     6  C   -0.209484
     7  H    0.225057
     8  H    0.223486
     9  H    0.275544
    10  H    0.275075
    11  H    0.225771
    12  N    0.487742
    13  O   -0.460580
    14  O   -0.460163
    15  C   -0.297312
    16  C   -0.299567
    17  C   -0.476625
    18  H    0.150558
    19  H    0.140286
    20  H    0.155618
    21  H    0.152488
    22  H    0.149307
    23  H    0.154189
    24  H    0.164255
    25  C   -0.298978
    26  C   -0.300428
    27  C   -0.475950
    28  H    0.152252
    29  H    0.148475
    30  H    0.156207
    31  H    0.148235
    32  H    0.153326
    33  H    0.157569
    34  H    0.159289
 Sum of Mulliken charges =  -0.00000

 Dipole moment (field-independent basis, Debye):
    X=             -2.8495    Y=              0.9350    Z=              4.2061  Tot=              5.1658
 Quadrupole moment (field-independent basis, Debye-Ang):
   XX=           -106.5550   YY=            -93.6660   ZZ=            -93.5045
   XY=              5.6986   XZ=              9.8482   YZ=             -0.0589

 Normal termination of Gaussian 16 at Wed May  5 23:48:45 2021.
