 Gaussian 16, Revision A.03,
 Gaussian 16:  EM64L-G16RevA.03 25-Dec-2016

 -------------
 #p 6-31g* mp2
 -------------

 ------------------------------------------------------
 Input file generated by CHIRIPA (05-May-2021 14:55:19)
 ------------------------------------------------------
 Symbolic Z-matrix:
 Charge =  0 Multiplicity = 1

                         Standard orientation:
 ---------------------------------------------------------------------
 Center     Atomic      Atomic             Coordinates (Angstroms)
 Number     Number       Type             X           Y           Z
 ---------------------------------------------------------------------
      1          6           0        1.234115   -0.527326    2.049712
      2          6           0        1.039294    0.509099    1.130805
      3          6           0        1.950787    0.717067    0.091345
      4          6           0        3.051029   -0.134081    0.000206
      5          6           0        3.272691   -1.175385    0.900119
      6          6           0        2.348227   -1.364784    1.931644
      7          1           0        0.521008   -0.681668    2.854107
      8          1           0        0.174965    1.161030    1.220048
      9          1           0        1.824279    1.511767   -0.633821
     10          1           0        4.143825   -1.808921    0.785336
     11          1           0        2.502076   -2.170489    2.643834
     12          7           0        4.022851    0.076257   -1.096023
     13          8           0        4.984122   -0.687402   -1.154516
     14          8           0        3.804893    1.000795   -1.875998
     15          6           0       -3.698239    0.856059    0.185306
     16          6           0       -2.680218    1.890192   -0.296549
     17          6           0       -2.688039    3.165171    0.547348
     18          1           0       -4.701701    1.302937    0.167762
     19          1           0       -3.486503    0.604250    1.233713
     20          1           0       -2.892965    2.138944   -1.344155
     21          1           0       -1.679086    1.440739   -0.278037
     22          1           0       -2.453744    2.937032    1.592172
     23          1           0       -3.674520    3.639206    0.519998
     24          1           0       -1.952858    3.890687    0.185415
     25          6           0       -3.702365   -0.424066   -0.648356
     26          6           0       -4.720386   -1.458200   -0.166499
     27          6           0       -4.712564   -2.733179   -1.010396
     28          1           0       -3.914101   -0.172258   -1.696761
     29          1           0       -2.698903   -0.870944   -0.630810
     30          1           0       -5.721518   -1.008747   -0.185011
     31          1           0       -4.507639   -1.706952    0.881106
     32          1           0       -3.726084   -3.207213   -0.983046
     33          1           0       -4.946861   -2.505040   -2.055221
     34          1           0       -5.447747   -3.458694   -0.648464
 ---------------------------------------------------------------------

 SCF Done:  E(RHF) =  -669.535479954     A.U. after   15 cycles
 E2 =    -0.2091433561D+01 EUMP2 =    -0.67162691351539D+03

 The electronic state is 1-A.
 Alpha  occ. eigenvalues --  -20.60771 -20.60766 -15.85825 -11.31203 -11.27781
 Alpha  occ. eigenvalues --  -11.27773 -11.27526 -11.26796 -11.26763 -11.22455
 Alpha  occ. eigenvalues --  -11.22121 -11.22097 -11.21943 -11.21929 -11.21460
 Alpha  occ. eigenvalues --   -1.59846  -1.39399  -1.19381  -1.09101  -1.08772
 Alpha  occ. eigenvalues --   -1.04788  -1.04195  -0.96628  -0.95605  -0.87639
 Alpha  occ. eigenvalues --   -0.86184  -0.82440  -0.80264  -0.78886  -0.77481
 Alpha  occ. eigenvalues --   -0.72043  -0.71170  -0.70489  -0.65812  -0.65032
 Alpha  occ. eigenvalues --   -0.64764  -0.62219  -0.61509  -0.60000  -0.58228
 Alpha  occ. eigenvalues --   -0.55927  -0.55283  -0.53320  -0.53116  -0.53043
 Alpha  occ. eigenvalues --   -0.52867  -0.50571  -0.48810  -0.48797  -0.48555
 Alpha  occ. eigenvalues --   -0.47308  -0.46420  -0.46346  -0.44802  -0.44433
 Alpha  occ. eigenvalues --   -0.37362  -0.36379
 Alpha virt. eigenvalues --    0.05042   0.11213   0.16437   0.19360   0.22777
 Alpha virt. eigenvalues --    0.23568   0.25777   0.26501   0.27180   0.28283
 Alpha virt. eigenvalues --    0.28685   0.30265   0.31019   0.31205   0.32042

 Mulliken charges:
               1
     1  C   -0.171933
     2  C   -0.223057
     3  C   -0.172242
     4  C    0.158586
     5  C   -0.170808
     6  C   -0.218540
     7  H    0.225619
     8  H    0.230757
     9  H    0.276036
    10  H    0.275747
    11  H    0.223473
    12  N    0.488118
    13  O   -0.460458
    14  O   -0.460208
    15  C   -0.297524
    16  C   -0.305514
    17  C   -0.477917
    18  H    0.153043
    19  H    0.144715
    20  H    0.158396
    21  H    0.145712
    22  H    0.150414
    23  H    0.160789
    24  H    0.162184
    25  C   -0.299466
    26  C   -0.299745
    27  C   -0.476109
    28  H    0.152523
    29  H    0.150389
    30  H    0.153188
    31  H    0.149852
    32  H    0.155683
    33  H    0.157047
    34  H    0.161248
 Sum of Mulliken charges =  -0.00000

 Dipole moment (field-independent basis, Debye):
    X=             -3.5603    Y=             -0.7461    Z=              3.7856  Tot=              5.2500
 Quadrupole moment (field-independent basis, Debye-Ang):
   XX=           -113.6135   YY=            -92.4542   ZZ=            -94.7201
   XY=             -4.7871   XZ=             13.5521   YZ=             -2.8952

 Normal termination of Gaussian 16 at Thu May  6 10:48:08 2021.
