 Gaussian 16, Revision A.03,
 Gaussian 16:  EM64L-G16RevA.03 25-Dec-2016

 -------------
 #p 6-31g* mp2
 -------------

 ------------------------------------------------------
 Input file generated by CHIRIPA (05-May-2021 14:57:25)
 ------------------------------------------------------
 Symbolic Z-matrix:
 Charge =  0 Multiplicity = 1

                         Standard orientation:
 ---------------------------------------------------------------------
 Center     Atomic      Atomic             Coordinates (Angstroms)
 Number     Number       Type             X           Y           Z
 ---------------------------------------------------------------------
      1          6           0       -2.086405    2.096573    0.182213
      2          6           0       -3.097040    2.088492   -0.784779
      3          6           0       -4.012176    1.033382   -0.846555
      4          6           0       -3.886805   -0.002014    0.078392
      5          6           0       -2.890839   -0.022625    1.053542
      6          6           0       -1.986706    1.042846    1.096675
      7          1           0       -1.379778    2.920233    0.222960
      8          1           0       -3.176875    2.905493   -1.496243
      9          1           0       -4.804242    1.001835   -1.584833
     10          1           0       -2.836631   -0.851143    1.749271
     11          1           0       -1.202846    1.046471    1.848736
     12          7           0       -4.849795   -1.124496    0.022861
     13          8           0       -4.717919   -2.024786    0.849132
     14          8           0       -5.718228   -1.082755   -0.845885
     15          6           0        1.208384   -0.168977   -0.217137
     16          6           0        1.899487    1.004797    0.100905
     17          6           0        3.295542    1.008705    0.175506
     18          6           0        3.971689   -0.184339   -0.075015
     19          6           0        3.311623   -1.369954   -0.394260
     20          6           0        1.915411   -1.350524   -0.463271
     21          1           0        0.123834   -0.162948   -0.272917
     22          1           0        1.353017    1.923866    0.292545
     23          1           0        3.855716    1.903146    0.419630
     24          1           0        3.883933   -2.270692   -0.580140
     25          1           0        1.381326   -2.263587   -0.710486
     26          7           0        5.449712   -0.192556    0.001001
     27          8           0        6.022129   -1.256662   -0.224062
     28          8           0        6.007784    0.865267    0.284208
 ---------------------------------------------------------------------

 SCF Done:  E(RHF) =  -868.336665212     A.U. after   16 cycles
 E2 =    -0.2601767980D+01 EUMP2 =    -0.87093843319270D+03

 The electronic state is 1-A.
 Alpha  occ. eigenvalues --  -20.61691 -20.61682 -20.61103 -20.61093 -15.86750
 Alpha  occ. eigenvalues --  -15.86161 -11.32350 -11.31590 -11.28950 -11.28880
 Alpha  occ. eigenvalues --  -11.28758 -11.28247 -11.28150 -11.28021 -11.27945
 Alpha  occ. eigenvalues --  -11.27799 -11.27313 -11.27112  -1.60761  -1.60176
 Alpha  occ. eigenvalues --   -1.40307  -1.39728  -1.20561  -1.19781  -1.09924
 Alpha  occ. eigenvalues --   -1.09149  -1.05978  -1.05209  -0.96703  -0.95970
 Alpha  occ. eigenvalues --   -0.87365  -0.86597  -0.83516  -0.82811  -0.78513
 Alpha  occ. eigenvalues --   -0.77862  -0.72959  -0.72375  -0.72093  -0.71656
 Alpha  occ. eigenvalues --   -0.71503  -0.70873  -0.66198  -0.65981  -0.65419
 Alpha  occ. eigenvalues --   -0.65211  -0.63273  -0.62559  -0.56501  -0.55862
 Alpha  occ. eigenvalues --   -0.54106  -0.54025  -0.53508  -0.53302  -0.49737
 Alpha  occ. eigenvalues --   -0.49702  -0.49141  -0.49126  -0.45660  -0.45119
 Alpha  occ. eigenvalues --   -0.38564  -0.37847  -0.37471  -0.36828
 Alpha virt. eigenvalues --    0.03960   0.04706   0.09949   0.10791   0.15321
 Alpha virt. eigenvalues --    0.16218   0.18739   0.21888   0.24835   0.26341
 Alpha virt. eigenvalues --    0.28088   0.28913   0.29719   0.31139   0.31737

 Mulliken charges:
               1
     1  C   -0.175179
     2  C   -0.216908
     3  C   -0.169811
     4  C    0.159523
     5  C   -0.173495
     6  C   -0.232888
     7  H    0.225839
     8  H    0.228439
     9  H    0.279841
    10  H    0.279592
    11  H    0.229357
    12  N    0.487818
    13  O   -0.458073
    14  O   -0.456725
    15  C   -0.178547
    16  C   -0.224686
    17  C   -0.169979
    18  C    0.158073
    19  C   -0.169527
    20  C   -0.220427
    21  H    0.237210
    22  H    0.211781
    23  H    0.275415
    24  H    0.277479
    25  H    0.227105
    26  N    0.488083
    27  O   -0.458763
    28  O   -0.460548
 Sum of Mulliken charges =  -0.00000

 Dipole moment (field-independent basis, Debye):
    X=             -2.1258    Y=              3.8711    Z=             -0.1477  Tot=              4.4188
 Quadrupole moment (field-independent basis, Debye-Ang):
   XX=           -171.2185   YY=            -99.5615   ZZ=           -102.4389
   XY=            -15.9095   XZ=              0.9627   YZ=             -0.3655

 Normal termination of Gaussian 16 at Wed May  5 21:09:17 2021.
