 Gaussian 16, Revision A.03,
 Gaussian 16:  EM64L-G16RevA.03 25-Dec-2016

 -------------
 #p 6-31g* mp2
 -------------

 ------------------------------------------------------
 Input file generated by CHIRIPA (05-May-2021 14:51:11)
 ------------------------------------------------------
 Symbolic Z-matrix:
 Charge =  0 Multiplicity = 1

                         Standard orientation:
 ---------------------------------------------------------------------
 Center     Atomic      Atomic             Coordinates (Angstroms)
 Number     Number       Type             X           Y           Z
 ---------------------------------------------------------------------
      1          6           0        3.438362    0.075881   -0.153347
      2          6           0        4.559122   -0.532205   -0.997214
      3          6           0        5.270123    0.502649   -1.869767
      4          1           0        2.709616    0.560439   -0.817484
      5          1           0        3.856524    0.868162    0.482912
      6          1           0        4.139216   -1.324043   -1.630687
      7          1           0        5.285186   -1.015538   -0.331003
      8          1           0        5.715573    1.287934   -1.250491
      9          1           0        4.563092    0.977676   -2.557559
     10          1           0        6.067551    0.046404   -2.464584
     11          6           0        2.718128   -0.946222    0.724319
     12          6           0        1.597368   -0.338136    1.568186
     13          6           0        0.886367   -1.372990    2.440739
     14          1           0        2.299966   -1.738503    0.088060
     15          1           0        3.446874   -1.430780    1.388456
     16          1           0        0.871304    0.145197    0.901975
     17          1           0        2.017274    0.453702    2.201659
     18          1           0        1.593398   -1.848017    3.128531
     19          1           0        0.440917   -2.158275    1.821463
     20          1           0        0.088939   -0.916745    3.035557
     21          6           0       -3.108648   -0.328008   -0.293640
     22          6           0       -4.356617   -0.877784   -0.985236
     23          6           0       -4.403081   -2.406039   -0.993500
     24          1           0       -2.214899   -0.720720   -0.797558
     25          1           0       -3.075190   -0.702374    0.738893
     26          1           0       -4.388438   -0.501377   -2.015731
     27          1           0       -5.247500   -0.483564   -0.479731
     28          1           0       -4.396073   -2.797201    0.029019
     29          1           0       -3.532129   -2.815115   -1.515708
     30          1           0       -5.303392   -2.777625   -1.492722
     31          6           0       -3.047842    1.198348   -0.277332
     32          6           0       -1.799872    1.748125    0.414263
     33          6           0       -1.753409    3.276381    0.422528
     34          1           0       -3.081300    1.572715   -1.309866
     35          1           0       -3.941592    1.591062    0.226586
     36          1           0       -0.908990    1.353906   -0.091241
     37          1           0       -1.768052    1.371717    1.444758
     38          1           0       -2.624361    3.685457    0.944736
     39          1           0       -1.760418    3.667543   -0.599991
     40          1           0       -0.853097    3.647965    0.921750
 ---------------------------------------------------------------------

 SCF Done:  E(RHF) =  -470.733160121     A.U. after   11 cycles
 E2 =    -0.1583114109D+01 EUMP2 =    -0.47231627422988D+03

 The electronic state is 1-A.
 Alpha  occ. eigenvalues --  -11.21630 -11.21627 -11.21596 -11.21485 -11.21436
 Alpha  occ. eigenvalues --  -11.21383 -11.21377 -11.21315 -11.21091 -11.21091
 Alpha  occ. eigenvalues --  -11.21070 -11.21017  -1.08469  -1.08393  -1.03570
 Alpha  occ. eigenvalues --   -1.03480  -0.96004  -0.95947  -0.87023  -0.86962
 Alpha  occ. eigenvalues --   -0.79709  -0.79490  -0.78342  -0.78142  -0.65131
 Alpha  occ. eigenvalues --   -0.65001  -0.61006  -0.60854  -0.59435  -0.59257
 Alpha  occ. eigenvalues --   -0.57645  -0.57524  -0.55292  -0.55236  -0.52702
 Alpha  occ. eigenvalues --   -0.52636  -0.52430  -0.52373  -0.49969  -0.49881
 Alpha  occ. eigenvalues --   -0.48133  -0.47774  -0.46795  -0.46502  -0.46004
 Alpha  occ. eigenvalues --   -0.45750  -0.45714  -0.45329  -0.43809  -0.43747
 Alpha virt. eigenvalues --    0.21259   0.23221   0.23749   0.24446   0.25165
 Alpha virt. eigenvalues --    0.26421   0.27087   0.27871   0.28241   0.29255
 Alpha virt. eigenvalues --    0.30712   0.30947   0.31616   0.31922   0.32136

 Mulliken charges:
               1
     1  C   -0.298085
     2  C   -0.299583
     3  C   -0.475673
     4  H    0.148574
     5  H    0.149589
     6  H    0.151778
     7  H    0.152068
     8  H    0.155215
     9  H    0.155008
    10  H    0.160227
    11  C   -0.297818
    12  C   -0.307686
    13  C   -0.475347
    14  H    0.148964
    15  H    0.149390
    16  H    0.161460
    17  H    0.150999
    18  H    0.154692
    19  H    0.155312
    20  H    0.159649
    21  C   -0.298573
    22  C   -0.299628
    23  C   -0.475718
    24  H    0.148818
    25  H    0.150274
    26  H    0.151895
    27  H    0.152123
    28  H    0.155442
    29  H    0.154961
    30  H    0.160356
    31  C   -0.297793
    32  C   -0.304511
    33  C   -0.475585
    34  H    0.149369
    35  H    0.149821
    36  H    0.155508
    37  H    0.153281
    38  H    0.155246
    39  H    0.155029
    40  H    0.160954
 Sum of Mulliken charges =  -0.00000

 Dipole moment (field-independent basis, Debye):
    X=             -0.0372    Y=              0.0199    Z=             -0.0006  Tot=              0.0422
 Quadrupole moment (field-independent basis, Debye-Ang):
   XX=            -84.5180   YY=            -86.3615   ZZ=            -83.9355
   XY=             -0.4501   XZ=              0.4274   YZ=              0.5174

 Normal termination of Gaussian 16 at Thu May  6 03:49:42 2021.
