 Gaussian 16, Revision A.03,
 Gaussian 16:  EM64L-G16RevA.03 25-Dec-2016

 -------------
 #p 6-31g* mp2
 -------------

 ------------------------------------------------------
 Input file generated by CHIRIPA (05-May-2021 14:55:22)
 ------------------------------------------------------
 Symbolic Z-matrix:
 Charge =  0 Multiplicity = 1

                         Standard orientation:
 ---------------------------------------------------------------------
 Center     Atomic      Atomic             Coordinates (Angstroms)
 Number     Number       Type             X           Y           Z
 ---------------------------------------------------------------------
      1          6           0        1.148505   -1.010403   -0.256964
      2          6           0        2.164128   -1.971561   -0.291680
      3          6           0        3.503227   -1.594888   -0.152111
      4          6           0        3.792122   -0.242207    0.021340
      5          6           0        2.802679    0.739008    0.060215
      6          6           0        1.470454    0.339434   -0.081437
      7          1           0        0.110930   -1.311907   -0.366194
      8          1           0        1.917046   -3.020584   -0.427864
      9          1           0        4.309296   -2.318170   -0.175204
     10          1           0        3.080044    1.777120    0.197365
     11          1           0        0.683784    1.088063   -0.054080
     12          7           0        5.206127    0.168682    0.170198
     13          8           0        5.434420    1.366817    0.321831
     14          8           0        6.059357   -0.715178    0.132421
     15          6           0       -4.020821    0.754554   -0.407457
     16          6           0       -3.282223    1.842455    0.372882
     17          6           0       -2.215454    2.549279   -0.463895
     18          1           0       -3.293391    0.017852   -0.774966
     19          1           0       -4.487554    1.202819   -1.295497
     20          1           0       -2.818180    1.392526    1.259924
     21          1           0       -4.011517    2.576550    0.738737
     22          1           0       -2.666234    3.024262   -1.341273
     23          1           0       -1.466117    1.833511   -0.817125
     24          1           0       -1.699869    3.323051    0.113434
     25          6           0       -5.090414    0.038858    0.415634
     26          6           0       -5.829013   -1.049043   -0.364706
     27          6           0       -6.895782   -1.755868    0.472072
     28          1           0       -4.623681   -0.409406    1.303673
     29          1           0       -5.817844    0.775559    0.783141
     30          1           0       -5.099719   -1.783137   -0.730562
     31          1           0       -6.293055   -0.599115   -1.251749
     32          1           0       -7.645118   -1.040099    0.825300
     33          1           0       -6.445001   -2.230849    1.349448
     34          1           0       -7.411366   -2.529639   -0.105259
 ---------------------------------------------------------------------

 SCF Done:  E(RHF) =  -669.535498344     A.U. after   15 cycles
 E2 =    -0.2090968562D+01 EUMP2 =    -0.67162646690619D+03

 The electronic state is 1-A.
 Alpha  occ. eigenvalues --  -20.60737 -20.60732 -15.85790 -11.31155 -11.27725
 Alpha  occ. eigenvalues --  -11.27711 -11.27473 -11.26747 -11.26694 -11.22582
 Alpha  occ. eigenvalues --  -11.22313 -11.22275 -11.22239 -11.22127 -11.21632
 Alpha  occ. eigenvalues --   -1.59813  -1.39366  -1.19326  -1.09280  -1.08725
 Alpha  occ. eigenvalues --   -1.04728  -1.04377  -0.96838  -0.95560  -0.87855
 Alpha  occ. eigenvalues --   -0.86129  -0.82390  -0.80441  -0.79065  -0.77436
 Alpha  occ. eigenvalues --   -0.72009  -0.71135  -0.70444  -0.65937  -0.64979
 Alpha  occ. eigenvalues --   -0.64751  -0.62162  -0.61699  -0.60205  -0.58424
 Alpha  occ. eigenvalues --   -0.56159  -0.55229  -0.53528  -0.53273  -0.53058
 Alpha  occ. eigenvalues --   -0.52797  -0.50758  -0.48790  -0.48764  -0.48722
 Alpha  occ. eigenvalues --   -0.47473  -0.46614  -0.46526  -0.44772  -0.44623
 Alpha  occ. eigenvalues --   -0.37313  -0.36329
 Alpha virt. eigenvalues --    0.05097   0.11297   0.16587   0.19026   0.22586
 Alpha virt. eigenvalues --    0.23737   0.25353   0.25895   0.26483   0.28339
 Alpha virt. eigenvalues --    0.28908   0.30308   0.30859   0.31259   0.31492

 Mulliken charges:
               1
     1  C   -0.173074
     2  C   -0.218452
     3  C   -0.171305
     4  C    0.158973
     5  C   -0.172166
     6  C   -0.225703
     7  H    0.224719
     8  H    0.223199
     9  H    0.275477
    10  H    0.276106
    11  H    0.234011
    12  N    0.487975
    13  O   -0.460371
    14  O   -0.460574
    15  C   -0.297391
    16  C   -0.301216
    17  C   -0.480677
    18  H    0.142792
    19  H    0.152926
    20  H    0.151161
    21  H    0.157238
    22  H    0.162127
    23  H    0.146849
    24  H    0.162844
    25  C   -0.298961
    26  C   -0.299746
    27  C   -0.476124
    28  H    0.149340
    29  H    0.152442
    30  H    0.149879
    31  H    0.153606
    32  H    0.156785
    33  H    0.155420
    34  H    0.161891
 Sum of Mulliken charges =  -0.00000

 Dipole moment (field-independent basis, Debye):
    X=             -5.2318    Y=             -1.3736    Z=             -0.5118  Tot=              5.4332
 Quadrupole moment (field-independent basis, Debye-Ang):
   XX=           -131.8414   YY=            -89.1088   ZZ=            -95.7821
   XY=             -7.1191   XZ=             -1.6655   YZ=              0.6316

 Normal termination of Gaussian 16 at Thu May  6 14:13:50 2021.
