 Gaussian 16, Revision A.03,
 Gaussian 16:  EM64L-G16RevA.03 25-Dec-2016

 -------------
 #p 6-31g* mp2
 -------------

 ------------------------------------------------------
 Input file generated by CHIRIPA (05-May-2021 14:57:21)
 ------------------------------------------------------
 Symbolic Z-matrix:
 Charge =  0 Multiplicity = 1

                         Standard orientation:
 ---------------------------------------------------------------------
 Center     Atomic      Atomic             Coordinates (Angstroms)
 Number     Number       Type             X           Y           Z
 ---------------------------------------------------------------------
      1          6           0        1.760315    1.061890    0.536487
      2          6           0        2.761402    1.964456    0.162694
      3          6           0        4.044780    1.509838   -0.154813
      4          6           0        4.293384    0.139808   -0.087706
      5          6           0        3.317106   -0.784344    0.281233
      6          6           0        2.040868   -0.307215    0.594461
      7          1           0        0.766129    1.423792    0.781472
      8          1           0        2.546381    3.028273    0.116806
      9          1           0        4.838432    2.186601   -0.447262
     10          1           0        3.561582   -1.839004    0.317869
     11          1           0        1.265365   -1.010463    0.884432
     12          7           0        5.648259   -0.353391   -0.421572
     13          8           0        5.841840   -1.565291   -0.354761
     14          8           0        6.490975    0.481277   -0.743744
     15          6           0       -2.018882   -1.166154    1.157562
     16          6           0       -2.348856   -1.561489   -0.142957
     17          6           0       -3.483026   -1.044361   -0.776031
     18          6           0       -4.268386   -0.129728   -0.076069
     19          6           0       -3.965984    0.283735    1.220424
     20          6           0       -2.827075   -0.246425    1.833909
     21          1           0       -1.135991   -1.572933    1.641740
     22          1           0       -1.723040   -2.275604   -0.670631
     23          1           0       -3.761740   -1.333139   -1.782184
     24          1           0       -4.609186    0.997272    1.720998
     25          1           0       -2.573251    0.062408    2.843979
     26          7           0       -5.471590    0.424630   -0.735906
     27          8           0       -6.147150    1.229012   -0.097763
     28          8           0       -5.716319    0.044259   -1.878737
 ---------------------------------------------------------------------

 SCF Done:  E(RHF) =  -868.336895197     A.U. after   16 cycles
 E2 =    -0.2599973197D+01 EUMP2 =    -0.87093686839386D+03

 The electronic state is 1-A.
 Alpha  occ. eigenvalues --  -20.61455 -20.61448 -20.61219 -20.61209 -15.86512
 Alpha  occ. eigenvalues --  -15.86277 -11.32069 -11.31732 -11.28633 -11.28610
 Alpha  occ. eigenvalues --  -11.28529 -11.28379 -11.28295 -11.28090 -11.27752
 Alpha  occ. eigenvalues --  -11.27726 -11.27473 -11.27300  -1.60525  -1.60291
 Alpha  occ. eigenvalues --   -1.40072  -1.39842  -1.20263  -1.19930  -1.09653
 Alpha  occ. eigenvalues --   -1.09304  -1.05674  -1.05362  -0.96449  -0.96117
 Alpha  occ. eigenvalues --   -0.87076  -0.86759  -0.83260  -0.82959  -0.78251
 Alpha  occ. eigenvalues --   -0.77996  -0.72726  -0.72493  -0.71851  -0.71616
 Alpha  occ. eigenvalues --   -0.71448  -0.71015  -0.65919  -0.65702  -0.65585
 Alpha  occ. eigenvalues --   -0.65372  -0.62997  -0.62720  -0.56284  -0.55824
 Alpha  occ. eigenvalues --   -0.54022  -0.53762  -0.53668  -0.53446  -0.49501
 Alpha  occ. eigenvalues --   -0.49469  -0.49259  -0.49241  -0.45434  -0.45227
 Alpha  occ. eigenvalues --   -0.38312  -0.37903  -0.37269  -0.36965
 Alpha virt. eigenvalues --    0.04221   0.04569   0.10313   0.10706   0.15509
 Alpha virt. eigenvalues --    0.16031   0.18410   0.21849   0.24772   0.26464
 Alpha virt. eigenvalues --    0.27679   0.28721   0.29619   0.31364   0.31796

 Mulliken charges:
               1
     1  C   -0.171565
     2  C   -0.218480
     3  C   -0.169778
     4  C    0.158980
     5  C   -0.171116
     6  C   -0.219859
     7  H    0.227291
     8  H    0.226107
     9  H    0.277712
    10  H    0.275519
    11  H    0.213357
    12  N    0.488051
    13  O   -0.460204
    14  O   -0.458522
    15  C   -0.179183
    16  C   -0.217611
    17  C   -0.170213
    18  C    0.159733
    19  C   -0.170929
    20  C   -0.220926
    21  H    0.221832
    22  H    0.225668
    23  H    0.279043
    24  H    0.278079
    25  H    0.225244
    26  N    0.487801
    27  O   -0.458439
    28  O   -0.457593
 Sum of Mulliken charges =  -0.00000

 Dipole moment (field-independent basis, Debye):
    X=             -0.6701    Y=             -0.0919    Z=              3.3763  Tot=              3.4434
 Quadrupole moment (field-independent basis, Debye-Ang):
   XX=           -181.0978   YY=            -98.3790   ZZ=           -102.9213
   XY=             15.8811   XZ=             -5.9804   YZ=              1.6066

 Normal termination of Gaussian 16 at Thu May  6 12:48:30 2021.
