 Gaussian 16, Revision A.03,
 Gaussian 16:  EM64L-G16RevA.03 25-Dec-2016

 -------------
 #p 6-31g* mp2
 -------------

 ------------------------------------------------------
 Input file generated by CHIRIPA (05-May-2021 14:51:11)
 ------------------------------------------------------
 Symbolic Z-matrix:
 Charge =  0 Multiplicity = 1

                         Standard orientation:
 ---------------------------------------------------------------------
 Center     Atomic      Atomic             Coordinates (Angstroms)
 Number     Number       Type             X           Y           Z
 ---------------------------------------------------------------------
      1          6           0        2.582400   -1.284201    0.435343
      2          6           0        1.185181   -1.904587    0.405609
      3          6           0        1.125900   -3.261705    1.107400
      4          1           0        3.293473   -1.974872   -0.038253
      5          1           0        2.904088   -1.172170    1.480026
      6          1           0        0.865657   -2.014137   -0.638670
      7          1           0        0.477318   -1.212275    0.879161
      8          1           0        1.419248   -3.165378    2.157766
      9          1           0        1.809794   -3.971796    0.631311
     10          1           0        0.118036   -3.687115    1.074279
     11          6           0        2.657699    0.072776   -0.262275
     12          6           0        4.054918    0.693163   -0.232541
     13          6           0        4.114199    2.050281   -0.934332
     14          1           0        2.336011   -0.039254   -1.306957
     15          1           0        1.946626    0.763447    0.211322
     16          1           0        4.762781    0.000851   -0.706092
     17          1           0        4.374441    0.802713    0.811739
     18          1           0        3.430304    2.760371   -0.458243
     19          1           0        3.820850    1.953954   -1.984698
     20          1           0        5.122063    2.475691   -0.901210
     21          6           0       -2.470637   -0.029700   -0.483219
     22          6           0       -3.526401   -1.120635   -0.300978
     23          6           0       -3.213525   -2.385596   -1.100837
     24          1           0       -2.390738    0.219780   -1.550140
     25          1           0       -1.490577   -0.423329   -0.180014
     26          1           0       -4.504407   -0.724625   -0.603128
     27          1           0       -3.603933   -1.367411    0.765656
     28          1           0       -2.250731   -2.807008   -0.794178
     29          1           0       -3.156322   -2.160569   -2.170740
     30          1           0       -3.981024   -3.152291   -0.955970
     31          6           0       -2.769461    1.241125    0.310151
     32          6           0       -1.713698    2.332059    0.127908
     33          6           0       -2.026573    3.597021    0.927769
     34          1           0       -3.749521    1.634753    0.006946
     35          1           0       -2.849360    0.991644    1.377072
     36          1           0       -1.636166    2.578836   -0.938725
     37          1           0       -0.735691    1.936049    0.430060
     38          1           0       -2.083777    3.371994    1.997672
     39          1           0       -2.989367    4.018432    0.621110
     40          1           0       -1.259075    4.363715    0.782902
 ---------------------------------------------------------------------

 SCF Done:  E(RHF) =  -470.733118234     A.U. after   11 cycles
 E2 =    -0.1583980821D+01 EUMP2 =    -0.47231709905484D+03

 The electronic state is 1-A.
 Alpha  occ. eigenvalues --  -11.21683 -11.21631 -11.21591 -11.21552 -11.21459
 Alpha  occ. eigenvalues --  -11.21396 -11.21347 -11.21235 -11.21155 -11.21085
 Alpha  occ. eigenvalues --  -11.21070 -11.21044  -1.08496  -1.08377  -1.03594
 Alpha  occ. eigenvalues --   -1.03495  -0.96031  -0.95947  -0.87054  -0.86958
 Alpha  occ. eigenvalues --   -0.79703  -0.79532  -0.78422  -0.78071  -0.65189
 Alpha  occ. eigenvalues --   -0.64961  -0.60995  -0.60907  -0.59429  -0.59284
 Alpha  occ. eigenvalues --   -0.57640  -0.57558  -0.55339  -0.55223  -0.52731
 Alpha  occ. eigenvalues --   -0.52647  -0.52502  -0.52330  -0.50012  -0.49865
 Alpha  occ. eigenvalues --   -0.48090  -0.47814  -0.46730  -0.46576  -0.46283
 Alpha  occ. eigenvalues --   -0.45769  -0.45699  -0.45098  -0.43834  -0.43741
 Alpha virt. eigenvalues --    0.20232   0.21956   0.23412   0.24624   0.25293
 Alpha virt. eigenvalues --    0.26453   0.26902   0.27137   0.28371   0.29699
 Alpha virt. eigenvalues --    0.30911   0.31390   0.31444   0.31802   0.32070

 Mulliken charges:
               1
     1  C   -0.297705
     2  C   -0.305490
     3  C   -0.476974
     4  H    0.150070
     5  H    0.149462
     6  H    0.154011
     7  H    0.155257
     8  H    0.155424
     9  H    0.155926
    10  H    0.161067
    11  C   -0.301646
    12  C   -0.299607
    13  C   -0.475700
    14  H    0.150283
    15  H    0.152193
    16  H    0.152133
    17  H    0.151879
    18  H    0.155335
    19  H    0.155372
    20  H    0.160295
    21  C   -0.308266
    22  C   -0.298801
    23  C   -0.478219
    24  H    0.148899
    25  H    0.161082
    26  H    0.151648
    27  H    0.151254
    28  H    0.157249
    29  H    0.155050
    30  H    0.160029
    31  C   -0.297787
    32  C   -0.302608
    33  C   -0.475612
    34  H    0.149406
    35  H    0.148781
    36  H    0.152433
    37  H    0.153544
    38  H    0.154868
    39  H    0.155415
    40  H    0.160053
 Sum of Mulliken charges =  -0.00000

 Dipole moment (field-independent basis, Debye):
    X=              0.0574    Y=             -0.0190    Z=             -0.0096  Tot=              0.0612
 Quadrupole moment (field-independent basis, Debye-Ang):
   XX=            -84.6076   YY=            -86.3830   ZZ=            -83.8463
   XY=             -0.4613   XZ=              0.3432   YZ=              0.0441

 Normal termination of Gaussian 16 at Thu May  6 00:42:03 2021.
