 Gaussian 16, Revision A.03,
 Gaussian 16:  EM64L-G16RevA.03 25-Dec-2016

 -------------
 #p 6-31g* mp2
 -------------

 ------------------------------------------------------
 Input file generated by CHIRIPA (05-May-2021 14:51:11)
 ------------------------------------------------------
 Symbolic Z-matrix:
 Charge =  0 Multiplicity = 1

                         Standard orientation:
 ---------------------------------------------------------------------
 Center     Atomic      Atomic             Coordinates (Angstroms)
 Number     Number       Type             X           Y           Z
 ---------------------------------------------------------------------
      1          6           0        3.171381    0.876872   -0.418866
      2          6           0        3.658878    2.122647    0.321659
      3          6           0        2.986136    3.404279   -0.170918
      4          1           0        3.358289    1.000766   -1.494347
      5          1           0        2.082602    0.790043   -0.298797
      6          1           0        4.746603    2.206339    0.201386
      7          1           0        3.470961    1.995692    1.395524
      8          1           0        1.901258    3.346377   -0.035684
      9          1           0        3.184147    3.558220   -1.236608
     10          1           0        3.349299    4.282497    0.371950
     11          6           0        3.834754   -0.412344    0.062366
     12          6           0        3.347257   -1.658119   -0.678159
     13          6           0        4.019999   -2.939750   -0.185582
     14          1           0        4.923533   -0.325514   -0.057702
     15          1           0        3.647846   -0.536238    1.137848
     16          1           0        3.535173   -1.531164   -1.752024
     17          1           0        2.259532   -1.741810   -0.557885
     18          1           0        3.821988   -3.093692    0.880108
     19          1           0        5.104877   -2.881848   -0.320815
     20          1           0        3.656836   -3.817969   -0.728449
     21          6           0       -2.896684   -0.141876    0.633838
     22          6           0       -1.693316   -0.987949    0.216646
     23          6           0       -0.488055   -0.796231    1.137723
     24          1           0       -2.606098    0.917558    0.644107
     25          1           0       -3.177210   -0.399050    1.664645
     26          1           0       -1.416006   -0.730243   -0.813549
     27          1           0       -1.986854   -2.045475    0.207184
     28          1           0       -0.741604   -1.072108    2.166414
     29          1           0       -0.167512    0.250597    1.139881
     30          1           0        0.360813   -1.410314    0.821199
     31          6           0       -4.109451   -0.322653   -0.277339
     32          6           0       -5.312819    0.523421    0.139854
     33          6           0       -6.518080    0.331702   -0.781224
     34          1           0       -3.828924   -0.065479   -1.308145
     35          1           0       -4.400037   -1.382087   -0.287609
     36          1           0       -5.019281    1.580946    0.149316
     37          1           0       -5.590128    0.265714    1.170049
     38          1           0       -6.838622   -0.715126   -0.783382
     39          1           0       -6.264530    0.607579   -1.809915
     40          1           0       -7.366948    0.945784   -0.464701
 ---------------------------------------------------------------------

 SCF Done:  E(RHF) =  -470.733084002     A.U. after   11 cycles
 E2 =    -0.1583188204D+01 EUMP2 =    -0.47231627220597D+03

 The electronic state is 1-A.
 Alpha  occ. eigenvalues --  -11.21668 -11.21625 -11.21570 -11.21569 -11.21447
 Alpha  occ. eigenvalues --  -11.21385 -11.21353 -11.21288 -11.21158 -11.21088
 Alpha  occ. eigenvalues --  -11.21068 -11.21058  -1.08478  -1.08392  -1.03584
 Alpha  occ. eigenvalues --   -1.03507  -0.96038  -0.95952  -0.87056  -0.86971
 Alpha  occ. eigenvalues --   -0.79649  -0.79569  -0.78286  -0.78203  -0.65152
 Alpha  occ. eigenvalues --   -0.65005  -0.60990  -0.60942  -0.59430  -0.59279
 Alpha  occ. eigenvalues --   -0.57648  -0.57558  -0.55390  -0.55177  -0.52777
 Alpha  occ. eigenvalues --   -0.52631  -0.52485  -0.52357  -0.50016  -0.49861
 Alpha  occ. eigenvalues --   -0.48032  -0.47826  -0.46708  -0.46571  -0.45834
 Alpha  occ. eigenvalues --   -0.45767  -0.45731  -0.45610  -0.43800  -0.43743
 Alpha virt. eigenvalues --    0.20453   0.23065   0.23553   0.24415   0.26264
 Alpha virt. eigenvalues --    0.26781   0.27239   0.27470   0.27913   0.29191
 Alpha virt. eigenvalues --    0.30101   0.31680   0.31706   0.31834   0.32200

 Mulliken charges:
               1
     1  C   -0.303024
     2  C   -0.299667
     3  C   -0.475452
     4  H    0.149020
     5  H    0.155086
     6  H    0.151807
     7  H    0.152151
     8  H    0.154228
     9  H    0.155137
    10  H    0.160261
    11  C   -0.297757
    12  C   -0.306018
    13  C   -0.475683
    14  H    0.149403
    15  H    0.150175
    16  H    0.152057
    17  H    0.156933
    18  H    0.155183
    19  H    0.155354
    20  H    0.160040
    21  C   -0.298447
    22  C   -0.300078
    23  C   -0.483777
    24  H    0.149660
    25  H    0.149699
    26  H    0.152647
    27  H    0.152324
    28  H    0.155670
    29  H    0.156049
    30  H    0.166513
    31  C   -0.298351
    32  C   -0.299710
    33  C   -0.475742
    34  H    0.149740
    35  H    0.149752
    36  H    0.152024
    37  H    0.151954
    38  H    0.155214
    39  H    0.155276
    40  H    0.160348
 Sum of Mulliken charges =  -0.00000

 Dipole moment (field-independent basis, Debye):
    X=             -0.0318    Y=             -0.0112    Z=              0.0070  Tot=              0.0345
 Quadrupole moment (field-independent basis, Debye-Ang):
   XX=            -85.2257   YY=            -85.2492   ZZ=            -84.3415
   XY=              0.7299   XZ=             -1.3342   YZ=             -0.3299

 Normal termination of Gaussian 16 at Wed May  5 23:07:37 2021.
