 Gaussian 16, Revision A.03,
 Gaussian 16:  EM64L-G16RevA.03 25-Dec-2016

 -------------
 #p 6-31g* mp2
 -------------

 ------------------------------------------------------
 Input file generated by CHIRIPA (05-May-2021 14:55:25)
 ------------------------------------------------------
 Symbolic Z-matrix:
 Charge =  0 Multiplicity = 1

                         Standard orientation:
 ---------------------------------------------------------------------
 Center     Atomic      Atomic             Coordinates (Angstroms)
 Number     Number       Type             X           Y           Z
 ---------------------------------------------------------------------
      1          6           0        1.507669    2.225246   -0.667045
      2          6           0        1.157732    1.038569   -1.319628
      3          6           0        1.904400   -0.126858   -1.122616
      4          6           0        2.999782   -0.069546   -0.262300
      5          6           0        3.373644    1.097427    0.402299
      6          6           0        2.612560    2.250842    0.190324
      7          1           0        0.922040    3.125912   -0.825901
      8          1           0        0.300164    1.015749   -1.986037
      9          1           0        1.655737   -1.059081   -1.615105
     10          1           0        4.233820    1.089175    1.060665
     11          1           0        2.886657    3.171012    0.698462
     12          7           0        3.797877   -1.296973   -0.045811
     13          8           0        4.758427   -1.220308    0.717145
     14          8           0        3.447761   -2.312454   -0.643184
     15          6           0       -4.156071   -0.296954   -0.195080
     16          6           0       -5.625598   -0.187832    0.213046
     17          6           0       -6.583061   -0.444578   -0.951060
     18          1           0       -3.952595    0.418395   -1.003671
     19          1           0       -3.971127   -1.297771   -0.609270
     20          1           0       -5.807394    0.812015    0.627621
     21          1           0       -5.825553   -0.903389    1.020890
     22          1           0       -6.430624   -1.448198   -1.361072
     23          1           0       -6.412362    0.276953   -1.756576
     24          1           0       -7.628221   -0.361524   -0.637047
     25          6           0       -3.186640   -0.042884    0.957908
     26          6           0       -1.717114   -0.152006    0.549782
     27          6           0       -0.759651    0.104740    1.713888
     28          1           0       -3.371584    0.957934    1.372099
     29          1           0       -3.390116   -0.758232    1.766499
     30          1           0       -1.517159    0.563551   -0.258063
     31          1           0       -1.535317   -1.151853    0.135207
     32          1           0       -0.930349   -0.616790    2.519404
     33          1           0       -0.912088    1.108360    2.123900
     34          1           0        0.285509    0.021687    1.399875
 ---------------------------------------------------------------------

 SCF Done:  E(RHF) =  -669.534098133     A.U. after   15 cycles
 E2 =    -0.2094366041D+01 EUMP2 =    -0.67162846417481D+03

 The electronic state is 1-A.
 Alpha  occ. eigenvalues --  -20.60817 -20.60812 -15.85871 -11.31271 -11.27818
 Alpha  occ. eigenvalues --  -11.27784 -11.27539 -11.26846 -11.26795 -11.21978
 Alpha  occ. eigenvalues --  -11.21921 -11.21777 -11.21704 -11.21362 -11.21171
 Alpha  occ. eigenvalues --   -1.59893  -1.39444  -1.19443  -1.08846  -1.08757
 Alpha  occ. eigenvalues --   -1.04842  -1.03826  -0.96260  -0.95651  -0.87278
 Alpha  occ. eigenvalues --   -0.86230  -0.82481  -0.79921  -0.78622  -0.77516
 Alpha  occ. eigenvalues --   -0.72086  -0.71219  -0.70521  -0.65448  -0.65073
 Alpha  occ. eigenvalues --   -0.64817  -0.62186  -0.61236  -0.59716  -0.57978
 Alpha  occ. eigenvalues --   -0.55568  -0.55321  -0.53617  -0.52937  -0.52784
 Alpha  occ. eigenvalues --   -0.52164  -0.50207  -0.48853  -0.48840  -0.48212
 Alpha  occ. eigenvalues --   -0.46962  -0.46150  -0.46080  -0.44841  -0.44076
 Alpha  occ. eigenvalues --   -0.37396  -0.36374
 Alpha virt. eigenvalues --    0.04990   0.11139   0.16460   0.20766   0.22681
 Alpha virt. eigenvalues --    0.24145   0.25663   0.26445   0.27678   0.28204
 Alpha virt. eigenvalues --    0.28347   0.30419   0.31278   0.31499   0.31971

 Mulliken charges:
               1
     1  C   -0.170720
     2  C   -0.212270
     3  C   -0.175209
     4  C    0.159525
     5  C   -0.172256
     6  C   -0.216962
     7  H    0.225646
     8  H    0.224599
     9  H    0.276087
    10  H    0.276069
    11  H    0.223960
    12  N    0.488040
    13  O   -0.460053
    14  O   -0.460103
    15  C   -0.297945
    16  C   -0.299732
    17  C   -0.475845
    18  H    0.145022
    19  H    0.150622
    20  H    0.151572
    21  H    0.153704
    22  H    0.156077
    23  H    0.153999
    24  H    0.161366
    25  C   -0.297969
    26  C   -0.298789
    27  C   -0.478627
    28  H    0.148238
    29  H    0.152432
    30  H    0.141430
    31  H    0.151932
    32  H    0.156794
    33  H    0.150434
    34  H    0.168930
 Sum of Mulliken charges =  -0.00000

 Dipole moment (field-independent basis, Debye):
    X=             -2.7527    Y=              4.3092    Z=             -0.7497  Tot=              5.1681
 Quadrupole moment (field-independent basis, Debye-Ang):
   XX=           -110.8805   YY=            -93.5560   ZZ=            -93.4620
   XY=             15.0799   XZ=             -0.0575   YZ=              0.3190

 Normal termination of Gaussian 16 at Wed May  5 17:38:54 2021.
