 Gaussian 16, Revision A.03,
 Gaussian 16:  EM64L-G16RevA.03 25-Dec-2016

 -------------
 #p 6-31g* mp2
 -------------

 ------------------------------------------------------
 Input file generated by CHIRIPA (05-May-2021 14:53:12)
 ------------------------------------------------------
 Symbolic Z-matrix:
 Charge =  0 Multiplicity = 1

                         Standard orientation:
 ---------------------------------------------------------------------
 Center     Atomic      Atomic             Coordinates (Angstroms)
 Number     Number       Type             X           Y           Z
 ---------------------------------------------------------------------
      1          6           0       -3.156418   -0.239450   -0.218422
      2          6           0       -4.567150   -0.510831   -0.742037
      3          6           0       -4.881618   -2.003408   -0.847480
      4          1           0       -2.426559   -0.723429   -0.881758
      5          1           0       -3.042203   -0.709760    0.768065
      6          1           0       -4.679121   -0.038975   -1.726634
      7          1           0       -5.293727   -0.025988   -0.077485
      8          1           0       -4.797542   -2.484959    0.132132
      9          1           0       -4.179445   -2.498019   -1.526386
     10          1           0       -5.895001   -2.174573   -1.223800
     11          6           0       -2.827165    1.248166   -0.107430
     12          6           0       -1.416433    1.519548    0.416185
     13          6           0       -1.101965    3.012125    0.521628
     14          1           0       -2.941380    1.718477   -1.093918
     15          1           0       -3.557024    1.732146    0.555906
     16          1           0       -0.689856    1.034705   -0.248368
     17          1           0       -1.304462    1.047691    1.400781
     18          1           0       -1.804138    3.506736    1.200534
     19          1           0       -1.186041    3.493676   -0.457985
     20          1           0       -0.088582    3.183290    0.897948
     21          6           0        3.485002    0.375298   -1.983856
     22          6           0        3.317997   -0.991158   -1.736012
     23          6           0        2.683594   -1.428857   -0.569607
     24          6           0        2.226385   -0.468406    0.331384
     25          6           0        2.377789    0.900024    0.112825
     26          6           0        3.015193    1.314872   -1.060274
     27          1           0        3.978988    0.706438   -2.892548
     28          1           0        3.681852   -1.723093   -2.451502
     29          1           0        2.541079   -2.480550   -0.352696
     30          1           0        2.004482    1.605941    0.844770
     31          1           0        3.143505    2.376727   -1.250130
     32          7           0        1.553182   -0.919683    1.569748
     33          8           0        1.159328   -0.053504    2.347728
     34          8           0        1.432127   -2.131026    1.738951
 ---------------------------------------------------------------------

 SCF Done:  E(RHF) =  -669.535525851     A.U. after   15 cycles
 E2 =    -0.2093360135D+01 EUMP2 =    -0.67162888598582D+03

 The electronic state is 1-A.
 Alpha  occ. eigenvalues --  -20.60868 -20.60857 -15.85887 -11.31228 -11.27802
 Alpha  occ. eigenvalues --  -11.27787 -11.27543 -11.26810 -11.26798 -11.21270
 Alpha  occ. eigenvalues --  -11.21076 -11.21007 -11.20971 -11.20939 -11.20746
 Alpha  occ. eigenvalues --   -1.59919  -1.39476  -1.19408  -1.08804  -1.08051
 Alpha  occ. eigenvalues --   -1.04808  -1.03200  -0.95716  -0.95618  -0.86704
 Alpha  occ. eigenvalues --   -0.86204  -0.82482  -0.79259  -0.77885  -0.77497
 Alpha  occ. eigenvalues --   -0.72122  -0.71222  -0.70522  -0.65061  -0.64818
 Alpha  occ. eigenvalues --   -0.64674  -0.62183  -0.60595  -0.59051  -0.57293
 Alpha  occ. eigenvalues --   -0.55305  -0.54976  -0.53139  -0.52918  -0.52383
 Alpha  occ. eigenvalues --   -0.52093  -0.49614  -0.48890  -0.48877  -0.47609
 Alpha  occ. eigenvalues --   -0.46274  -0.45529  -0.45342  -0.44621  -0.43450
 Alpha  occ. eigenvalues --   -0.37368  -0.36382
 Alpha virt. eigenvalues --    0.04962   0.11190   0.16452   0.20724   0.23226
 Alpha virt. eigenvalues --    0.24105   0.26408   0.27041   0.27693   0.27995
 Alpha virt. eigenvalues --    0.29174   0.30472   0.31509   0.31682   0.32259

 Mulliken charges:
               1
     1  C   -0.299157
     2  C   -0.299334
     3  C   -0.475530
     4  H    0.146988
     5  H    0.156510
     6  H    0.149457
     7  H    0.151927
     8  H    0.157777
     9  H    0.153858
    10  H    0.158654
    11  C   -0.297880
    12  C   -0.309948
    13  C   -0.475340
    14  H    0.145130
    15  H    0.149594
    16  H    0.145357
    17  H    0.175452
    18  H    0.158391
    19  H    0.150709
    20  H    0.151312
    21  C   -0.170660
    22  C   -0.218828
    23  C   -0.170971
    24  C    0.158648
    25  C   -0.171127
    26  C   -0.220189
    27  H    0.225822
    28  H    0.223578
    29  H    0.275718
    30  H    0.280235
    31  H    0.224101
    32  N    0.488870
    33  O   -0.459510
    34  O   -0.459615
 Sum of Mulliken charges =  -0.00000

 Dipole moment (field-independent basis, Debye):
    X=              2.4272    Y=              1.4783    Z=             -4.2051  Tot=              5.0754
 Quadrupole moment (field-independent basis, Debye-Ang):
   XX=            -84.9863   YY=            -93.2123   ZZ=            -96.9088
   XY=              1.4477   XZ=            -10.1700   YZ=              4.0445

 Normal termination of Gaussian 16 at Wed May  5 20:09:31 2021.
