 Gaussian 16, Revision A.03,
 Gaussian 16:  EM64L-G16RevA.03 25-Dec-2016

 -------------
 #p 6-31g* mp2
 -------------

 ------------------------------------------------------
 Input file generated by CHIRIPA (05-May-2021 14:55:20)
 ------------------------------------------------------
 Symbolic Z-matrix:
 Charge =  0 Multiplicity = 1

                         Standard orientation:
 ---------------------------------------------------------------------
 Center     Atomic      Atomic             Coordinates (Angstroms)
 Number     Number       Type             X           Y           Z
 ---------------------------------------------------------------------
      1          6           0        5.237506    0.615930    0.287116
      2          6           0        5.010980   -0.739740    0.546666
      3          6           0        3.748433   -1.301793    0.335432
      4          6           0        2.730607   -0.475343   -0.138172
      5          6           0        2.925007    0.878798   -0.406125
      6          6           0        4.195633    1.419456   -0.187614
      7          1           0        6.221420    1.044236    0.454034
      8          1           0        5.818242   -1.366162    0.915405
      9          1           0        3.545452   -2.348259    0.528111
     10          1           0        2.100585    1.478028   -0.773100
     11          1           0        4.368662    2.472606   -0.390050
     12          7           0        1.389728   -1.059038   -0.365648
     13          8           0        0.509657   -0.309643   -0.783402
     14          8           0        1.244209   -2.254881   -0.121883
     15          6           0       -3.656410    1.196932   -0.120568
     16          6           0       -2.465628    1.880198    0.552610
     17          6           0       -2.235021    3.303221    0.043078
     18          1           0       -3.493596    1.177083   -1.206866
     19          1           0       -4.559759    1.799055    0.049146
     20          1           0       -1.565047    1.276251    0.382849
     21          1           0       -2.631207    1.898252    1.637449
     22          1           0       -3.116671    3.925772    0.226717
     23          1           0       -2.044456    3.300237   -1.035011
     24          1           0       -1.379058    3.772939    0.537601
     25          6           0       -3.899686   -0.226325    0.378313
     26          6           0       -5.090467   -0.909592   -0.294867
     27          6           0       -5.321074   -2.332614    0.214666
     28          1           0       -2.996336   -0.828448    0.208597
     29          1           0       -4.062499   -0.206476    1.464611
     30          1           0       -4.924889   -0.927646   -1.379704
     31          1           0       -5.991048   -0.305645   -0.125105
     32          1           0       -5.511640   -2.329629    1.292755
     33          1           0       -4.439423   -2.955165    0.031027
     34          1           0       -6.177037   -2.802331   -0.279857
 ---------------------------------------------------------------------

 SCF Done:  E(RHF) =  -669.536544742     A.U. after   15 cycles
 E2 =    -0.2091066998D+01 EUMP2 =    -0.67162761174000D+03

 The electronic state is 1-A.
 Alpha  occ. eigenvalues --  -20.61040 -20.61031 -15.86060 -11.31334 -11.27893
 Alpha  occ. eigenvalues --  -11.27888 -11.27625 -11.26892 -11.26882 -11.20611
 Alpha  occ. eigenvalues --  -11.20448 -11.20348 -11.20299 -11.20164 -11.20150
 Alpha  occ. eigenvalues --   -1.60091  -1.39649  -1.19500  -1.08913  -1.07342
 Alpha  occ. eigenvalues --   -1.04889  -1.02548  -0.95762  -0.95028  -0.86292
 Alpha  occ. eigenvalues --   -0.86049  -0.82600  -0.78605  -0.77658  -0.77141
 Alpha  occ. eigenvalues --   -0.72288  -0.71397  -0.70609  -0.65159  -0.64892
 Alpha  occ. eigenvalues --   -0.63944  -0.62237  -0.59930  -0.58409  -0.56642
 Alpha  occ. eigenvalues --   -0.55397  -0.54308  -0.53224  -0.52980  -0.51769
 Alpha  occ. eigenvalues --   -0.51461  -0.49059  -0.49049  -0.48939  -0.46943
 Alpha  occ. eigenvalues --   -0.45664  -0.45088  -0.44714  -0.44425  -0.42783
 Alpha  occ. eigenvalues --   -0.37476  -0.36488
 Alpha virt. eigenvalues --    0.04832   0.11167   0.16304   0.21229   0.23922
 Alpha virt. eigenvalues --    0.25084   0.27199   0.27613   0.28124   0.28864
 Alpha virt. eigenvalues --    0.28923   0.30866   0.32092   0.32445   0.32610

 Mulliken charges:
               1
     1  C   -0.170458
     2  C   -0.218595
     3  C   -0.170675
     4  C    0.157931
     5  C   -0.170691
     6  C   -0.218588
     7  H    0.226188
     8  H    0.223959
     9  H    0.275887
    10  H    0.276212
    11  H    0.224168
    12  N    0.490747
    13  O   -0.463061
    14  O   -0.458454
    15  C   -0.295525
    16  C   -0.310588
    17  C   -0.474550
    18  H    0.150946
    19  H    0.143350
    20  H    0.175563
    21  H    0.145761
    22  H    0.151947
    23  H    0.154397
    24  H    0.152392
    25  C   -0.302831
    26  C   -0.298761
    27  C   -0.475976
    28  H    0.166215
    29  H    0.144712
    30  H    0.152127
    31  H    0.147496
    32  H    0.152552
    33  H    0.159680
    34  H    0.156524
 Sum of Mulliken charges =  -0.00000

 Dipole moment (field-independent basis, Debye):
    X=              5.0607    Y=              1.8629    Z=              0.7362  Tot=              5.4427
 Quadrupole moment (field-independent basis, Debye-Ang):
   XX=            -69.7141   YY=            -94.4800   ZZ=            -95.0295
   XY=              1.6060   XZ=              2.0961   YZ=             -1.8293

 Normal termination of Gaussian 16 at Thu May  6 10:49:38 2021.
