 Gaussian 16, Revision A.03,
 Gaussian 16:  EM64L-G16RevA.03 25-Dec-2016

 -------------
 #p 6-31g* mp2
 -------------

 ------------------------------------------------------
 Input file generated by CHIRIPA (05-May-2021 14:53:12)
 ------------------------------------------------------
 Symbolic Z-matrix:
 Charge =  0 Multiplicity = 1

                         Standard orientation:
 ---------------------------------------------------------------------
 Center     Atomic      Atomic             Coordinates (Angstroms)
 Number     Number       Type             X           Y           Z
 ---------------------------------------------------------------------
      1          6           0        2.816118   -0.574581   -0.415824
      2          6           0        2.982948   -1.518375    0.775564
      3          6           0        3.405582   -2.927455    0.358831
      4          1           0        2.070830   -0.993483   -1.105760
      5          1           0        3.763078   -0.525230   -0.971006
      6          1           0        2.036363   -1.564855    1.329127
      7          1           0        3.727786   -1.097082    1.462838
      8          1           0        4.361330   -2.901075   -0.174509
      9          1           0        2.660297   -3.371507   -0.308979
     10          1           0        3.519023   -3.585516    1.225980
     11          6           0        2.393837    0.837858   -0.015296
     12          6           0        2.227007    1.781652   -1.206685
     13          6           0        1.804373    3.190733   -0.789952
     14          1           0        1.446877    0.788507    0.539886
     15          1           0        3.139125    1.256761    0.674639
     16          1           0        1.482169    1.360359   -1.893959
     17          1           0        3.173592    1.828133   -1.760248
     18          1           0        2.549658    3.634784   -0.122142
     19          1           0        0.848625    3.164353   -0.256612
     20          1           0        1.690932    3.848793   -1.657101
     21          6           0       -2.569323   -2.177034   -1.165123
     22          6           0       -2.147529   -2.288588    0.163848
     23          6           0       -1.848835   -1.146118    0.912240
     24          6           0       -1.983496    0.097683    0.297327
     25          6           0       -2.401437    0.241529   -1.024763
     26          6           0       -2.694710   -0.914557   -1.754150
     27          1           0       -2.799250   -3.069821   -1.739110
     28          1           0       -2.049252   -3.267746    0.623889
     29          1           0       -1.520265   -1.203623    1.942849
     30          1           0       -2.489917    1.231283   -1.456015
     31          1           0       -3.022066   -0.824897   -2.786062
     32          7           0       -1.670152    1.314372    1.079556
     33          8           0       -1.796798    2.398611    0.514736
     34          8           0       -1.303839    1.160735    2.242676
 ---------------------------------------------------------------------

 SCF Done:  E(RHF) =  -669.536577113     A.U. after   15 cycles
 E2 =    -0.2093134769D+01 EUMP2 =    -0.67162971188217D+03

 The electronic state is 1-A.
 Alpha  occ. eigenvalues --  -20.61068 -20.61059 -15.86067 -11.31371 -11.27925
 Alpha  occ. eigenvalues --  -11.27917 -11.27647 -11.26922 -11.26912 -11.21499
 Alpha  occ. eigenvalues --  -11.21167 -11.21120 -11.21077 -11.20925 -11.20082
 Alpha  occ. eigenvalues --   -1.60114  -1.39670  -1.19530  -1.08939  -1.08105
 Alpha  occ. eigenvalues --   -1.04918  -1.03163  -0.95787  -0.95586  -0.86600
 Alpha  occ. eigenvalues --   -0.86319  -0.82617  -0.79246  -0.77889  -0.77673
 Alpha  occ. eigenvalues --   -0.72291  -0.71437  -0.70631  -0.65183  -0.64916
 Alpha  occ. eigenvalues --   -0.64739  -0.62263  -0.60559  -0.59010  -0.57196
 Alpha  occ. eigenvalues --   -0.55421  -0.54880  -0.53245  -0.53006  -0.52290
 Alpha  occ. eigenvalues --   -0.52001  -0.49544  -0.49065  -0.49046  -0.47544
 Alpha  occ. eigenvalues --   -0.46312  -0.45417  -0.45332  -0.44988  -0.43423
 Alpha  occ. eigenvalues --   -0.37497  -0.36512
 Alpha virt. eigenvalues --    0.04801   0.11088   0.16272   0.21151   0.22876
 Alpha virt. eigenvalues --    0.24525   0.26355   0.27143   0.27660   0.28267
 Alpha virt. eigenvalues --    0.28635   0.30949   0.31472   0.31958   0.32145

 Mulliken charges:
               1
     1  C   -0.297858
     2  C   -0.298374
     3  C   -0.475434
     4  H    0.146525
     5  H    0.148676
     6  H    0.149285
     7  H    0.154176
     8  H    0.155920
     9  H    0.151219
    10  H    0.158865
    11  C   -0.299217
    12  C   -0.299173
    13  C   -0.485710
    14  H    0.150423
    15  H    0.151906
    16  H    0.145434
    17  H    0.148717
    18  H    0.153312
    19  H    0.177781
    20  H    0.155382
    21  C   -0.170563
    22  C   -0.218492
    23  C   -0.171839
    24  C    0.157457
    25  C   -0.171080
    26  C   -0.218537
    27  H    0.226454
    28  H    0.224484
    29  H    0.276365
    30  H    0.276465
    31  H    0.224320
    32  N    0.488600
    33  O   -0.457944
    34  O   -0.457546
 Sum of Mulliken charges =  -0.00000

 Dipole moment (field-independent basis, Debye):
    X=             -1.2951    Y=             -4.2228    Z=             -2.6483  Tot=              5.1501
 Quadrupole moment (field-independent basis, Debye-Ang):
   XX=            -90.1177   YY=            -95.4935   ZZ=            -93.6188
   XY=              8.4225   XZ=              6.6890   YZ=             -3.9562

 Normal termination of Gaussian 16 at Thu May  6 08:49:50 2021.
