 Gaussian 16, Revision A.03,
 Gaussian 16:  EM64L-G16RevA.03 25-Dec-2016

 -------------
 #p 6-31g* mp2
 -------------

 ------------------------------------------------------
 Input file generated by CHIRIPA (05-May-2021 14:51:08)
 ------------------------------------------------------
 Symbolic Z-matrix:
 Charge =  0 Multiplicity = 1

                         Standard orientation:
 ---------------------------------------------------------------------
 Center     Atomic      Atomic             Coordinates (Angstroms)
 Number     Number       Type             X           Y           Z
 ---------------------------------------------------------------------
      1          6           0       -3.508156   -0.515305   -0.320677
      2          6           0       -3.522176   -1.748669    0.582983
      3          6           0       -2.951613   -2.990451   -0.102752
      4          1           0       -4.083311   -0.729638   -1.231832
      5          1           0       -2.476335   -0.316431   -0.641908
      6          1           0       -4.553475   -1.944340    0.903531
      7          1           0       -2.947082   -1.531310    1.492179
      8          1           0       -1.914127   -2.819643   -0.407790
      9          1           0       -3.529648   -3.235019   -0.999782
     10          1           0       -2.971210   -3.860370    0.561113
     11          6           0       -4.075446    0.734133    0.350752
     12          6           0       -4.061426    1.967497   -0.552908
     13          6           0       -4.631989    3.209278    0.132827
     14          1           0       -5.107267    0.535259    0.671982
     15          1           0       -3.500291    0.948466    1.261907
     16          1           0       -4.636520    1.750138   -1.462104
     17          1           0       -3.030127    2.163168   -0.873456
     18          1           0       -4.053954    3.453847    1.029857
     19          1           0       -5.669475    3.038470    0.437864
     20          1           0       -4.612392    4.079198   -0.531038
     21          6           0        3.030998   -0.100221    0.052233
     22          6           0        2.381582   -1.457077   -0.221967
     23          6           0        0.859274   -1.422635   -0.083465
     24          1           0        2.760870    0.230571    1.064435
     25          1           0        2.615551    0.644112   -0.641141
     26          1           0        2.799140   -2.198926    0.470797
     27          1           0        2.653444   -1.784767   -1.233564
     28          1           0        0.424743   -0.703655   -0.785499
     29          1           0        0.571267   -1.120167    0.928545
     30          1           0        0.415647   -2.402911   -0.283748
     31          6           0        4.552605   -0.118607   -0.082307
     32          6           0        5.202019    1.238250    0.191893
     33          6           0        6.724328    1.203807    0.053390
     34          1           0        4.968051   -0.862940    0.611066
     35          1           0        4.822732   -0.449400   -1.094510
     36          1           0        4.930158    1.565940    1.203489
     37          1           0        4.784463    1.980098   -0.500872
     38          1           0        7.012335    0.901339   -0.958620
     39          1           0        7.158859    0.484827    0.755424
     40          1           0        7.167956    2.184083    0.253674
 ---------------------------------------------------------------------

 SCF Done:  E(RHF) =  -470.733135544     A.U. after   11 cycles
 E2 =    -0.1582829031D+01 EUMP2 =    -0.47231596457519D+03

 The electronic state is 1-A.
 Alpha  occ. eigenvalues --  -11.21671 -11.21634 -11.21561 -11.21507 -11.21455
 Alpha  occ. eigenvalues --  -11.21394 -11.21331 -11.21262 -11.21176 -11.21096
 Alpha  occ. eigenvalues --  -11.21040 -11.20929  -1.08483  -1.08354  -1.03594
 Alpha  occ. eigenvalues --   -1.03450  -0.96054  -0.95897  -0.87080  -0.86911
 Alpha  occ. eigenvalues --   -0.79679  -0.79502  -0.78297  -0.78163  -0.65112
 Alpha  occ. eigenvalues --   -0.64986  -0.60983  -0.60886  -0.59434  -0.59261
 Alpha  occ. eigenvalues --   -0.57697  -0.57485  -0.55337  -0.55201  -0.52805
 Alpha  occ. eigenvalues --   -0.52604  -0.52491  -0.52248  -0.49988  -0.49823
 Alpha  occ. eigenvalues --   -0.47962  -0.47835  -0.46703  -0.46539  -0.45867
 Alpha  occ. eigenvalues --   -0.45768  -0.45700  -0.45588  -0.43793  -0.43710
 Alpha virt. eigenvalues --    0.21352   0.22944   0.23743   0.24727   0.25770
 Alpha virt. eigenvalues --    0.26553   0.26939   0.27343   0.27858   0.29074
 Alpha virt. eigenvalues --    0.30219   0.30930   0.31395   0.31839   0.32155

 Mulliken charges:
               1
     1  C   -0.301519
     2  C   -0.298265
     3  C   -0.482851
     4  H    0.149070
     5  H    0.153308
     6  H    0.151292
     7  H    0.151752
     8  H    0.163246
     9  H    0.154314
    10  H    0.159217
    11  C   -0.298105
    12  C   -0.299540
    13  C   -0.475644
    14  H    0.149281
    15  H    0.149519
    16  H    0.151786
    17  H    0.151638
    18  H    0.155122
    19  H    0.155124
    20  H    0.160034
    21  C   -0.298767
    22  C   -0.299952
    23  C   -0.480413
    24  H    0.149628
    25  H    0.149505
    26  H    0.152412
    27  H    0.152417
    28  H    0.155996
    29  H    0.155638
    30  H    0.164191
    31  C   -0.298314
    32  C   -0.299659
    33  C   -0.475734
    34  H    0.149669
    35  H    0.149808
    36  H    0.151959
    37  H    0.151972
    38  H    0.155256
    39  H    0.155245
    40  H    0.160363
 Sum of Mulliken charges =  -0.00000

 Dipole moment (field-independent basis, Debye):
    X=              0.0655    Y=             -0.0033    Z=             -0.0040  Tot=              0.0657
 Quadrupole moment (field-independent basis, Debye-Ang):
   XX=            -85.4249   YY=            -85.7401   ZZ=            -83.8091
   XY=              0.3444   XZ=              0.6182   YZ=             -0.4903

 Normal termination of Gaussian 16 at Wed May  5 16:36:19 2021.
