 Gaussian 16, Revision A.03,
 Gaussian 16:  EM64L-G16RevA.03 25-Dec-2016

 -------------
 #p 6-31g* mp2
 -------------

 ------------------------------------------------------
 Input file generated by CHIRIPA (05-May-2021 14:53:15)
 ------------------------------------------------------
 Symbolic Z-matrix:
 Charge =  0 Multiplicity = 1

                         Standard orientation:
 ---------------------------------------------------------------------
 Center     Atomic      Atomic             Coordinates (Angstroms)
 Number     Number       Type             X           Y           Z
 ---------------------------------------------------------------------
      1          6           0       -3.947005   -0.950441   -0.061905
      2          6           0       -2.430152   -1.123615    0.022669
      3          6           0       -2.002458   -2.591520    0.033866
      4          1           0       -4.416278   -1.464090    0.788326
      5          1           0       -4.315773   -1.447697   -0.969727
      6          1           0       -2.064181   -0.624994    0.929343
      7          1           0       -1.964423   -0.609332   -0.827757
      8          1           0       -2.339735   -3.097999   -0.876257
      9          1           0       -2.440059   -3.113750    0.890827
     10          1           0       -0.914331   -2.692185    0.094746
     11          6           0       -4.390109    0.511489   -0.074030
     12          6           0       -5.906962    0.684663   -0.158604
     13          6           0       -6.334656    2.152568   -0.169801
     14          1           0       -4.021341    1.008745    0.833792
     15          1           0       -3.920836    1.025138   -0.924261
     16          1           0       -6.372690    0.170380    0.691823
     17          1           0       -6.272933    0.186042   -1.065278
     18          1           0       -5.897054    2.674798   -1.026762
     19          1           0       -5.997379    2.659047    0.740322
     20          1           0       -7.422783    2.253233   -0.230681
     21          6           0        3.944319    2.598328   -0.005386
     22          6           0        4.754417    1.626659   -0.602146
     23          6           0        4.383328    0.279014   -0.575814
     24          6           0        3.190207   -0.063155    0.058753
     25          6           0        2.361743    0.881653    0.662306
     26          6           0        2.752668    2.223385    0.623826
     27          1           0        4.240295    3.642915   -0.030561
     28          1           0        5.680409    1.914941   -1.091509
     29          1           0        4.991645   -0.493770   -1.029876
     30          1           0        1.444368    0.563682    1.142654
     31          1           0        2.121561    2.975842    1.088107
     32          7           0        2.786851   -1.486716    0.093061
     33          8           0        1.730899   -1.762334    0.658424
     34          8           0        3.534291   -2.299930   -0.446063
 ---------------------------------------------------------------------

 SCF Done:  E(RHF) =  -669.536307240     A.U. after   15 cycles
 E2 =    -0.2090875906D+01 EUMP2 =    -0.67162718314610D+03

 The electronic state is 1-A.
 Alpha  occ. eigenvalues --  -20.60941 -20.60935 -15.85974 -11.31275 -11.27839
 Alpha  occ. eigenvalues --  -11.27830 -11.27576 -11.26843 -11.26832 -11.21409
 Alpha  occ. eigenvalues --  -11.21126 -11.20972 -11.20952 -11.20883 -11.19866
 Alpha  occ. eigenvalues --   -1.60000  -1.39557  -1.19443  -1.08852  -1.08027
 Alpha  occ. eigenvalues --   -1.04837  -1.03027  -0.95700  -0.95445  -0.86465
 Alpha  occ. eigenvalues --   -0.86238  -0.82531  -0.79130  -0.77831  -0.77584
 Alpha  occ. eigenvalues --   -0.72202  -0.71313  -0.70553  -0.65101  -0.64840
 Alpha  occ. eigenvalues --   -0.64670  -0.62183  -0.60441  -0.58847  -0.57028
 Alpha  occ. eigenvalues --   -0.55344  -0.54763  -0.53171  -0.52929  -0.52078
 Alpha  occ. eigenvalues --   -0.51869  -0.49425  -0.48958  -0.48942  -0.47415
 Alpha  occ. eigenvalues --   -0.46199  -0.45363  -0.45297  -0.44964  -0.43244
 Alpha  occ. eigenvalues --   -0.37423  -0.36437
 Alpha virt. eigenvalues --    0.04918   0.11217   0.16398   0.21206   0.23194
 Alpha virt. eigenvalues --    0.24674   0.26663   0.27188   0.27621   0.28325
 Alpha virt. eigenvalues --    0.28846   0.30691   0.31663   0.31950   0.32581

 Mulliken charges:
               1
     1  C   -0.297434
     2  C   -0.296878
     3  C   -0.487486
     4  H    0.149235
     5  H    0.149183
     6  H    0.146865
     7  H    0.148038
     8  H    0.149993
     9  H    0.150957
    10  H    0.189884
    11  C   -0.297334
    12  C   -0.299185
    13  C   -0.475341
    14  H    0.146342
    15  H    0.147539
    16  H    0.152090
    17  H    0.152201
    18  H    0.154046
    19  H    0.153698
    20  H    0.159847
    21  C   -0.170556
    22  C   -0.218658
    23  C   -0.170634
    24  C    0.157671
    25  C   -0.170808
    26  C   -0.218648
    27  H    0.225958
    28  H    0.223727
    29  H    0.275769
    30  H    0.276611
    31  H    0.224006
    32  N    0.491315
    33  O   -0.463255
    34  O   -0.458757
 Sum of Mulliken charges =  -0.00000

 Dipole moment (field-independent basis, Debye):
    X=              1.6814    Y=              4.9439    Z=             -0.1168  Tot=              5.2234
 Quadrupole moment (field-independent basis, Debye-Ang):
   XX=            -83.3432   YY=            -96.5612   ZZ=            -93.1915
   XY=             15.4920   XZ=             -2.8899   YZ=              1.0284

 Normal termination of Gaussian 16 at Thu May  6 02:41:53 2021.
