 Gaussian 16, Revision A.03,
 Gaussian 16:  EM64L-G16RevA.03 25-Dec-2016

 -------------
 #p 6-31g* mp2
 -------------

 ------------------------------------------------------
 Input file generated by CHIRIPA (05-May-2021 14:55:24)
 ------------------------------------------------------
 Symbolic Z-matrix:
 Charge =  0 Multiplicity = 1

                         Standard orientation:
 ---------------------------------------------------------------------
 Center     Atomic      Atomic             Coordinates (Angstroms)
 Number     Number       Type             X           Y           Z
 ---------------------------------------------------------------------
      1          6           0        3.292988    2.015256    0.963868
      2          6           0        4.206967    0.956468    0.952363
      3          6           0        3.854421   -0.279882    0.403093
      4          6           0        2.573715   -0.423131   -0.128472
      5          6           0        1.640817    0.612717   -0.131829
      6          6           0        2.015083    1.840309    0.422689
      7          1           0        3.575290    2.972281    1.392592
      8          1           0        5.200098    1.089462    1.371944
      9          1           0        4.542336   -1.116367    0.381110
     10          1           0        0.658122    0.449878   -0.557519
     11          1           0        1.303214    2.660816    0.430253
     12          7           0        2.188993   -1.727364   -0.712737
     13          8           0        1.054520   -1.828015   -1.174773
     14          8           0        3.029206   -2.624275   -0.697586
     15          6           0       -3.294592   -0.492221    0.005477
     16          6           0       -4.219171   -1.246321    0.961757
     17          6           0       -4.045566   -2.763146    0.878700
     18          1           0       -3.487085   -0.829010   -1.022368
     19          1           0       -2.251878   -0.755746    0.230637
     20          1           0       -5.259760   -0.980390    0.735767
     21          1           0       -4.024589   -0.907559    1.987425
     22          1           0       -3.017360   -3.047275    1.125000
     23          1           0       -4.259549   -3.120521   -0.133770
     24          1           0       -4.716032   -3.282450    1.570551
     25          6           0       -3.456438    1.025156    0.076898
     26          6           0       -2.531859    1.779256   -0.879382
     27          6           0       -2.705465    3.296081   -0.796324
     28          1           0       -4.499153    1.288680   -0.148262
     29          1           0       -3.263946    1.361945    1.104743
     30          1           0       -2.726441    1.440494   -1.905049
     31          1           0       -1.491271    1.513325   -0.653391
     32          1           0       -2.491482    3.653455    0.216146
     33          1           0       -3.733670    3.580210   -1.042625
     34          1           0       -2.034999    3.815385   -1.488176
 ---------------------------------------------------------------------

 SCF Done:  E(RHF) =  -669.535570110     A.U. after   15 cycles
 E2 =    -0.2091680822D+01 EUMP2 =    -0.67162725093153D+03

 The electronic state is 1-A.
 Alpha  occ. eigenvalues --  -20.60783 -20.60778 -15.85830 -11.31185 -11.27758
 Alpha  occ. eigenvalues --  -11.27734 -11.27502 -11.26776 -11.26759 -11.22107
 Alpha  occ. eigenvalues --  -11.21597 -11.21562 -11.21414 -11.21220 -11.20691
 Alpha  occ. eigenvalues --   -1.59855  -1.39408  -1.19360  -1.08758  -1.08521
 Alpha  occ. eigenvalues --   -1.04765  -1.03629  -0.96049  -0.95595  -0.87068
 Alpha  occ. eigenvalues --   -0.86162  -0.82427  -0.79743  -0.78262  -0.77466
 Alpha  occ. eigenvalues --   -0.72049  -0.71177  -0.70480  -0.65194  -0.65008
 Alpha  occ. eigenvalues --   -0.64756  -0.62146  -0.61007  -0.59464  -0.57645
 Alpha  occ. eigenvalues --   -0.55336  -0.55263  -0.53094  -0.52887  -0.52765
 Alpha  occ. eigenvalues --   -0.52448  -0.49994  -0.48808  -0.48804  -0.48021
 Alpha  occ. eigenvalues --   -0.46791  -0.45795  -0.45694  -0.44811  -0.43859
 Alpha  occ. eigenvalues --   -0.37344  -0.36366
 Alpha virt. eigenvalues --    0.05048   0.11275   0.16548   0.19380   0.23083
 Alpha virt. eigenvalues --    0.24038   0.24719   0.26883   0.27348   0.28281
 Alpha virt. eigenvalues --    0.29443   0.31219   0.31513   0.31589   0.32032

 Mulliken charges:
               1
     1  C   -0.170708
     2  C   -0.218941
     3  C   -0.170296
     4  C    0.160767
     5  C   -0.182812
     6  C   -0.221957
     7  H    0.225655
     8  H    0.223509
     9  H    0.275566
    10  H    0.287504
    11  H    0.224343
    12  N    0.487562
    13  O   -0.460452
    14  O   -0.460251
    15  C   -0.300786
    16  C   -0.300040
    17  C   -0.476102
    18  H    0.153694
    19  H    0.155153
    20  H    0.150580
    21  H    0.149820
    22  H    0.160452
    23  H    0.157302
    24  H    0.158524
    25  C   -0.298267
    26  C   -0.302723
    27  C   -0.476620
    28  H    0.151104
    29  H    0.147594
    30  H    0.158572
    31  H    0.141741
    32  H    0.152242
    33  H    0.159661
    34  H    0.158612
 Sum of Mulliken charges =  -0.00000

 Dipole moment (field-independent basis, Debye):
    X=              1.2672    Y=              4.4956    Z=              2.0069  Tot=              5.0837
 Quadrupole moment (field-independent basis, Debye-Ang):
   XX=            -82.8908   YY=            -99.7677   ZZ=            -95.3264
   XY=              9.6429   XZ=              7.2172   YZ=             -1.7825

 Normal termination of Gaussian 16 at Thu May  6 19:19:23 2021.
