 Gaussian 16, Revision A.03,
 Gaussian 16:  EM64L-G16RevA.03 25-Dec-2016

 -------------
 #p 6-31g* mp2
 -------------

 ------------------------------------------------------
 Input file generated by CHIRIPA (05-May-2021 14:51:12)
 ------------------------------------------------------
 Symbolic Z-matrix:
 Charge =  0 Multiplicity = 1

                         Standard orientation:
 ---------------------------------------------------------------------
 Center     Atomic      Atomic             Coordinates (Angstroms)
 Number     Number       Type             X           Y           Z
 ---------------------------------------------------------------------
      1          6           0       -2.393985   -0.748022    0.734137
      2          6           0       -1.241789   -1.647468    0.285330
      3          6           0       -0.269433   -1.972786    1.419563
      4          1           0       -1.983943    0.184193    1.146189
      5          1           0       -2.936276   -1.239999    1.553450
      6          1           0       -0.702676   -1.154556   -0.533823
      7          1           0       -1.654628   -2.577569   -0.125877
      8          1           0       -0.787544   -2.486823    2.235606
      9          1           0        0.169817   -1.055724    1.825343
     10          1           0        0.546353   -2.616820    1.076673
     11          6           0       -3.374518   -0.413958   -0.388665
     12          6           0       -4.526713    0.485488    0.060142
     13          6           0       -5.499070    0.810806   -1.074091
     14          1           0       -2.832226    0.078019   -1.207978
     15          1           0       -3.784559   -1.346172   -0.800717
     16          1           0       -4.113875    1.415590    0.471349
     17          1           0       -5.065827   -0.007424    0.879294
     18          1           0       -5.938319   -0.106256   -1.479872
     19          1           0       -4.980958    1.324843   -1.890135
     20          1           0       -6.314856    1.454840   -0.731201
     21          6           0        3.001954   -0.142230    0.042974
     22          6           0        3.580698   -1.019664   -1.067500
     23          6           0        3.810589   -2.463713   -0.620660
     24          1           0        3.682486   -0.156795    0.905301
     25          1           0        2.052745   -0.576247    0.386525
     26          1           0        4.527845   -0.583366   -1.409809
     27          1           0        2.898804   -1.002855   -1.927358
     28          1           0        2.869873   -2.921564   -0.298126
     29          1           0        4.508170   -2.499692    0.222363
     30          1           0        4.224648   -3.073276   -1.429885
     31          6           0        2.766548    1.304210   -0.388445
     32          6           0        2.187804    2.181643    0.722028
     33          6           0        1.957914    3.625692    0.275188
     34          1           0        3.715756    1.738227   -0.731996
     35          1           0        2.086017    1.318774   -1.250773
     36          1           0        2.869698    2.164835    1.581885
     37          1           0        1.240657    1.745346    1.064337
     38          1           0        1.260333    3.661671   -0.567835
     39          1           0        2.898628    4.083545   -0.047346
     40          1           0        1.543854    4.235257    1.084414
 ---------------------------------------------------------------------

 SCF Done:  E(RHF) =  -470.732715815     A.U. after   11 cycles
 E2 =    -0.1583981569D+01 EUMP2 =    -0.47231669738340D+03

 The electronic state is 1-A.
 Alpha  occ. eigenvalues --  -11.21702 -11.21642 -11.21641 -11.21569 -11.21474
 Alpha  occ. eigenvalues --  -11.21411 -11.21374 -11.21243 -11.21145 -11.21104
 Alpha  occ. eigenvalues --  -11.21102 -11.21064  -1.08508  -1.08404  -1.03609
 Alpha  occ. eigenvalues --   -1.03523  -0.96063  -0.95964  -0.87079  -0.86983
 Alpha  occ. eigenvalues --   -0.79680  -0.79581  -0.78316  -0.78214  -0.65289
 Alpha  occ. eigenvalues --   -0.64925  -0.61049  -0.60912  -0.59476  -0.59274
 Alpha  occ. eigenvalues --   -0.57676  -0.57569  -0.55494  -0.55129  -0.52763
 Alpha  occ. eigenvalues --   -0.52670  -0.52492  -0.52377  -0.50093  -0.49845
 Alpha  occ. eigenvalues --   -0.48010  -0.47872  -0.46748  -0.46621  -0.45900
 Alpha  occ. eigenvalues --   -0.45789  -0.45738  -0.45491  -0.43831  -0.43767
 Alpha virt. eigenvalues --    0.19686   0.22675   0.23602   0.24145   0.26118
 Alpha virt. eigenvalues --    0.26453   0.26591   0.27571   0.27782   0.29586
 Alpha virt. eigenvalues --    0.30493   0.31114   0.31781   0.32043   0.32158

 Mulliken charges:
               1
     1  C   -0.298711
     2  C   -0.301625
     3  C   -0.484266
     4  H    0.149759
     5  H    0.150110
     6  H    0.152192
     7  H    0.152773
     8  H    0.157383
     9  H    0.157833
    10  H    0.163543
    11  C   -0.298266
    12  C   -0.299760
    13  C   -0.475748
    14  H    0.149365
    15  H    0.149883
    16  H    0.152117
    17  H    0.152073
    18  H    0.155244
    19  H    0.155216
    20  H    0.160451
    21  C   -0.310176
    22  C   -0.298925
    23  C   -0.478676
    24  H    0.148875
    25  H    0.165153
    26  H    0.151674
    27  H    0.151273
    28  H    0.157127
    29  H    0.155430
    30  H    0.160256
    31  C   -0.297544
    32  C   -0.301014
    33  C   -0.475636
    34  H    0.149451
    35  H    0.148678
    36  H    0.152375
    37  H    0.151378
    38  H    0.154912
    39  H    0.155598
    40  H    0.160221
 Sum of Mulliken charges =  -0.00000

 Dipole moment (field-independent basis, Debye):
    X=             -0.0339    Y=             -0.0217    Z=              0.0265  Tot=              0.0482
 Quadrupole moment (field-independent basis, Debye-Ang):
   XX=            -84.2648   YY=            -85.2983   ZZ=            -85.1884
   XY=              1.2110   XZ=             -0.3970   YZ=              0.2605

 Normal termination of Gaussian 16 at Wed May  5 21:31:14 2021.
