 Gaussian 16, Revision A.03,
 Gaussian 16:  EM64L-G16RevA.03 25-Dec-2016

 -------------
 #p 6-31g* mp2
 -------------

 ------------------------------------------------------
 Input file generated by CHIRIPA (05-May-2021 14:55:24)
 ------------------------------------------------------
 Symbolic Z-matrix:
 Charge =  0 Multiplicity = 1

                         Standard orientation:
 ---------------------------------------------------------------------
 Center     Atomic      Atomic             Coordinates (Angstroms)
 Number     Number       Type             X           Y           Z
 ---------------------------------------------------------------------
      1          6           0       -0.487710   -0.576914    0.566621
      2          6           0       -1.321364   -0.039501    1.552892
      3          6           0       -2.679080    0.173324    1.296260
      4          6           0       -3.171946   -0.164170    0.036708
      5          6           0       -2.366833   -0.701249   -0.966601
      6          6           0       -1.012180   -0.905493   -0.687766
      7          1           0        0.565807   -0.738909    0.774603
      8          1           0       -0.916798    0.216614    2.527969
      9          1           0       -3.346947    0.587923    2.041565
     10          1           0       -2.799046   -0.946692   -1.929081
     11          1           0       -0.367110   -1.323007   -1.455628
     12          7           0       -4.607677    0.056597   -0.246730
     13          8           0       -5.017475   -0.249064   -1.364439
     14          8           0       -5.296021    0.531115    0.654188
     15          6           0        4.261500   -0.305727    0.006303
     16          6           0        3.643980   -1.701474   -0.086132
     17          6           0        4.665349   -2.816100    0.142361
     18          1           0        5.070912   -0.220225   -0.731589
     19          1           0        4.725326   -0.182322    0.994753
     20          1           0        3.180252   -1.821710   -1.073612
     21          1           0        2.835817   -1.783598    0.651935
     22          1           0        5.120457   -2.724265    1.133846
     23          1           0        5.466849   -2.762593   -0.601504
     24          1           0        4.202516   -3.805377    0.071825
     25          6           0        3.252919    0.819147   -0.219863
     26          6           0        3.870439    2.214895   -0.127427
     27          6           0        2.849069    3.329520   -0.355920
     28          1           0        2.789093    0.695741   -1.208312
     29          1           0        2.443506    0.733645    0.518029
     30          1           0        4.678602    2.297019   -0.865495
     31          1           0        4.334166    2.335130    0.860051
     32          1           0        2.047569    3.276013    0.387945
     33          1           0        2.393961    3.237686   -1.347407
     34          1           0        3.311902    4.318798   -0.285384
 ---------------------------------------------------------------------

 SCF Done:  E(RHF) =  -669.535134496     A.U. after   15 cycles
 E2 =    -0.2092155168D+01 EUMP2 =    -0.67162728966366D+03

 The electronic state is 1-A.
 Alpha  occ. eigenvalues --  -20.60703 -20.60698 -15.85757 -11.31105 -11.27681
 Alpha  occ. eigenvalues --  -11.27674 -11.27345 -11.26683 -11.26662 -11.22866
 Alpha  occ. eigenvalues --  -11.22498 -11.22413 -11.22390 -11.22019 -11.21714
 Alpha  occ. eigenvalues --   -1.59780  -1.39334  -1.19275  -1.09477  -1.08664
 Alpha  occ. eigenvalues --   -1.04679  -1.04474  -0.96891  -0.95508  -0.87904
 Alpha  occ. eigenvalues --   -0.86073  -0.82352  -0.80570  -0.79325  -0.77396
 Alpha  occ. eigenvalues --   -0.71975  -0.71103  -0.70398  -0.66099  -0.64923
 Alpha  occ. eigenvalues --   -0.64682  -0.62030  -0.61871  -0.60272  -0.58521
 Alpha  occ. eigenvalues --   -0.56181  -0.55203  -0.53557  -0.53315  -0.52992
 Alpha  occ. eigenvalues --   -0.52769  -0.50835  -0.48869  -0.48736  -0.48731
 Alpha  occ. eigenvalues --   -0.47615  -0.46778  -0.46730  -0.44747  -0.44744
 Alpha  occ. eigenvalues --   -0.37228  -0.36289
 Alpha virt. eigenvalues --    0.05119   0.11353   0.16542   0.19374   0.22609
 Alpha virt. eigenvalues --    0.23455   0.24392   0.25461   0.27101   0.27803
 Alpha virt. eigenvalues --    0.29787   0.30256   0.31068   0.31192   0.31683

 Mulliken charges:
               1
     1  C   -0.175103
     2  C   -0.222007
     3  C   -0.170453
     4  C    0.158226
     5  C   -0.170838
     6  C   -0.222562
     7  H    0.237874
     8  H    0.222746
     9  H    0.275190
    10  H    0.275198
    11  H    0.223624
    12  N    0.488023
    13  O   -0.460709
    14  O   -0.460718
    15  C   -0.298704
    16  C   -0.304381
    17  C   -0.475567
    18  H    0.154415
    19  H    0.152036
    20  H    0.150563
    21  H    0.145064
    22  H    0.157835
    23  H    0.159057
    24  H    0.162546
    25  C   -0.301345
    26  C   -0.300200
    27  C   -0.476109
    28  H    0.149966
    29  H    0.142658
    30  H    0.154921
    31  H    0.153229
    32  H    0.155073
    33  H    0.157113
    34  H    0.163339
 Sum of Mulliken charges =  -0.00000

 Dipole moment (field-independent basis, Debye):
    X=              5.3393    Y=             -0.7294    Z=              0.9454  Tot=              5.4712
 Quadrupole moment (field-independent basis, Debye-Ang):
   XX=           -126.7725   YY=            -94.9959   ZZ=            -89.5203
   XY=              1.9041   XZ=             -4.0901   YZ=              1.8593

 Normal termination of Gaussian 16 at Wed May  5 20:48:16 2021.
