 Gaussian 16, Revision A.03,
 Gaussian 16:  EM64L-G16RevA.03 25-Dec-2016

 -------------
 #p 6-31g* mp2
 -------------

 ------------------------------------------------------
 Input file generated by CHIRIPA (05-May-2021 14:55:21)
 ------------------------------------------------------
 Symbolic Z-matrix:
 Charge =  0 Multiplicity = 1

                         Standard orientation:
 ---------------------------------------------------------------------
 Center     Atomic      Atomic             Coordinates (Angstroms)
 Number     Number       Type             X           Y           Z
 ---------------------------------------------------------------------
      1          6           0        4.601249    0.133162   -1.325722
      2          6           0        4.346167    1.128372   -0.376506
      3          6           0        3.263864    1.012124    0.500794
      4          6           0        2.453440   -0.117685    0.400628
      5          6           0        2.681603   -1.126196   -0.534326
      6          6           0        3.769619   -0.988968   -1.401469
      7          1           0        5.444227    0.231615   -2.003285
      8          1           0        4.990343    2.000925   -0.315396
      9          1           0        3.043462    1.767619    1.245152
     10          1           0        2.021768   -1.984496   -0.571174
     11          1           0        3.965316   -1.763429   -2.137646
     12          7           0        1.304631   -0.251858    1.324010
     13          8           0        0.605580   -1.256934    1.215442
     14          8           0        1.124997    0.650595    2.138839
     15          6           0       -3.772067   -0.529676   -0.235825
     16          6           0       -2.889177   -1.776081   -0.306273
     17          6           0       -3.682449   -3.072587   -0.140179
     18          1           0       -4.301056   -0.516763    0.726957
     19          1           0       -4.543751   -0.590925   -1.015662
     20          1           0       -2.118535   -1.711844    0.472572
     21          1           0       -2.362082   -1.785929   -1.268920
     22          1           0       -4.440668   -3.163483   -0.924681
     23          1           0       -4.195737   -3.088977    0.826707
     24          1           0       -3.031795   -3.951015   -0.193804
     25          6           0       -2.993445    0.774341   -0.400189
     26          6           0       -3.876335    2.020746   -0.329741
     27          6           0       -3.083063    3.317252   -0.495835
     28          1           0       -2.221760    0.835590    0.379648
     29          1           0       -2.464456    0.761428   -1.362971
     30          1           0       -4.403429    2.030594    0.632906
     31          1           0       -4.646977    1.956509   -1.108586
     32          1           0       -2.569775    3.333642   -1.462721
     33          1           0       -2.324844    3.408148    0.288667
     34          1           0       -3.733716    4.195679   -0.442211
 ---------------------------------------------------------------------

 SCF Done:  E(RHF) =  -669.536449830     A.U. after   15 cycles
 E2 =    -0.2091291465D+01 EUMP2 =    -0.67162774129504D+03

 The electronic state is 1-A.
 Alpha  occ. eigenvalues --  -20.60991 -20.60976 -15.86012 -11.31299 -11.27860
 Alpha  occ. eigenvalues --  -11.27855 -11.27596 -11.26862 -11.26852 -11.20860
 Alpha  occ. eigenvalues --  -11.20458 -11.20452 -11.20395 -11.20322 -11.20140
 Alpha  occ. eigenvalues --   -1.60042  -1.39598  -1.19465  -1.08877  -1.07484
 Alpha  occ. eigenvalues --   -1.04857  -1.02627  -0.95724  -0.95120  -0.86259
 Alpha  occ. eigenvalues --   -0.86140  -0.82561  -0.78689  -0.77619  -0.77270
 Alpha  occ. eigenvalues --   -0.72235  -0.71348  -0.70576  -0.65123  -0.64862
 Alpha  occ. eigenvalues --   -0.64103  -0.62205  -0.60017  -0.58490  -0.56719
 Alpha  occ. eigenvalues --   -0.55366  -0.54412  -0.53191  -0.52950  -0.51836
 Alpha  occ. eigenvalues --   -0.51546  -0.49091  -0.48991  -0.48987  -0.47021
 Alpha  occ. eigenvalues --   -0.45723  -0.45129  -0.44836  -0.44503  -0.42880
 Alpha  occ. eigenvalues --   -0.37442  -0.36457
 Alpha virt. eigenvalues --    0.04887   0.11199   0.16371   0.21316   0.23803
 Alpha virt. eigenvalues --    0.25159   0.27237   0.27591   0.27964   0.28690
 Alpha virt. eigenvalues --    0.28831   0.30938   0.32226   0.32263   0.32759

 Mulliken charges:
               1
     1  C   -0.170481
     2  C   -0.218610
     3  C   -0.170458
     4  C    0.158132
     5  C   -0.170500
     6  C   -0.218637
     7  H    0.226037
     8  H    0.223867
     9  H    0.275807
    10  H    0.276143
    11  H    0.223880
    12  N    0.490617
    13  O   -0.461488
    14  O   -0.459996
    15  C   -0.296856
    16  C   -0.310565
    17  C   -0.474562
    18  H    0.149614
    19  H    0.143838
    20  H    0.181702
    21  H    0.142877
    22  H    0.149596
    23  H    0.154769
    24  H    0.157538
    25  C   -0.301306
    26  C   -0.298498
    27  C   -0.476145
    28  H    0.161615
    29  H    0.143472
    30  H    0.152569
    31  H    0.148620
    32  H    0.151356
    33  H    0.158607
    34  H    0.157445
 Sum of Mulliken charges =  -0.00000

 Dipole moment (field-independent basis, Debye):
    X=              4.3363    Y=              0.4627    Z=             -3.0667  Tot=              5.3312
 Quadrupole moment (field-independent basis, Debye-Ang):
   XX=            -76.2873   YY=            -92.8033   ZZ=            -96.2267
   XY=              1.4327   XZ=             -6.4660   YZ=              2.8717

 Normal termination of Gaussian 16 at Thu May  6 15:48:49 2021.
