 Gaussian 16, Revision A.03,
 Gaussian 16:  EM64L-G16RevA.03 25-Dec-2016

 -------------
 #p 6-31g* mp2
 -------------

 ------------------------------------------------------
 Input file generated by CHIRIPA (05-May-2021 14:53:13)
 ------------------------------------------------------
 Symbolic Z-matrix:
 Charge =  0 Multiplicity = 1

                         Standard orientation:
 ---------------------------------------------------------------------
 Center     Atomic      Atomic             Coordinates (Angstroms)
 Number     Number       Type             X           Y           Z
 ---------------------------------------------------------------------
      1          6           0        2.785372   -0.450603   -0.379100
      2          6           0        1.799321   -1.518021    0.096618
      3          6           0        0.419484   -1.376908   -0.546756
      4          1           0        2.375203    0.543863   -0.156064
      5          1           0        2.881455   -0.511156   -1.472030
      6          1           0        1.706180   -1.456379    1.188470
      7          1           0        2.211972   -2.510064   -0.127404
      8          1           0        0.491976   -1.460084   -1.635989
      9          1           0       -0.016690   -0.400413   -0.312638
     10          1           0       -0.269573   -2.149969   -0.192586
     11          6           0        4.169221   -0.578463    0.255204
     12          6           0        5.155272    0.488955   -0.220514
     13          6           0        6.535110    0.347842    0.422860
     14          1           0        4.073139   -0.517910    1.348134
     15          1           0        4.579390   -1.572928    0.032168
     16          1           0        4.742621    1.480998    0.003508
     17          1           0        5.248413    0.427314   -1.312366
     18          1           0        6.971284   -0.628653    0.188742
     19          1           0        6.462618    0.431019    1.512093
     20          1           0        7.224167    1.120904    0.068690
     21          6           0       -1.562551    2.638635   -0.128726
     22          6           0       -1.900524    2.122807    1.126748
     23          6           0       -2.540163    0.884547    1.236843
     24          6           0       -2.828211    0.185747    0.065520
     25          6           0       -2.504241    0.673057   -1.199732
     26          6           0       -1.864955    1.913393   -1.285919
     27          1           0       -1.065801    3.601352   -0.204964
     28          1           0       -1.666897    2.683841    2.027140
     29          1           0       -2.813070    0.461719    2.196091
     30          1           0       -2.750040    0.090617   -2.079372
     31          1           0       -1.603661    2.311529   -2.262268
     32          7           0       -3.505181   -1.126243    0.169419
     33          8           0       -3.748055   -1.722322   -0.877644
     34          8           0       -3.780098   -1.533658    1.295948
 ---------------------------------------------------------------------

 SCF Done:  E(RHF) =  -669.534281595     A.U. after   15 cycles
 E2 =    -0.2093633415D+01 EUMP2 =    -0.67162791500931D+03

 The electronic state is 1-A.
 Alpha  occ. eigenvalues --  -20.60767 -20.60757 -15.85813 -11.31154 -11.27784
 Alpha  occ. eigenvalues --  -11.27733 -11.27568 -11.26838 -11.26790 -11.21800
 Alpha  occ. eigenvalues --  -11.21566 -11.21525 -11.21468 -11.21245 -11.20866
 Alpha  occ. eigenvalues --   -1.59837  -1.39391  -1.19402  -1.08784  -1.08530
 Alpha  occ. eigenvalues --   -1.04802  -1.03591  -0.96050  -0.95608  -0.87074
 Alpha  occ. eigenvalues --   -0.86187  -0.82442  -0.79678  -0.78354  -0.77481
 Alpha  occ. eigenvalues --   -0.72038  -0.71161  -0.70502  -0.65170  -0.65041
 Alpha  occ. eigenvalues --   -0.64799  -0.62140  -0.61017  -0.59410  -0.57677
 Alpha  occ. eigenvalues --   -0.55493  -0.55306  -0.53434  -0.52885  -0.52696
 Alpha  occ. eigenvalues --   -0.52198  -0.49880  -0.48796  -0.48790  -0.47940
 Alpha  occ. eigenvalues --   -0.46669  -0.45875  -0.45807  -0.44798  -0.43857
 Alpha  occ. eigenvalues --   -0.37349  -0.36380
 Alpha virt. eigenvalues --    0.05048   0.11210   0.16527   0.21371   0.22747
 Alpha virt. eigenvalues --    0.24242   0.26501   0.27200   0.27417   0.27805
 Alpha virt. eigenvalues --    0.28398   0.30876   0.31308   0.31776   0.31890

 Mulliken charges:
               1
     1  C   -0.297548
     2  C   -0.298947
     3  C   -0.484982
     4  H    0.145785
     5  H    0.148472
     6  H    0.151270
     7  H    0.153208
     8  H    0.152211
     9  H    0.162127
    10  H    0.165567
    11  C   -0.298148
    12  C   -0.299183
    13  C   -0.475654
    14  H    0.149252
    15  H    0.151128
    16  H    0.149199
    17  H    0.151742
    18  H    0.156270
    19  H    0.155128
    20  H    0.159838
    21  C   -0.172009
    22  C   -0.218623
    23  C   -0.172151
    24  C    0.162250
    25  C   -0.171554
    26  C   -0.217207
    27  H    0.225970
    28  H    0.223667
    29  H    0.275753
    30  H    0.275876
    31  H    0.223929
    32  N    0.488653
    33  O   -0.460238
    34  O   -0.461050
 Sum of Mulliken charges =  -0.00000

 Dipole moment (field-independent basis, Debye):
    X=              2.3160    Y=              4.6062    Z=             -0.3735  Tot=              5.1692
 Quadrupole moment (field-independent basis, Debye-Ang):
   XX=           -110.2910   YY=            -93.2357   ZZ=            -89.3991
   XY=            -13.0028   XZ=              0.5597   YZ=              1.1784

 Normal termination of Gaussian 16 at Thu May  6 07:23:09 2021.
