 Gaussian 16, Revision A.03,
 Gaussian 16:  EM64L-G16RevA.03 25-Dec-2016

 -------------
 #p 6-31g* mp2
 -------------

 ------------------------------------------------------
 Input file generated by CHIRIPA (05-May-2021 14:57:24)
 ------------------------------------------------------
 Symbolic Z-matrix:
 Charge =  0 Multiplicity = 1

                         Standard orientation:
 ---------------------------------------------------------------------
 Center     Atomic      Atomic             Coordinates (Angstroms)
 Number     Number       Type             X           Y           Z
 ---------------------------------------------------------------------
      1          6           0        3.284423    2.729041    0.079321
      2          6           0        2.524084    1.974242    0.978589
      3          6           0        2.543509    0.577283    0.926856
      4          6           0        3.338048   -0.034808   -0.041308
      5          6           0        4.106657    0.689577   -0.951141
      6          6           0        4.071895    2.085434   -0.880981
      7          1           0        3.263377    3.813804    0.126666
      8          1           0        1.911602    2.471379    1.725426
      9          1           0        1.964642   -0.031446    1.610801
     10          1           0        4.707500    0.165597   -1.684524
     11          1           0        4.663408    2.669064   -1.580648
     12          7           0        3.366730   -1.513123   -0.105829
     13          8           0        4.074917   -2.028392   -0.968156
     14          8           0        2.680481   -2.128566    0.707147
     15          6           0       -1.315798   -1.479144    0.856412
     16          6           0       -1.769389   -1.661133   -0.454182
     17          6           0       -2.886216   -0.962570   -0.922428
     18          6           0       -3.528367   -0.086027   -0.049156
     19          6           0       -3.100616    0.116865    1.262010
     20          6           0       -1.981685   -0.592288    1.708822
     21          1           0       -0.447402   -2.025918    1.211831
     22          1           0       -1.254222   -2.349224   -1.118395
     23          1           0       -3.258702   -1.084425   -1.932291
     24          1           0       -3.634909    0.809663    1.900745
     25          1           0       -1.631656   -0.448958    2.727144
     26          7           0       -4.711815    0.659117   -0.533520
     27          8           0       -5.260035    1.425549    0.255577
     28          8           0       -5.068775    0.462618   -1.693091
 ---------------------------------------------------------------------

 SCF Done:  E(RHF) =  -868.339610032     A.U. after   16 cycles
 E2 =    -0.2599111179D+01 EUMP2 =    -0.87093872121019D+03

 The electronic state is 1-A.
 Alpha  occ. eigenvalues --  -20.61737 -20.61668 -20.60715 -20.60705 -15.86737
 Alpha  occ. eigenvalues --  -15.85765 -11.31863 -11.31056 -11.28454 -11.28372
 Alpha  occ. eigenvalues --  -11.28066 -11.27671 -11.27594 -11.27365 -11.27326
 Alpha  occ. eigenvalues --  -11.27192 -11.26643 -11.26496  -1.60765  -1.59792
 Alpha  occ. eigenvalues --   -1.40331  -1.39347  -1.20007  -1.19215  -1.09438
 Alpha  occ. eigenvalues --   -1.08594  -1.05378  -1.04615  -0.96318  -0.95441
 Alpha  occ. eigenvalues --   -0.86787  -0.85998  -0.83166  -0.82285  -0.78251
 Alpha  occ. eigenvalues --   -0.77372  -0.72969  -0.72077  -0.71981  -0.71117
 Alpha  occ. eigenvalues --   -0.71111  -0.70214  -0.65664  -0.65377  -0.64851
 Alpha  occ. eigenvalues --   -0.64600  -0.62742  -0.61966  -0.55868  -0.54980
 Alpha  occ. eigenvalues --   -0.53710  -0.53473  -0.52940  -0.52688  -0.49732
 Alpha  occ. eigenvalues --   -0.49683  -0.48743  -0.48732  -0.45783  -0.44770
 Alpha  occ. eigenvalues --   -0.37957  -0.37202  -0.36915  -0.36242
 Alpha virt. eigenvalues --    0.04242   0.05170   0.10687   0.11392   0.15790
 Alpha virt. eigenvalues --    0.16660   0.20298   0.21864   0.26124   0.27224
 Alpha virt. eigenvalues --    0.27633   0.28971   0.30516   0.31219   0.32374

 Mulliken charges:
               1
     1  C   -0.169544
     2  C   -0.217220
     3  C   -0.168467
     4  C    0.157990
     5  C   -0.170470
     6  C   -0.218158
     7  H    0.228817
     8  H    0.224593
     9  H    0.267984
    10  H    0.276726
    11  H    0.226126
    12  N    0.489672
    13  O   -0.455321
    14  O   -0.471315
    15  C   -0.179733
    16  C   -0.220863
    17  C   -0.171333
    18  C    0.157630
    19  C   -0.171721
    20  C   -0.223385
    21  H    0.244945
    22  H    0.229420
    23  H    0.275389
    24  H    0.273357
    25  H    0.219453
    26  N    0.488121
    27  O   -0.462215
    28  O   -0.460477
 Sum of Mulliken charges =  -0.00000

 Dipole moment (field-independent basis, Debye):
    X=              4.3526    Y=              2.6166    Z=              1.7790  Tot=              5.3811
 Quadrupole moment (field-independent basis, Debye-Ang):
   XX=           -133.9997   YY=           -104.3974   ZZ=            -98.6418
   XY=             27.0143   XZ=             -8.9872   YZ=              1.9102

 Normal termination of Gaussian 16 at Thu May  6 16:21:21 2021.
