 Gaussian 16, Revision A.03,
 Gaussian 16:  EM64L-G16RevA.03 25-Dec-2016

 -------------
 #p 6-31g* mp2
 -------------

 ------------------------------------------------------
 Input file generated by CHIRIPA (05-May-2021 14:53:16)
 ------------------------------------------------------
 Symbolic Z-matrix:
 Charge =  0 Multiplicity = 1

                         Standard orientation:
 ---------------------------------------------------------------------
 Center     Atomic      Atomic             Coordinates (Angstroms)
 Number     Number       Type             X           Y           Z
 ---------------------------------------------------------------------
      1          6           0        3.828477   -0.651442   -0.267751
      2          6           0        2.706944   -1.690484   -0.291002
      3          6           0        3.231747   -3.125887   -0.335667
      4          1           0        4.461405   -0.784489   -1.155809
      5          1           0        4.471066   -0.835198    0.604435
      6          1           0        2.065861   -1.503973   -1.162117
      7          1           0        2.076501   -1.554824    0.597116
      8          1           0        3.854615   -3.335754    0.539886
      9          1           0        3.843914   -3.284614   -1.229343
     10          1           0        2.413241   -3.852283   -0.351713
     11          6           0        3.319652    0.788290   -0.223058
     12          6           0        4.441185    1.827331   -0.199807
     13          6           0        3.916383    3.262734   -0.155142
     14          1           0        2.677063    0.972046   -1.095244
     15          1           0        2.686725    0.921337    0.665000
     16          1           0        5.071629    1.691672   -1.087925
     17          1           0        5.082269    1.640821    0.671308
     18          1           0        3.304215    3.421461    0.738534
     19          1           0        3.293515    3.472601   -1.030695
     20          1           0        4.734889    3.989130   -0.139096
     21          6           0       -4.674819    0.746863   -1.285200
     22          6           0       -3.813361   -0.260031   -1.733055
     23          6           0       -2.766890   -0.711253   -0.923213
     24          6           0       -2.610237   -0.130828    0.334506
     25          6           0       -3.451926    0.874010    0.809006
     26          6           0       -4.491675    1.309678   -0.017833
     27          1           0       -5.485133    1.091342   -1.920907
     28          1           0       -3.953205   -0.698941   -2.716848
     29          1           0       -2.085327   -1.489306   -1.244965
     30          1           0       -3.287361    1.292359    1.794562
     31          1           0       -5.159160    2.091798    0.332594
     32          7           0       -1.505943   -0.600283    1.200847
     33          8           0       -1.389175   -0.072736    2.304792
     34          8           0       -0.778075   -1.486900    0.759534
 ---------------------------------------------------------------------

 SCF Done:  E(RHF) =  -669.536040635     A.U. after   15 cycles
 E2 =    -0.2091155937D+01 EUMP2 =    -0.67162719657185D+03

 The electronic state is 1-A.
 Alpha  occ. eigenvalues --  -20.60944 -20.60916 -15.85958 -11.31281 -11.27844
 Alpha  occ. eigenvalues --  -11.27840 -11.27582 -11.26852 -11.26842 -11.20962
 Alpha  occ. eigenvalues --  -11.20567 -11.20548 -11.20391 -11.20182 -11.19986
 Alpha  occ. eigenvalues --   -1.59993  -1.39548  -1.19449  -1.08855  -1.07511
 Alpha  occ. eigenvalues --   -1.04846  -1.02609  -0.95697  -0.95116  -0.86246
 Alpha  occ. eigenvalues --   -0.86140  -0.82532  -0.78687  -0.77591  -0.77257
 Alpha  occ. eigenvalues --   -0.72179  -0.71303  -0.70558  -0.65105  -0.64850
 Alpha  occ. eigenvalues --   -0.64147  -0.62193  -0.60010  -0.58491  -0.56690
 Alpha  occ. eigenvalues --   -0.55351  -0.54426  -0.53177  -0.52938  -0.51823
 Alpha  occ. eigenvalues --   -0.51536  -0.49124  -0.48942  -0.48934  -0.47004
 Alpha  occ. eigenvalues --   -0.45717  -0.45123  -0.44777  -0.44520  -0.42873
 Alpha  occ. eigenvalues --   -0.37427  -0.36447
 Alpha virt. eigenvalues --    0.04934   0.11208   0.16423   0.21321   0.23717
 Alpha virt. eigenvalues --    0.25160   0.27179   0.27581   0.28004   0.28671
 Alpha virt. eigenvalues --    0.28821   0.30886   0.32061   0.32409   0.32810

 Mulliken charges:
               1
     1  C   -0.298150
     2  C   -0.303542
     3  C   -0.475549
     4  H    0.143911
     5  H    0.147933
     6  H    0.144649
     7  H    0.178547
     8  H    0.153016
     9  H    0.148027
    10  H    0.161370
    11  C   -0.298297
    12  C   -0.298744
    13  C   -0.475308
    14  H    0.144882
    15  H    0.155807
    16  H    0.149456
    17  H    0.151813
    18  H    0.156159
    19  H    0.152400
    20  H    0.157892
    21  C   -0.170592
    22  C   -0.218575
    23  C   -0.170805
    24  C    0.158226
    25  C   -0.170639
    26  C   -0.218567
    27  H    0.225947
    28  H    0.223769
    29  H    0.275888
    30  H    0.275769
    31  H    0.223777
    32  N    0.489316
    33  O   -0.460123
    34  O   -0.459666
 Sum of Mulliken charges =  -0.00000

 Dipole moment (field-independent basis, Debye):
    X=             -4.1748    Y=              1.6161    Z=             -2.8987  Tot=              5.3333
 Quadrupole moment (field-independent basis, Debye-Ang):
   XX=            -75.7502   YY=            -95.2184   ZZ=            -93.6797
   XY=             -4.7763   XZ=              6.2714   YZ=              3.4366

 Normal termination of Gaussian 16 at Wed May  5 21:57:14 2021.
