 Gaussian 16, Revision A.03,
 Gaussian 16:  EM64L-G16RevA.03 25-Dec-2016

 -------------
 #p 6-31g* mp2
 -------------

 ------------------------------------------------------
 Input file generated by CHIRIPA (05-May-2021 14:57:27)
 ------------------------------------------------------
 Symbolic Z-matrix:
 Charge =  0 Multiplicity = 1

                         Standard orientation:
 ---------------------------------------------------------------------
 Center     Atomic      Atomic             Coordinates (Angstroms)
 Number     Number       Type             X           Y           Z
 ---------------------------------------------------------------------
      1          6           0        2.248160   -2.339364    0.397221
      2          6           0        1.908785   -1.859141   -0.871925
      3          6           0        2.040015   -0.500784   -1.175557
      4          6           0        2.515880    0.353114   -0.181726
      5          6           0        2.862288   -0.094953    1.092059
      6          6           0        2.722991   -1.457292    1.373441
      7          1           0        2.143084   -3.396115    0.624447
      8          1           0        1.539768   -2.541863   -1.632032
      9          1           0        1.784589   -0.102195   -2.149879
     10          1           0        3.227434    0.609916    1.829111
     11          1           0        2.987319   -1.827429    2.359937
     12          7           0        2.659077    1.793253   -0.491390
     13          8           0        3.080603    2.525024    0.401619
     14          8           0        2.347078    2.162995   -1.621251
     15          6           0       -3.301508    2.242080    0.520118
     16          6           0       -3.744186    1.525540   -0.596631
     17          6           0       -3.302416    0.218477   -0.822402
     18          6           0       -2.414047   -0.343709    0.093041
     19          6           0       -1.954815    0.344480    1.215000
     20          6           0       -2.409807    1.650306    1.420782
     21          1           0       -3.649822    3.256958    0.687738
     22          1           0       -4.436687    1.982585   -1.297771
     23          1           0       -3.629080   -0.358937   -1.678733
     24          1           0       -1.264442   -0.137840    1.896302
     25          1           0       -2.064336    2.204402    2.288925
     26          7           0       -1.939365   -1.726783   -0.135392
     27          8           0       -1.156755   -2.199514    0.686000
     28          8           0       -2.358909   -2.311918   -1.131503
 ---------------------------------------------------------------------

 SCF Done:  E(RHF) =  -868.339670827     A.U. after   16 cycles
 E2 =    -0.2600731901D+01 EUMP2 =    -0.87094040272705D+03

 The electronic state is 1-A.
 Alpha  occ. eigenvalues --  -20.61217 -20.61177 -20.60485 -20.60469 -15.86209
 Alpha  occ. eigenvalues --  -15.85525 -11.31307 -11.30607 -11.27847 -11.27837
 Alpha  occ. eigenvalues --  -11.27510 -11.27201 -11.27101 -11.26790 -11.26770
 Alpha  occ. eigenvalues --  -11.26701 -11.26088 -11.25934  -1.60267  -1.59565
 Alpha  occ. eigenvalues --   -1.39829  -1.39126  -1.19448  -1.18734  -1.08892
 Alpha  occ. eigenvalues --   -1.08137  -1.04811  -1.04106  -0.95781  -0.95035
 Alpha  occ. eigenvalues --   -0.86220  -0.85492  -0.82628  -0.81895  -0.77708
 Alpha  occ. eigenvalues --   -0.77009  -0.72476  -0.71749  -0.71581  -0.70890
 Alpha  occ. eigenvalues --   -0.70550  -0.69780  -0.65106  -0.64811  -0.64371
 Alpha  occ. eigenvalues --   -0.64076  -0.62169  -0.61470  -0.55312  -0.54512
 Alpha  occ. eigenvalues --   -0.53148  -0.52903  -0.52439  -0.52177  -0.49239
 Alpha  occ. eigenvalues --   -0.49199  -0.48520  -0.48476  -0.45295  -0.44598
 Alpha  occ. eigenvalues --   -0.37428  -0.36555  -0.36344  -0.35710
 Alpha virt. eigenvalues --    0.04720   0.05594   0.11257   0.11986   0.16337
 Alpha virt. eigenvalues --    0.17169   0.21416   0.22178   0.27319   0.28020
 Alpha virt. eigenvalues --    0.28272   0.29061   0.30990   0.31780   0.32401

 Mulliken charges:
               1
     1  C   -0.151878
     2  C   -0.214178
     3  C   -0.178312
     4  C    0.156642
     5  C   -0.176395
     6  C   -0.221621
     7  H    0.230593
     8  H    0.229927
     9  H    0.272903
    10  H    0.270632
    11  H    0.220725
    12  N    0.488172
    13  O   -0.465189
    14  O   -0.462666
    15  C   -0.168422
    16  C   -0.217629
    17  C   -0.171050
    18  C    0.157674
    19  C   -0.170418
    20  C   -0.217206
    21  H    0.228140
    22  H    0.224600
    23  H    0.274441
    24  H    0.273900
    25  H    0.225812
    26  N    0.488556
    27  O   -0.463726
    28  O   -0.464025
 Sum of Mulliken charges =  -0.00000

 Dipole moment (field-independent basis, Debye):
    X=             -2.3716    Y=             -0.4099    Z=              1.9025  Tot=              3.0679
 Quadrupole moment (field-independent basis, Debye-Ang):
   XX=            -98.8711   YY=           -112.2019   ZZ=            -97.7678
   XY=            -25.1181   XZ=              5.0921   YZ=              2.7144

 Normal termination of Gaussian 16 at Fri May  7 00:30:46 2021.
