 Gaussian 16, Revision A.03,
 Gaussian 16:  EM64L-G16RevA.03 25-Dec-2016

 -------------
 #p 6-31g* mp2
 -------------

 ------------------------------------------------------
 Input file generated by CHIRIPA (05-May-2021 14:57:23)
 ------------------------------------------------------
 Symbolic Z-matrix:
 Charge =  0 Multiplicity = 1

                         Standard orientation:
 ---------------------------------------------------------------------
 Center     Atomic      Atomic             Coordinates (Angstroms)
 Number     Number       Type             X           Y           Z
 ---------------------------------------------------------------------
      1          6           0        3.993000   -1.698960    1.311530
      2          6           0        3.429171   -0.673504    2.077727
      3          6           0        2.813199    0.418495    1.459129
      4          6           0        2.778867    0.452952    0.065959
      5          6           0        3.331637   -0.553162   -0.724908
      6          6           0        3.942522   -1.635628   -0.084881
      7          1           0        4.469526   -2.543548    1.800395
      8          1           0        3.466896   -0.720040    3.162373
      9          1           0        2.368772    1.226110    2.028041
     10          1           0        3.278476   -0.478858   -1.804293
     11          1           0        4.379568   -2.430570   -0.682462
     12          7           0        2.129457    1.603956   -0.600266
     13          8           0        2.112343    1.610745   -1.829208
     14          8           0        1.649861    2.477530    0.119103
     15          6           0       -4.724928    0.512136    1.367826
     16          6           0       -4.712305   -0.806360    0.900997
     17          6           0       -3.698255   -1.246925    0.045336
     18          6           0       -2.708107   -0.338214   -0.324989
     19          6           0       -2.693205    0.981688    0.123257
     20          6           0       -3.717115    1.400386    0.978154
     21          1           0       -5.516497    0.845884    2.032228
     22          1           0       -5.493694   -1.498381    1.201965
     23          1           0       -3.664236   -2.262143   -0.330951
     24          1           0       -1.900671    1.648408   -0.194222
     25          1           0       -3.724378    2.424926    1.339140
     26          7           0       -1.629359   -0.793045   -1.230435
     27          8           0       -0.768524    0.027050   -1.541950
     28          8           0       -1.665098   -1.961025   -1.611462
 ---------------------------------------------------------------------

 SCF Done:  E(RHF) =  -868.338630057     A.U. after   16 cycles
 E2 =    -0.2600168752D+01 EUMP2 =    -0.87093879880987D+03

 The electronic state is 1-A.
 Alpha  occ. eigenvalues --  -20.60410 -20.60391 -20.59951 -20.59811 -15.85442
 Alpha  occ. eigenvalues --  -15.84928 -11.30783 -11.30378 -11.27417 -11.27257
 Alpha  occ. eigenvalues --  -11.27148 -11.27042 -11.26902 -11.26784 -11.26430
 Alpha  occ. eigenvalues --  -11.26336 -11.26090 -11.25991  -1.59485  -1.58918
 Alpha  occ. eigenvalues --   -1.39034  -1.38482  -1.18973  -1.18571  -1.08384
 Alpha  occ. eigenvalues --   -1.07956  -1.04362  -1.04004  -0.95212  -0.94780
 Alpha  occ. eigenvalues --   -0.85765  -0.85399  -0.82038  -0.81626  -0.77079
 Alpha  occ. eigenvalues --   -0.76643  -0.71743  -0.71178  -0.70832  -0.70133
 Alpha  occ. eigenvalues --   -0.70014  -0.69713  -0.64619  -0.64367  -0.64242
 Alpha  occ. eigenvalues --   -0.64032  -0.61688  -0.61356  -0.54892  -0.54534
 Alpha  occ. eigenvalues --   -0.52716  -0.52447  -0.52313  -0.52114  -0.48451
 Alpha  occ. eigenvalues --   -0.48410  -0.47950  -0.47893  -0.44459  -0.43849
 Alpha  occ. eigenvalues --   -0.36984  -0.36559  -0.35971  -0.35605
 Alpha virt. eigenvalues --    0.05402   0.05955   0.11678   0.12051   0.16906
 Alpha virt. eigenvalues --    0.17375   0.21822   0.22087   0.27756   0.27974
 Alpha virt. eigenvalues --    0.28703   0.29034   0.31306   0.31608   0.33070

 Mulliken charges:
               1
     1  C   -0.171436
     2  C   -0.219168
     3  C   -0.173251
     4  C    0.162459
     5  C   -0.163838
     6  C   -0.218586
     7  H    0.222564
     8  H    0.219121
     9  H    0.270467
    10  H    0.279607
    11  H    0.222619
    12  N    0.494038
    13  O   -0.449136
    14  O   -0.474809
    15  C   -0.171129
    16  C   -0.219361
    17  C   -0.171736
    18  C    0.156161
    19  C   -0.173805
    20  C   -0.220033
    21  H    0.224104
    22  H    0.221298
    23  H    0.273413
    24  H    0.288508
    25  H    0.225215
    26  N    0.488881
    27  O   -0.457259
    28  O   -0.464911
 Sum of Mulliken charges =  -0.00000

 Dipole moment (field-independent basis, Debye):
    X=             -1.4908    Y=             -2.3650    Z=              5.2159  Tot=              5.9179
 Quadrupole moment (field-independent basis, Debye-Ang):
   XX=            -72.5796   YY=           -105.7513   ZZ=           -103.5288
   XY=            -12.2807   XZ=             -2.5489   YZ=              1.2427

 Normal termination of Gaussian 16 at Wed May  5 17:51:44 2021.
