 Gaussian 16, Revision A.03,
 Gaussian 16:  EM64L-G16RevA.03 25-Dec-2016

 -------------
 #p 6-31g* mp2
 -------------

 ------------------------------------------------------
 Input file generated by CHIRIPA (05-May-2021 14:55:20)
 ------------------------------------------------------
 Symbolic Z-matrix:
 Charge =  0 Multiplicity = 1

                         Standard orientation:
 ---------------------------------------------------------------------
 Center     Atomic      Atomic             Coordinates (Angstroms)
 Number     Number       Type             X           Y           Z
 ---------------------------------------------------------------------
      1          6           0        2.222964    2.214420    0.394552
      2          6           0        3.132720    2.124970   -0.664156
      3          6           0        3.865363    0.952832   -0.873618
      4          6           0        3.662349   -0.115348   -0.001226
      5          6           0        2.763312   -0.056954    1.062547
      6          6           0        2.041483    1.125093    1.253011
      7          1           0        1.658030    3.128814    0.549887
      8          1           0        3.275714    2.969370   -1.332427
      9          1           0        4.576174    0.856470   -1.685331
     10          1           0        2.642404   -0.915402    1.712060
     11          1           0        1.335636    1.191719    2.076046
     12          7           0        4.432241   -1.361483   -0.212917
     13          8           0        4.235120   -2.288445    0.569721
     14          8           0        5.218225   -1.387647   -1.157471
     15          6           0       -5.186452    0.044001   -0.391044
     16          6           0       -6.377882   -0.715060    0.194028
     17          6           0       -7.693240   -0.385910   -0.512575
     18          1           0       -5.379499    1.123518   -0.325314
     19          1           0       -5.098706   -0.193297   -1.460336
     20          1           0       -6.462517   -0.477477    1.262206
     21          1           0       -6.181893   -1.792891    0.127071
     22          1           0       -7.633338   -0.639665   -1.575882
     23          1           0       -7.915557    0.683224   -0.434296
     24          1           0       -8.531659   -0.939448   -0.078398
     25          6           0       -3.864329   -0.274477    0.304864
     26          6           0       -2.672900    0.484583   -0.280207
     27          6           0       -1.357542    0.155433    0.426396
     28          1           0       -3.952076   -0.037180    1.374157
     29          1           0       -3.671282   -1.353995    0.239134
     30          1           0       -2.868889    1.562414   -0.213251
     31          1           0       -2.588265    0.246999   -1.348385
     32          1           0       -1.135225   -0.913702    0.348117
     33          1           0       -1.417443    0.409188    1.489702
     34          1           0       -0.519122    0.708970   -0.007782
 ---------------------------------------------------------------------

 SCF Done:  E(RHF) =  -669.534905970     A.U. after   15 cycles
 E2 =    -0.2091968986D+01 EUMP2 =    -0.67162687495572D+03

 The electronic state is 1-A.
 Alpha  occ. eigenvalues --  -20.60764 -20.60759 -15.85816 -11.31193 -11.27742
 Alpha  occ. eigenvalues --  -11.27721 -11.27484 -11.26790 -11.26743 -11.22030
 Alpha  occ. eigenvalues --  -11.21837 -11.21732 -11.21650 -11.21539 -11.21274
 Alpha  occ. eigenvalues --   -1.59839  -1.39392  -1.19363  -1.08780  -1.08743
 Alpha  occ. eigenvalues --   -1.04765  -1.03870  -0.96330  -0.95590  -0.87364
 Alpha  occ. eigenvalues --   -0.86151  -0.82417  -0.79947  -0.78566  -0.77460
 Alpha  occ. eigenvalues --   -0.72035  -0.71161  -0.70464  -0.65394  -0.65012
 Alpha  occ. eigenvalues --   -0.64766  -0.62112  -0.61268  -0.59718  -0.57942
 Alpha  occ. eigenvalues --   -0.55624  -0.55262  -0.53528  -0.52916  -0.52725
 Alpha  occ. eigenvalues --   -0.52544  -0.50273  -0.48794  -0.48789  -0.48257
 Alpha  occ. eigenvalues --   -0.46975  -0.46110  -0.46028  -0.44795  -0.44132
 Alpha  occ. eigenvalues --   -0.37312  -0.36302
 Alpha virt. eigenvalues --    0.05041   0.11268   0.16489   0.20999   0.22604
 Alpha virt. eigenvalues --    0.24023   0.25942   0.26507   0.27305   0.28166
 Alpha virt. eigenvalues --    0.28619   0.29900   0.31287   0.31765   0.32242

 Mulliken charges:
               1
     1  C   -0.173745
     2  C   -0.218185
     3  C   -0.171557
     4  C    0.158851
     5  C   -0.171668
     6  C   -0.214166
     7  H    0.225986
     8  H    0.223524
     9  H    0.275523
    10  H    0.275843
    11  H    0.226456
    12  N    0.488023
    13  O   -0.460247
    14  O   -0.460442
    15  C   -0.298415
    16  C   -0.299874
    17  C   -0.475856
    18  H    0.148834
    19  H    0.150453
    20  H    0.151678
    21  H    0.153028
    22  H    0.155755
    23  H    0.154856
    24  H    0.161057
    25  C   -0.298607
    26  C   -0.299493
    27  C   -0.482022
    28  H    0.148392
    29  H    0.151638
    30  H    0.148991
    31  H    0.154290
    32  H    0.159017
    33  H    0.146312
    34  H    0.165770
 Sum of Mulliken charges =  -0.00000

 Dipole moment (field-independent basis, Debye):
    X=             -2.7236    Y=              4.3654    Z=              0.7200  Tot=              5.1954
 Quadrupole moment (field-independent basis, Debye-Ang):
   XX=           -115.1970   YY=            -94.9080   ZZ=            -91.7002
   XY=             17.7347   XZ=              0.3032   YZ=             -1.4068

 Normal termination of Gaussian 16 at Thu May  6 04:30:57 2021.
