 Gaussian 16, Revision A.03,
 Gaussian 16:  EM64L-G16RevA.03 25-Dec-2016

 -------------
 #p 6-31g* mp2
 -------------

 ------------------------------------------------------
 Input file generated by CHIRIPA (05-May-2021 14:55:24)
 ------------------------------------------------------
 Symbolic Z-matrix:
 Charge =  0 Multiplicity = 1

                         Standard orientation:
 ---------------------------------------------------------------------
 Center     Atomic      Atomic             Coordinates (Angstroms)
 Number     Number       Type             X           Y           Z
 ---------------------------------------------------------------------
      1          6           0       -3.154207    2.674252    0.096013
      2          6           0       -2.046787    1.848309   -0.122982
      3          6           0       -2.205750    0.464494   -0.242707
      4          6           0       -3.492234   -0.062050   -0.137817
      5          6           0       -4.615262    0.734562    0.080142
      6          6           0       -4.432657    2.115727    0.196698
      7          1           0       -3.021538    3.748204    0.187787
      8          1           0       -1.052748    2.279299   -0.201599
      9          1           0       -1.365786   -0.198126   -0.412449
     10          1           0       -5.593760    0.275762    0.154053
     11          1           0       -5.294514    2.754733    0.366751
     12          7           0       -3.673036   -1.525631   -0.262887
     13          8           0       -4.816905   -1.964892   -0.166717
     14          8           0       -2.667455   -2.205811   -0.454720
     15          6           0        5.142637   -0.360102   -0.097382
     16          6           0        6.019365    0.892532   -0.112968
     17          6           0        7.438285    0.614829   -0.610303
     18          1           0        5.613448   -1.121542    0.539399
     19          1           0        5.100827   -0.782551   -1.110882
     20          1           0        6.058384    1.313276    0.899981
     21          1           0        5.546317    1.651149   -0.749633
     22          1           0        7.418079    0.216436   -1.629850
     23          1           0        7.933055   -0.123356    0.029137
     24          1           0        8.047757    1.523892   -0.613299
     25          6           0        3.721197   -0.098563    0.397425
     26          6           0        2.844469   -1.351196    0.413011
     27          6           0        1.425550   -1.073494    0.910346
     28          1           0        3.763007    0.323888    1.410926
     29          1           0        3.250386    0.662879   -0.239356
     30          1           0        3.317517   -2.109812    1.049676
     31          1           0        2.805450   -1.771940   -0.599939
     32          1           0        0.930779   -0.335307    0.270905
     33          1           0        1.445756   -0.675101    1.929893
     34          1           0        0.816077   -1.982556    0.913343
 ---------------------------------------------------------------------

 SCF Done:  E(RHF) =  -669.535537778     A.U. after   15 cycles
 E2 =    -0.2091099531D+01 EUMP2 =    -0.67162663730898D+03

 The electronic state is 1-A.
 Alpha  occ. eigenvalues --  -20.60729 -20.60724 -15.85779 -11.31117 -11.27704
 Alpha  occ. eigenvalues --  -11.27649 -11.27451 -11.26717 -11.26700 -11.21805
 Alpha  occ. eigenvalues --  -11.21792 -11.21653 -11.21557 -11.21381 -11.21226
 Alpha  occ. eigenvalues --   -1.59802  -1.39356  -1.19298  -1.08701  -1.08651
 Alpha  occ. eigenvalues --   -1.04702  -1.03745  -0.96209  -0.95536  -0.87230
 Alpha  occ. eigenvalues --   -0.86098  -0.82372  -0.79814  -0.78469  -0.77414
 Alpha  occ. eigenvalues --   -0.72000  -0.71123  -0.70419  -0.65290  -0.64954
 Alpha  occ. eigenvalues --   -0.64711  -0.62102  -0.61118  -0.59542  -0.57800
 Alpha  occ. eigenvalues --   -0.55557  -0.55178  -0.53045  -0.52945  -0.52754
 Alpha  occ. eigenvalues --   -0.52575  -0.50154  -0.48756  -0.48753  -0.48121
 Alpha  occ. eigenvalues --   -0.46843  -0.46014  -0.45929  -0.44768  -0.43981
 Alpha  occ. eigenvalues --   -0.37287  -0.36298
 Alpha virt. eigenvalues --    0.05107   0.11344   0.16594   0.20393   0.22758
 Alpha virt. eigenvalues --    0.23955   0.25620   0.26669   0.27343   0.27951
 Alpha virt. eigenvalues --    0.29192   0.30651   0.31516   0.31713   0.32116

 Mulliken charges:
               1
     1  C   -0.170696
     2  C   -0.220662
     3  C   -0.176721
     4  C    0.158626
     5  C   -0.170503
     6  C   -0.219015
     7  H    0.225325
     8  H    0.223009
     9  H    0.284721
    10  H    0.275327
    11  H    0.223183
    12  N    0.487891
    13  O   -0.460609
    14  O   -0.460784
    15  C   -0.298522
    16  C   -0.299581
    17  C   -0.475833
    18  H    0.151154
    19  H    0.150668
    20  H    0.151681
    21  H    0.150505
    22  H    0.155788
    23  H    0.156015
    24  H    0.160256
    25  C   -0.297942
    26  C   -0.300096
    27  C   -0.479561
    28  H    0.149185
    29  H    0.145106
    30  H    0.155137
    31  H    0.155028
    32  H    0.139969
    33  H    0.156009
    34  H    0.175943
 Sum of Mulliken charges =  -0.00000

 Dipole moment (field-independent basis, Debye):
    X=              0.7313    Y=              5.0323    Z=              0.4832  Tot=              5.1080
 Quadrupole moment (field-independent basis, Debye-Ang):
   XX=            -95.1952   YY=            -95.7174   ZZ=            -94.8475
   XY=            -19.1477   XZ=             -1.7285   YZ=             -0.9400

 Normal termination of Gaussian 16 at Thu May  6 12:39:25 2021.
