 Gaussian 16, Revision A.03,
 Gaussian 16:  EM64L-G16RevA.03 25-Dec-2016

 -------------
 #p 6-31g* mp2
 -------------

 ------------------------------------------------------
 Input file generated by CHIRIPA (05-May-2021 14:57:24)
 ------------------------------------------------------
 Symbolic Z-matrix:
 Charge =  0 Multiplicity = 1

                         Standard orientation:
 ---------------------------------------------------------------------
 Center     Atomic      Atomic             Coordinates (Angstroms)
 Number     Number       Type             X           Y           Z
 ---------------------------------------------------------------------
      1          6           0        1.911304    2.126669    0.069178
      2          6           0        1.904242    1.183170    1.101787
      3          6           0        2.759241    0.077849    1.059466
      4          6           0        3.612142   -0.053356   -0.035355
      5          6           0        3.642593    0.869604   -1.079629
      6          6           0        2.778927    1.967156   -1.016320
      7          1           0        1.243754    2.982292    0.110206
      8          1           0        1.231501    1.304485    1.946030
      9          1           0        2.774435   -0.667641    1.845235
     10          1           0        4.324453    0.721654   -1.908239
     11          1           0        2.786576    2.698312   -1.819687
     12          7           0        4.521879   -1.219398   -0.091268
     13          8           0        5.263797   -1.312180   -1.066761
     14          8           0        4.475786   -2.018480    0.841459
     15          6           0       -2.894789    2.297584    0.354606
     16          6           0       -2.143405    1.310558    1.000921
     17          6           0       -2.448797   -0.042501    0.826231
     18          6           0       -3.517062   -0.374365   -0.005614
     19          6           0       -4.284423    0.585808   -0.663273
     20          6           0       -3.961020    1.932702   -0.473969
     21          1           0       -2.650557    3.346277    0.495985
     22          1           0       -1.314806    1.591000    1.644986
     23          1           0       -1.883636   -0.827116    1.314482
     24          1           0       -5.104611    0.275379   -1.299153
     25          1           0       -4.546287    2.697092   -0.977175
     26          7           0       -3.849901   -1.803524   -0.198287
     27          8           0       -4.795941   -2.069833   -0.936341
     28          8           0       -3.158438   -2.630328    0.392399
 ---------------------------------------------------------------------

 SCF Done:  E(RHF) =  -868.336003098     A.U. after   16 cycles
 E2 =    -0.2600351932D+01 EUMP2 =    -0.87093635503041D+03

 The electronic state is 1-A.
 Alpha  occ. eigenvalues --  -20.61150 -20.61144 -20.61045 -20.61039 -15.86212
 Alpha  occ. eigenvalues --  -15.86107 -11.31747 -11.31640 -11.28379 -11.28321
 Alpha  occ. eigenvalues --  -11.28280 -11.28224 -11.28190 -11.28114 -11.27519
 Alpha  occ. eigenvalues --  -11.27428 -11.27377 -11.27275  -1.60222  -1.60116
 Alpha  occ. eigenvalues --   -1.39771  -1.39665  -1.19956  -1.19854  -1.09334
 Alpha  occ. eigenvalues --   -1.09231  -1.05400  -1.05288  -0.96129  -0.96030
 Alpha  occ. eigenvalues --   -0.86829  -0.86671  -0.82970  -0.82860  -0.77998
 Alpha  occ. eigenvalues --   -0.77846  -0.72427  -0.72325  -0.71548  -0.71440
 Alpha  occ. eigenvalues --   -0.71092  -0.70992  -0.65663  -0.65618  -0.65504
 Alpha  occ. eigenvalues --   -0.65168  -0.62839  -0.62534  -0.55936  -0.55833
 Alpha  occ. eigenvalues --   -0.53754  -0.53632  -0.53534  -0.53290  -0.49202
 Alpha  occ. eigenvalues --   -0.49170  -0.49096  -0.49065  -0.45138  -0.45033
 Alpha  occ. eigenvalues --   -0.38028  -0.37818  -0.37045  -0.36793
 Alpha virt. eigenvalues --    0.04579   0.04688   0.10446   0.10867   0.16012
 Alpha virt. eigenvalues --    0.16118   0.18230   0.22075   0.24626   0.26584
 Alpha virt. eigenvalues --    0.28117   0.28911   0.29424   0.31373   0.31892

 Mulliken charges:
               1
     1  C   -0.167539
     2  C   -0.220738
     3  C   -0.169546
     4  C    0.159591
     5  C   -0.169163
     6  C   -0.218105
     7  H    0.219667
     8  H    0.215140
     9  H    0.277734
    10  H    0.277930
    11  H    0.224604
    12  N    0.488100
    13  O   -0.458692
    14  O   -0.458318
    15  C   -0.172860
    16  C   -0.217563
    17  C   -0.168928
    18  C    0.159071
    19  C   -0.169785
    20  C   -0.218141
    21  H    0.222853
    22  H    0.214277
    23  H    0.276442
    24  H    0.277835
    25  H    0.224903
    26  N    0.488031
    27  O   -0.458744
    28  O   -0.458057
 Sum of Mulliken charges =  -0.00000

 Dipole moment (field-independent basis, Debye):
    X=             -2.0037    Y=              8.9530    Z=              0.6965  Tot=              9.2009
 Quadrupole moment (field-independent basis, Debye-Ang):
   XX=           -132.4604   YY=           -109.5356   ZZ=            -99.9598
   XY=             -3.6015   XZ=             -0.7532   YZ=             -3.3169

 Normal termination of Gaussian 16 at Fri May  7 03:26:21 2021.
