 Gaussian 16, Revision A.03,
 Gaussian 16:  EM64L-G16RevA.03 25-Dec-2016

 -------------
 #p 6-31g* mp2
 -------------

 ------------------------------------------------------
 Input file generated by CHIRIPA (05-May-2021 14:55:22)
 ------------------------------------------------------
 Symbolic Z-matrix:
 Charge =  0 Multiplicity = 1

                         Standard orientation:
 ---------------------------------------------------------------------
 Center     Atomic      Atomic             Coordinates (Angstroms)
 Number     Number       Type             X           Y           Z
 ---------------------------------------------------------------------
      1          6           0       -3.171685    1.063563    1.085706
      2          6           0       -2.514124    0.099681    1.857112
      3          6           0       -1.755238   -0.902528    1.245379
      4          6           0       -1.675126   -0.910958   -0.146310
      5          6           0       -2.318684    0.035404   -0.942251
      6          6           0       -3.072042    1.028410   -0.309054
      7          1           0       -3.759059    1.838529    1.569252
      8          1           0       -2.589736    0.124521    2.940491
      9          1           0       -1.235954   -1.661067    1.818425
     10          1           0       -2.224633   -0.015276   -2.020214
     11          1           0       -3.581640    1.775681   -0.910669
     12          7           0       -0.874653   -1.967081   -0.805286
     13          8           0       -0.819843   -1.952627   -2.033058
     14          8           0       -0.317210   -2.789327   -0.081541
     15          6           0        2.265598    1.652389   -0.231511
     16          6           0        0.859121    2.245849   -0.144258
     17          6           0        0.780281    3.664967   -0.707893
     18          1           0        2.965508    2.303090    0.310394
     19          1           0        2.590354    1.649559   -1.281235
     20          1           0        0.536566    2.246284    0.904824
     21          1           0        0.162446    1.593560   -0.686271
     22          1           0        1.076472    3.677903   -1.761792
     23          1           0        1.452718    4.334336   -0.161656
     24          1           0       -0.233943    4.069905   -0.635534
     25          6           0        2.360458    0.234066    0.328031
     26          6           0        3.766935   -0.359394    0.240779
     27          6           0        3.845776   -1.778512    0.804413
     28          1           0        2.035702    0.236896    1.377756
     29          1           0        1.660548   -0.416635   -0.213873
     30          1           0        4.463610    0.292895    0.782792
     31          1           0        4.089490   -0.359829   -0.808304
     32          1           0        3.173338   -2.447880    0.258177
     33          1           0        3.549585   -1.791448    1.858313
     34          1           0        4.859999   -2.183450    0.732055
 ---------------------------------------------------------------------

 SCF Done:  E(RHF) =  -669.535367056     A.U. after   15 cycles
 E2 =    -0.2094765017D+01 EUMP2 =    -0.67163013207358D+03

 The electronic state is 1-A.
 Alpha  occ. eigenvalues --  -20.60916 -20.60904 -15.85940 -11.31248 -11.27829
 Alpha  occ. eigenvalues --  -11.27823 -11.27579 -11.26846 -11.26836 -11.21442
 Alpha  occ. eigenvalues --  -11.21138 -11.21123 -11.21071 -11.20980 -11.20287
 Alpha  occ. eigenvalues --   -1.59984  -1.39536  -1.19441  -1.08844  -1.08111
 Alpha  occ. eigenvalues --   -1.04840  -1.03186  -0.95690  -0.95639  -0.86658
 Alpha  occ. eigenvalues --   -0.86237  -0.82520  -0.79275  -0.77933  -0.77568
 Alpha  occ. eigenvalues --   -0.72167  -0.71316  -0.70551  -0.65096  -0.64841
 Alpha  occ. eigenvalues --   -0.64738  -0.62186  -0.60594  -0.59071  -0.57251
 Alpha  occ. eigenvalues --   -0.55344  -0.54919  -0.53240  -0.52930  -0.52324
 Alpha  occ. eigenvalues --   -0.52050  -0.49571  -0.48931  -0.48927  -0.47544
 Alpha  occ. eigenvalues --   -0.46325  -0.45471  -0.45387  -0.44837  -0.43454
 Alpha  occ. eigenvalues --   -0.37382  -0.36382
 Alpha virt. eigenvalues --    0.04935   0.11149   0.16421   0.21298   0.23100
 Alpha virt. eigenvalues --    0.24590   0.26614   0.27168   0.27400   0.28257
 Alpha virt. eigenvalues --    0.28424   0.30926   0.31690   0.31955   0.32114

 Mulliken charges:
               1
     1  C   -0.170168
     2  C   -0.218063
     3  C   -0.169797
     4  C    0.160885
     5  C   -0.175650
     6  C   -0.214927
     7  H    0.226027
     8  H    0.223752
     9  H    0.276179
    10  H    0.275688
    11  H    0.223991
    12  N    0.488379
    13  O   -0.460088
    14  O   -0.459054
    15  C   -0.298041
    16  C   -0.302854
    17  C   -0.474966
    18  H    0.147631
    19  H    0.151160
    20  H    0.148626
    21  H    0.154982
    22  H    0.155903
    23  H    0.155066
    24  H    0.153586
    25  C   -0.299526
    26  C   -0.299075
    27  C   -0.479185
    28  H    0.144551
    29  H    0.154067
    30  H    0.148201
    31  H    0.153391
    32  H    0.171559
    33  H    0.150520
    34  H    0.157251
 Sum of Mulliken charges =  -0.00000

 Dipole moment (field-independent basis, Debye):
    X=             -2.9313    Y=              3.5419    Z=              2.2883  Tot=              5.1355
 Quadrupole moment (field-independent basis, Debye-Ang):
   XX=            -85.8119   YY=           -102.6364   ZZ=            -90.8756
   XY=             -4.2744   XZ=             -2.5496   YZ=             -3.8514

 Normal termination of Gaussian 16 at Wed May  5 16:00:35 2021.
