 Gaussian 16, Revision A.03,
 Gaussian 16:  EM64L-G16RevA.03 25-Dec-2016

 -------------
 #p 6-31g* mp2
 -------------

 ------------------------------------------------------
 Input file generated by CHIRIPA (05-May-2021 14:57:24)
 ------------------------------------------------------
 Symbolic Z-matrix:
 Charge =  0 Multiplicity = 1

                         Standard orientation:
 ---------------------------------------------------------------------
 Center     Atomic      Atomic             Coordinates (Angstroms)
 Number     Number       Type             X           Y           Z
 ---------------------------------------------------------------------
      1          6           0       -4.092681    1.910553    0.714306
      2          6           0       -4.344545    0.732865    1.425737
      3          6           0       -3.771427   -0.476775    1.022185
      4          6           0       -2.947713   -0.472360   -0.102434
      5          6           0       -2.677656    0.684329   -0.832113
      6          6           0       -3.261506    1.882576   -0.410366
      7          1           0       -4.542061    2.845806    1.034862
      8          1           0       -4.989639    0.751606    2.299549
      9          1           0       -3.949541   -1.403214    1.554543
     10          1           0       -2.030300    0.634177   -1.699196
     11          1           0       -3.064137    2.795642   -0.964803
     12          7           0       -2.335298   -1.746921   -0.539287
     13          8           0       -1.613232   -1.716462   -1.533435
     14          8           0       -2.588950   -2.752247    0.120726
     15          6           0        3.947392   -2.037034    0.551264
     16          6           0        4.701343   -0.902368    0.868460
     17          6           0        4.213303    0.376578    0.584452
     18          6           0        2.961760    0.484588   -0.019917
     19          6           0        2.186824   -0.626750   -0.348088
     20          6           0        2.694747   -1.895851   -0.054930
     21          1           0        4.334236   -3.026726    0.775442
     22          1           0        5.674487   -1.008992    1.339276
     23          1           0        4.776026    1.271903    0.819304
     24          1           0        1.220160   -0.488638   -0.817027
     25          1           0        2.107022   -2.775275   -0.302392
     26          7           0        2.434569    1.833340   -0.325427
     27          8           0        1.329075    1.901628   -0.858210
     28          8           0        3.136833    2.796665   -0.026319
 ---------------------------------------------------------------------

 SCF Done:  E(RHF) =  -868.341339229     A.U. after   16 cycles
 E2 =    -0.2598521329D+01 EUMP2 =    -0.87093986055800D+03

 The electronic state is 1-A.
 Alpha  occ. eigenvalues --  -20.61104 -20.61060 -20.60648 -20.60628 -15.86088
 Alpha  occ. eigenvalues --  -15.85682 -11.31015 -11.30748 -11.27591 -11.27464
 Alpha  occ. eigenvalues --  -11.27342 -11.27223 -11.27158 -11.26993 -11.26524
 Alpha  occ. eigenvalues --  -11.26381 -11.26316 -11.26121  -1.60147  -1.59714
 Alpha  occ. eigenvalues --   -1.39710  -1.39277  -1.19157  -1.18898  -1.08642
 Alpha  occ. eigenvalues --   -1.08358  -1.04479  -1.04235  -0.95542  -0.95236
 Alpha  occ. eigenvalues --   -0.85910  -0.85657  -0.82386  -0.82067  -0.77476
 Alpha  occ. eigenvalues --   -0.77134  -0.72324  -0.71921  -0.71449  -0.71024
 Alpha  occ. eigenvalues --   -0.70268  -0.70001  -0.64812  -0.64548  -0.64479
 Alpha  occ. eigenvalues --   -0.64219  -0.61829  -0.61559  -0.55026  -0.54777
 Alpha  occ. eigenvalues --   -0.52845  -0.52616  -0.52566  -0.52303  -0.49095
 Alpha  occ. eigenvalues --   -0.49043  -0.48674  -0.48640  -0.45198  -0.44746
 Alpha  occ. eigenvalues --   -0.37132  -0.36894  -0.36047  -0.35836
 Alpha virt. eigenvalues --    0.04972   0.05351   0.11571   0.11812   0.16535
 Alpha virt. eigenvalues --    0.16904   0.21524   0.22149   0.27116   0.27920
 Alpha virt. eigenvalues --    0.28343   0.29207   0.31073   0.31633   0.32174

 Mulliken charges:
               1
     1  C   -0.169923
     2  C   -0.219072
     3  C   -0.171644
     4  C    0.154809
     5  C   -0.166443
     6  C   -0.216284
     7  H    0.226464
     8  H    0.222371
     9  H    0.273076
    10  H    0.280637
    11  H    0.229933
    12  N    0.488009
    13  O   -0.467805
    14  O   -0.460345
    15  C   -0.170888
    16  C   -0.219216
    17  C   -0.171969
    18  C    0.157749
    19  C   -0.176537
    20  C   -0.221499
    21  H    0.225434
    22  H    0.221418
    23  H    0.272901
    24  H    0.283960
    25  H    0.234871
    26  N    0.488932
    27  O   -0.466989
    28  O   -0.461951
 Sum of Mulliken charges =  -0.00000

 Dipole moment (field-independent basis, Debye):
    X=             -0.4682    Y=             -0.2334    Z=              2.5632  Tot=              2.6160
 Quadrupole moment (field-independent basis, Debye-Ang):
   XX=            -77.8179   YY=           -112.4117   ZZ=           -102.7268
   XY=            -23.4665   XZ=             -1.3154   YZ=             -1.8137

 Normal termination of Gaussian 16 at Thu May  6 08:13:49 2021.
