 Gaussian 16, Revision A.03,
 Gaussian 16:  EM64L-G16RevA.03 25-Dec-2016

 -------------
 #p 6-31g* mp2
 -------------

 ------------------------------------------------------
 Input file generated by CHIRIPA (05-May-2021 14:55:23)
 ------------------------------------------------------
 Symbolic Z-matrix:
 Charge =  0 Multiplicity = 1

                         Standard orientation:
 ---------------------------------------------------------------------
 Center     Atomic      Atomic             Coordinates (Angstroms)
 Number     Number       Type             X           Y           Z
 ---------------------------------------------------------------------
      1          6           0       -4.645412    1.751803    0.668134
      2          6           0       -5.104073    0.614175   -0.004141
      3          6           0       -4.208181   -0.377661   -0.414247
      4          6           0       -2.854329   -0.198660   -0.134366
      5          6           0       -2.366566    0.923498    0.533569
      6          6           0       -3.280528    1.902568    0.934374
      7          1           0       -5.348381    2.517326    0.983102
      8          1           0       -6.163504    0.494427   -0.212259
      9          1           0       -4.536097   -1.268333   -0.936350
     10          1           0       -1.304611    1.014813    0.726783
     11          1           0       -2.921478    2.785020    1.456299
     12          7           0       -1.896323   -1.241915   -0.563604
     13          8           0       -0.708527   -1.060528   -0.305000
     14          8           0       -2.351375   -2.221251   -1.150517
     15          6           0        3.820916    0.621625   -0.405551
     16          6           0        4.556109    1.866401    0.092456
     17          6           0        4.477631    3.033052   -0.892715
     18          1           0        4.243792    0.316053   -1.372375
     19          1           0        2.768145    0.875810   -0.591183
     20          1           0        5.606866    1.609602    0.278410
     21          1           0        4.131562    2.168933    1.058297
     22          1           0        3.435516    3.317432   -1.070820
     23          1           0        4.919202    2.754922   -1.855140
     24          1           0        5.009773    3.912458   -0.516776
     25          6           0        3.890367   -0.553224    0.568425
     26          6           0        3.155175   -1.797999    0.070418
     27          6           0        3.233652   -2.964650    1.055589
     28          1           0        4.943138   -0.807408    0.754056
     29          1           0        3.467492   -0.247651    1.535248
     30          1           0        3.579722   -2.100532   -0.895424
     31          1           0        2.104417   -1.541200   -0.115537
     32          1           0        2.792082   -2.686521    2.018013
     33          1           0        4.275769   -3.249031    1.233695
     34          1           0        2.701510   -3.844056    0.679650
 ---------------------------------------------------------------------

 SCF Done:  E(RHF) =  -669.536165122     A.U. after   15 cycles
 E2 =    -0.2090949801D+01 EUMP2 =    -0.67162711492344D+03

 The electronic state is 1-A.
 Alpha  occ. eigenvalues --  -20.60979 -20.60972 -15.86023 -11.31327 -11.27892
 Alpha  occ. eigenvalues --  -11.27884 -11.27622 -11.26893 -11.26883 -11.21134
 Alpha  occ. eigenvalues --  -11.20744 -11.20662 -11.20482 -11.20199 -11.19941
 Alpha  occ. eigenvalues --   -1.60041  -1.39598  -1.19494  -1.08899  -1.07612
 Alpha  occ. eigenvalues --   -1.04889  -1.02691  -0.95745  -0.95193  -0.86290
 Alpha  occ. eigenvalues --   -0.86218  -0.82582  -0.78789  -0.77642  -0.77344
 Alpha  occ. eigenvalues --   -0.72248  -0.71355  -0.70603  -0.65153  -0.64892
 Alpha  occ. eigenvalues --   -0.64245  -0.62237  -0.60082  -0.58590  -0.56764
 Alpha  occ. eigenvalues --   -0.55392  -0.54500  -0.53220  -0.52981  -0.51899
 Alpha  occ. eigenvalues --   -0.51611  -0.49189  -0.49000  -0.48985  -0.47091
 Alpha  occ. eigenvalues --   -0.45816  -0.45016  -0.44929  -0.44726  -0.42955
 Alpha  occ. eigenvalues --   -0.37471  -0.36490
 Alpha virt. eigenvalues --    0.04901   0.11166   0.16404   0.21231   0.23537
 Alpha virt. eigenvalues --    0.25133   0.26961   0.27380   0.27925   0.28577
 Alpha virt. eigenvalues --    0.28900   0.30941   0.32119   0.32347   0.32639

 Mulliken charges:
               1
     1  C   -0.170561
     2  C   -0.218574
     3  C   -0.170356
     4  C    0.157401
     5  C   -0.170639
     6  C   -0.218472
     7  H    0.226146
     8  H    0.223953
     9  H    0.275995
    10  H    0.275016
    11  H    0.223942
    12  N    0.495969
    13  O   -0.467972
    14  O   -0.458514
    15  C   -0.298149
    16  C   -0.298786
    17  C   -0.474714
    18  H    0.149304
    19  H    0.151784
    20  H    0.151151
    21  H    0.148444
    22  H    0.152557
    23  H    0.155644
    24  H    0.157702
    25  C   -0.296710
    26  C   -0.312645
    27  C   -0.473873
    28  H    0.145204
    29  H    0.145374
    30  H    0.147755
    31  H    0.183183
    32  H    0.151795
    33  H    0.148604
    34  H    0.163043
 Sum of Mulliken charges =  -0.00000

 Dipole moment (field-independent basis, Debye):
    X=             -3.7059    Y=              3.6087    Z=              1.4329  Tot=              5.3675
 Quadrupole moment (field-independent basis, Debye-Ang):
   XX=            -73.1601   YY=            -96.3911   ZZ=            -95.4944
   XY=             -8.0786   XZ=             -2.9112   YZ=              1.3995

 Normal termination of Gaussian 16 at Wed May  5 19:05:15 2021.
