 Gaussian 16, Revision A.03,
 Gaussian 16:  EM64L-G16RevA.03 25-Dec-2016

 -------------
 #p 6-31g* mp2
 -------------

 ------------------------------------------------------
 Input file generated by CHIRIPA (05-May-2021 14:51:08)
 ------------------------------------------------------
 Symbolic Z-matrix:
 Charge =  0 Multiplicity = 1

                         Standard orientation:
 ---------------------------------------------------------------------
 Center     Atomic      Atomic             Coordinates (Angstroms)
 Number     Number       Type             X           Y           Z
 ---------------------------------------------------------------------
      1          6           0       -3.007805   -0.155593    0.106900
      2          6           0       -3.708064   -1.025361   -0.937669
      3          6           0       -3.710933   -2.508513   -0.566121
      4          1           0       -1.974048   -0.505536    0.232724
      5          1           0       -3.503788   -0.290282    1.078113
      6          1           0       -3.211773   -0.888016   -1.906920
      7          1           0       -4.740216   -0.673186   -1.061160
      8          1           0       -4.224043   -2.665603    0.388155
      9          1           0       -2.686915   -2.881653   -0.462411
     10          1           0       -4.216500   -3.111894   -1.326511
     11          6           0       -2.996762    1.329647   -0.250407
     12          6           0       -2.296503    2.199416    0.794162
     13          6           0       -2.293634    3.682567    0.422614
     14          1           0       -2.500779    1.464337   -1.221620
     15          1           0       -4.030519    1.679590   -0.376231
     16          1           0       -1.264351    1.847240    0.917653
     17          1           0       -2.792794    2.062070    1.763413
     18          1           0       -3.317652    4.055708    0.318904
     19          1           0       -1.780524    3.839657   -0.531662
     20          1           0       -1.788067    4.285948    1.183004
     21          6           0        2.336965   -0.936094   -0.065853
     22          6           0        1.988842   -2.007133    0.968395
     23          6           0        0.655006   -2.696498    0.679512
     24          1           0        1.533796   -0.187016   -0.093185
     25          1           0        2.369372   -1.396157   -1.063193
     26          1           0        1.958460   -1.545462    1.963660
     27          1           0        2.793024   -2.753646    0.993406
     28          1           0        0.677181   -3.182935   -0.301044
     29          1           0       -0.162124   -1.967885    0.674724
     30          1           0        0.425795   -3.458386    1.431077
     31          6           0        3.667602   -0.237960    0.209360
     32          6           0        4.015726    0.833079   -0.824888
     33          6           0        5.349561    1.522444   -0.536005
     34          1           0        3.635195    0.222102    1.206700
     35          1           0        4.470771   -0.987039    0.236693
     36          1           0        3.211544    1.579592   -0.849899
     37          1           0        4.046107    0.371407   -1.820152
     38          1           0        6.166691    0.793830   -0.531217
     39          1           0        5.327386    2.008880    0.444550
     40          1           0        5.578772    2.284330   -1.287570
 ---------------------------------------------------------------------

 SCF Done:  E(RHF) =  -470.733310099     A.U. after   11 cycles
 E2 =    -0.1583176131D+01 EUMP2 =    -0.47231648622987D+03

 The electronic state is 1-A.
 Alpha  occ. eigenvalues --  -11.21648 -11.21642 -11.21635 -11.21575 -11.21458
 Alpha  occ. eigenvalues --  -11.21413 -11.21394 -11.21352 -11.21106 -11.21101
 Alpha  occ. eigenvalues --  -11.21095 -11.20998  -1.08479  -1.08436  -1.03575
 Alpha  occ. eigenvalues --   -1.03522  -0.96023  -0.95973  -0.87041  -0.86989
 Alpha  occ. eigenvalues --   -0.79667  -0.79564  -0.78326  -0.78219  -0.65178
 Alpha  occ. eigenvalues --   -0.65010  -0.61015  -0.60884  -0.59389  -0.59344
 Alpha  occ. eigenvalues --   -0.57633  -0.57584  -0.55365  -0.55215  -0.52714
 Alpha  occ. eigenvalues --   -0.52667  -0.52465  -0.52391  -0.50046  -0.49858
 Alpha  occ. eigenvalues --   -0.48060  -0.47840  -0.46773  -0.46577  -0.46000
 Alpha  occ. eigenvalues --   -0.45775  -0.45751  -0.45395  -0.43825  -0.43785
 Alpha virt. eigenvalues --    0.20467   0.23024   0.23649   0.24387   0.25450
 Alpha virt. eigenvalues --    0.26658   0.27152   0.27317   0.28210   0.29372
 Alpha virt. eigenvalues --    0.30732   0.31182   0.31771   0.31865   0.31987

 Mulliken charges:
               1
     1  C   -0.307148
     2  C   -0.298960
     3  C   -0.479071
     4  H    0.157166
     5  H    0.149542
     6  H    0.151842
     7  H    0.151796
     8  H    0.154785
     9  H    0.159833
    10  H    0.159885
    11  C   -0.297602
    12  C   -0.299787
    13  C   -0.475735
    14  H    0.149644
    15  H    0.149909
    16  H    0.150803
    17  H    0.152171
    18  H    0.155454
    19  H    0.155268
    20  H    0.160205
    21  C   -0.298720
    22  C   -0.299654
    23  C   -0.484860
    24  H    0.148734
    25  H    0.149667
    26  H    0.152268
    27  H    0.152277
    28  H    0.155063
    29  H    0.163341
    30  H    0.161254
    31  C   -0.298337
    32  C   -0.299690
    33  C   -0.475739
    34  H    0.149743
    35  H    0.149933
    36  H    0.151855
    37  H    0.151941
    38  H    0.155252
    39  H    0.155305
    40  H    0.160370
 Sum of Mulliken charges =  -0.00000

 Dipole moment (field-independent basis, Debye):
    X=              0.0126    Y=             -0.0109    Z=              0.0052  Tot=              0.0174
 Quadrupole moment (field-independent basis, Debye-Ang):
   XX=            -84.6171   YY=            -85.8102   ZZ=            -84.2417
   XY=             -1.1341   XZ=             -0.7832   YZ=              0.5476

 Normal termination of Gaussian 16 at Thu May  6 03:40:59 2021.
