 Gaussian 16, Revision A.03,
 Gaussian 16:  EM64L-G16RevA.03 25-Dec-2016

 -------------
 #p 6-31g* mp2
 -------------

 ------------------------------------------------------
 Input file generated by CHIRIPA (05-May-2021 14:57:26)
 ------------------------------------------------------
 Symbolic Z-matrix:
 Charge =  0 Multiplicity = 1

                         Standard orientation:
 ---------------------------------------------------------------------
 Center     Atomic      Atomic             Coordinates (Angstroms)
 Number     Number       Type             X           Y           Z
 ---------------------------------------------------------------------
      1          6           0        5.079109    2.034175   -0.046047
      2          6           0        3.982345    2.006206    0.821621
      3          6           0        3.128165    0.899829    0.850842
      4          6           0        3.401655   -0.165997   -0.005025
      5          6           0        4.486289   -0.167916   -0.880728
      6          6           0        5.327143    0.948938   -0.892960
      7          1           0        5.737480    2.897705   -0.062148
      8          1           0        3.787280    2.847589    1.480460
      9          1           0        2.271940    0.851895    1.512658
     10          1           0        4.655042   -1.021679   -1.525732
     11          1           0        6.178155    0.967904   -1.567840
     12          7           0        2.504427   -1.342815    0.016917
     13          8           0        2.767068   -2.269119   -0.747031
     14          8           0        1.555528   -1.316617    0.797648
     15          6           0       -1.980158   -1.870858    0.720478
     16          6           0       -2.455024   -0.952845    1.662961
     17          6           0       -3.324981    0.072309    1.279839
     18          6           0       -3.701251    0.150208   -0.060176
     19          6           0       -3.245276   -0.749192   -1.022703
     20          6           0       -2.376101   -1.766286   -0.616988
     21          1           0       -1.304658   -2.664093    1.026870
     22          1           0       -2.149214   -1.031626    2.702344
     23          1           0       -3.707735    0.796451    1.988737
     24          1           0       -3.567877   -0.645040   -2.051537
     25          1           0       -2.008900   -2.477818   -1.351108
     26          7           0       -4.621821    1.231227   -0.477729
     27          8           0       -4.938325    1.278224   -1.664428
     28          8           0       -5.009427    2.011061    0.389598
 ---------------------------------------------------------------------

 SCF Done:  E(RHF) =  -868.340102396     A.U. after   16 cycles
 E2 =    -0.2598549410D+01 EUMP2 =    -0.87093865180575D+03

 The electronic state is 1-A.
 Alpha  occ. eigenvalues --  -20.61588 -20.61583 -20.60119 -20.60112 -15.86611
 Alpha  occ. eigenvalues --  -15.85167 -11.31711 -11.30258 -11.28250 -11.28244
 Alpha  occ. eigenvalues --  -11.27935 -11.27201 -11.27191 -11.26864 -11.26831
 Alpha  occ. eigenvalues --  -11.26321 -11.25712 -11.25654  -1.60653  -1.59203
 Alpha  occ. eigenvalues --   -1.40213  -1.38764  -1.19858  -1.18404  -1.09303
 Alpha  occ. eigenvalues --   -1.07792  -1.05221  -1.03788  -0.96185  -0.94679
 Alpha  occ. eigenvalues --   -0.86631  -0.85167  -0.83029  -0.81546  -0.78103
 Alpha  occ. eigenvalues --   -0.76673  -0.72867  -0.71948  -0.71389  -0.70962
 Alpha  occ. eigenvalues --   -0.70528  -0.69384  -0.65514  -0.65221  -0.64035
 Alpha  occ. eigenvalues --   -0.63767  -0.62573  -0.61162  -0.55730  -0.54121
 Alpha  occ. eigenvalues --   -0.53562  -0.53309  -0.52108  -0.51865  -0.49618
 Alpha  occ. eigenvalues --   -0.49583  -0.48160  -0.48118  -0.45672  -0.44233
 Alpha  occ. eigenvalues --   -0.37820  -0.36811  -0.36235  -0.35424
 Alpha virt. eigenvalues --    0.04401   0.05902   0.10849   0.12266   0.15953
 Alpha virt. eigenvalues --    0.17503   0.21015   0.22543   0.26937   0.27878
 Alpha virt. eigenvalues --    0.28276   0.29537   0.30612   0.32060   0.32222

 Mulliken charges:
               1
     1  C   -0.169727
     2  C   -0.218291
     3  C   -0.169867
     4  C    0.157927
     5  C   -0.170516
     6  C   -0.218477
     7  H    0.227829
     8  H    0.225525
     9  H    0.274740
    10  H    0.275739
    11  H    0.225125
    12  N    0.490214
    13  O   -0.460697
    14  O   -0.468061
    15  C   -0.156305
    16  C   -0.221494
    17  C   -0.173517
    18  C    0.155954
    19  C   -0.172797
    20  C   -0.221771
    21  H    0.239092
    22  H    0.220816
    23  H    0.270760
    24  H    0.272045
    25  H    0.225160
    26  N    0.488304
    27  O   -0.463319
    28  O   -0.464393
 Sum of Mulliken charges =  -0.00000

 Dipole moment (field-independent basis, Debye):
    X=              6.8931    Y=              0.1947    Z=              1.4129  Tot=              7.0391
 Quadrupole moment (field-independent basis, Debye-Ang):
   XX=           -107.8090   YY=           -106.5542   ZZ=            -98.6904
   XY=             27.8755   XZ=             -8.5960   YZ=              4.0127

 Normal termination of Gaussian 16 at Thu May  6 00:26:18 2021.
