 Gaussian 16, Revision A.03,
 Gaussian 16:  EM64L-G16RevA.03 25-Dec-2016

 -------------
 #p 6-31g* mp2
 -------------

 ------------------------------------------------------
 Input file generated by CHIRIPA (05-May-2021 14:57:25)
 ------------------------------------------------------
 Symbolic Z-matrix:
 Charge =  0 Multiplicity = 1

                         Standard orientation:
 ---------------------------------------------------------------------
 Center     Atomic      Atomic             Coordinates (Angstroms)
 Number     Number       Type             X           Y           Z
 ---------------------------------------------------------------------
      1          6           0       -1.303395   -1.814475   -0.586295
      2          6           0       -2.167787   -1.286616   -1.551029
      3          6           0       -3.245540   -0.480093   -1.173516
      4          6           0       -3.430144   -0.220604    0.183642
      5          6           0       -2.586345   -0.731842    1.168492
      6          6           0       -1.515060   -1.535894    0.767999
      7          1           0       -0.468682   -2.440042   -0.888481
      8          1           0       -2.005836   -1.501294   -2.603516
      9          1           0       -3.930091   -0.058487   -1.899503
     10          1           0       -2.773400   -0.500231    2.210022
     11          1           0       -0.845372   -1.944479    1.519413
     12          7           0       -4.567690    0.631918    0.595462
     13          8           0       -4.708701    0.845661    1.797571
     14          8           0       -5.296748    1.070238   -0.291660
     15          6           0        5.196317   -0.873325    0.896816
     16          6           0        4.189829   -1.581141    0.231608
     17          6           0        3.102736   -0.907566   -0.333259
     18          6           0        3.053791    0.480451   -0.213662
     19          6           0        4.040877    1.213841    0.442913
     20          6           0        5.118764    0.519451    1.000163
     21          1           0        6.037221   -1.404660    1.332660
     22          1           0        4.247438   -2.662822    0.149808
     23          1           0        2.309692   -1.430671   -0.853701
     24          1           0        3.955849    2.291765    0.508248
     25          1           0        5.898964    1.071755    1.516200
     26          7           0        1.907807    1.204553   -0.807629
     27          8           0        1.887988    2.427693   -0.688582
     28          8           0        1.051102    0.535252   -1.380981
 ---------------------------------------------------------------------

 SCF Done:  E(RHF) =  -868.337053724     A.U. after   16 cycles
 E2 =    -0.2600757936D+01 EUMP2 =    -0.87093781166012D+03

 The electronic state is 1-A.
 Alpha  occ. eigenvalues --  -20.61340 -20.61334 -20.60054 -20.60042 -15.86380
 Alpha  occ. eigenvalues --  -15.85103 -11.31831 -11.30347 -11.28484 -11.28338
 Alpha  occ. eigenvalues --  -11.28106 -11.27454 -11.27364 -11.26979 -11.26891
 Alpha  occ. eigenvalues --  -11.26758 -11.26011 -11.25878  -1.60402  -1.59127
 Alpha  occ. eigenvalues --   -1.39960  -1.38685  -1.19995  -1.18521  -1.09365
 Alpha  occ. eigenvalues --   -1.07954  -1.05415  -1.03928  -0.96197  -0.94814
 Alpha  occ. eigenvalues --   -0.86804  -0.85353  -0.83033  -0.81663  -0.78085
 Alpha  occ. eigenvalues --   -0.76707  -0.72614  -0.71725  -0.71334  -0.71099
 Alpha  occ. eigenvalues --   -0.70441  -0.69724  -0.65646  -0.65411  -0.64211
 Alpha  occ. eigenvalues --   -0.63981  -0.62773  -0.61308  -0.55884  -0.54534
 Alpha  occ. eigenvalues --   -0.53729  -0.53497  -0.52211  -0.52067  -0.49380
 Alpha  occ. eigenvalues --   -0.49343  -0.48088  -0.48080  -0.45344  -0.44119
 Alpha  occ. eigenvalues --   -0.37958  -0.37024  -0.36414  -0.35491
 Alpha virt. eigenvalues --    0.04435   0.05870   0.10618   0.12157   0.15937
 Alpha virt. eigenvalues --    0.17311   0.19884   0.21989   0.25608   0.27186
 Alpha virt. eigenvalues --    0.27985   0.29054   0.30690   0.31164   0.33170

 Mulliken charges:
               1
     1  C   -0.153497
     2  C   -0.208829
     3  C   -0.168661
     4  C    0.159244
     5  C   -0.170353
     6  C   -0.220446
     7  H    0.214062
     8  H    0.222383
     9  H    0.274355
    10  H    0.272283
    11  H    0.215638
    12  N    0.488385
    13  O   -0.463390
    14  O   -0.461317
    15  C   -0.170693
    16  C   -0.218715
    17  C   -0.173152
    18  C    0.159527
    19  C   -0.170252
    20  C   -0.218031
    21  H    0.227503
    22  H    0.222690
    23  H    0.267598
    24  H    0.278194
    25  H    0.226081
    26  N    0.489469
    27  O   -0.456083
    28  O   -0.463994
 Sum of Mulliken charges =  -0.00000

 Dipole moment (field-independent basis, Debye):
    X=              8.2570    Y=             -5.3539    Z=              0.5300  Tot=              9.8551
 Quadrupole moment (field-independent basis, Debye-Ang):
   XX=           -107.5598   YY=           -103.2318   ZZ=           -101.9898
   XY=              5.4605   XZ=             14.2367   YZ=              2.4318

 Normal termination of Gaussian 16 at Thu May  6 22:51:15 2021.
