 Gaussian 16, Revision A.03,
 Gaussian 16:  EM64L-G16RevA.03 25-Dec-2016

 -------------
 #p 6-31g* mp2
 -------------

 ------------------------------------------------------
 Input file generated by CHIRIPA (05-May-2021 14:53:18)
 ------------------------------------------------------
 Symbolic Z-matrix:
 Charge =  0 Multiplicity = 1

                         Standard orientation:
 ---------------------------------------------------------------------
 Center     Atomic      Atomic             Coordinates (Angstroms)
 Number     Number       Type             X           Y           Z
 ---------------------------------------------------------------------
      1          6           0       -3.307188   -0.688209    0.037046
      2          6           0       -2.480470   -1.098116    1.256266
      3          6           0       -1.075666   -1.574069    0.885067
      4          1           0       -3.377538   -1.539798   -0.653455
      5          1           0       -2.779588    0.109780   -0.503553
      6          1           0       -3.010136   -1.894135    1.795175
      7          1           0       -2.412242   -0.245511    1.944035
      8          1           0       -0.524970   -0.782227    0.367070
      9          1           0       -1.126262   -2.440218    0.217364
     10          1           0       -0.502068   -1.862135    1.771556
     11          6           0       -4.714004   -0.210056    0.391963
     12          6           0       -5.540722    0.199851   -0.827257
     13          6           0       -6.945526    0.675804   -0.456058
     14          1           0       -5.241605   -1.008045    0.932562
     15          1           0       -4.643655    0.641533    1.082464
     16          1           0       -5.608951   -0.652754   -1.515026
     17          1           0       -5.011056    0.995870   -1.366166
     18          1           0       -6.894930    1.541953    0.211645
     19          1           0       -7.496222   -0.116038    0.061939
     20          1           0       -7.519124    0.963870   -1.342547
     21          6           0        4.845280   -1.495178   -0.331964
     22          6           0        5.113406   -0.358336    0.437593
     23          6           0        4.172174    0.670730    0.535849
     24          6           0        2.967768    0.529355   -0.151689
     25          6           0        2.671245   -0.590996   -0.926401
     26          6           0        3.627204   -1.607682   -1.010310
     27          1           0        5.582172   -2.289773   -0.402719
     28          1           0        6.058530   -0.268256    0.965486
     29          1           0        4.353820    1.561701    1.124572
     30          1           0        1.720138   -0.652251   -1.441242
     31          1           0        3.416257   -2.489429   -1.608697
     32          7           0        1.963533    1.612229   -0.055266
     33          8           0        0.910015    1.463581   -0.670603
     34          8           0        2.248947    2.589127    0.633824
 ---------------------------------------------------------------------

 SCF Done:  E(RHF) =  -669.536528990     A.U. after   15 cycles
 E2 =    -0.2091439488D+01 EUMP2 =    -0.67162796847778D+03

 The electronic state is 1-A.
 Alpha  occ. eigenvalues --  -20.60971 -20.60959 -15.85980 -11.31247 -11.27813
 Alpha  occ. eigenvalues --  -11.27799 -11.27545 -11.26813 -11.26797 -11.21095
 Alpha  occ. eigenvalues --  -11.21028 -11.20828 -11.20714 -11.20637 -11.20534
 Alpha  occ. eigenvalues --   -1.60016  -1.39576  -1.19416  -1.08832  -1.07856
 Alpha  occ. eigenvalues --   -1.04805  -1.02999  -0.95685  -0.95458  -0.86491
 Alpha  occ. eigenvalues --   -0.86207  -0.82519  -0.79078  -0.77682  -0.77560
 Alpha  occ. eigenvalues --   -0.72210  -0.71322  -0.70529  -0.65076  -0.64814
 Alpha  occ. eigenvalues --   -0.64470  -0.62159  -0.60382  -0.58831  -0.57075
 Alpha  occ. eigenvalues --   -0.55319  -0.54737  -0.53139  -0.52904  -0.52179
 Alpha  occ. eigenvalues --   -0.51894  -0.49437  -0.48960  -0.48939  -0.47400
 Alpha  occ. eigenvalues --   -0.46118  -0.45256  -0.45167  -0.44804  -0.43252
 Alpha  occ. eigenvalues --   -0.37393  -0.36396
 Alpha virt. eigenvalues --    0.04917   0.11206   0.16392   0.21269   0.23468
 Alpha virt. eigenvalues --    0.24736   0.26729   0.27295   0.27746   0.28239
 Alpha virt. eigenvalues --    0.28960   0.30639   0.31685   0.32123   0.32405

 Mulliken charges:
               1
     1  C   -0.301170
     2  C   -0.296912
     3  C   -0.488582
     4  H    0.144855
     5  H    0.160823
     6  H    0.147993
     7  H    0.155453
     8  H    0.171182
     9  H    0.147164
    10  H    0.155988
    11  C   -0.298170
    12  C   -0.299775
    13  C   -0.475492
    14  H    0.146740
    15  H    0.151428
    16  H    0.149718
    17  H    0.154786
    18  H    0.155795
    19  H    0.153581
    20  H    0.159026
    21  C   -0.170463
    22  C   -0.218643
    23  C   -0.170847
    24  C    0.158570
    25  C   -0.169602
    26  C   -0.218813
    27  H    0.225850
    28  H    0.223598
    29  H    0.275527
    30  H    0.276809
    31  H    0.224009
    32  N    0.488645
    33  O   -0.460782
    34  O   -0.458290
 Sum of Mulliken charges =  -0.00000

 Dipole moment (field-independent basis, Debye):
    X=              3.7119    Y=             -3.6455    Z=             -0.3760  Tot=              5.2162
 Quadrupole moment (field-independent basis, Debye-Ang):
   XX=            -73.5767   YY=            -97.4737   ZZ=            -93.5368
   XY=             -7.5062   XZ=              0.7675   YZ=              2.4470

 Normal termination of Gaussian 16 at Thu May  6 17:19:24 2021.
