 Gaussian 16, Revision A.03,
 Gaussian 16:  EM64L-G16RevA.03 25-Dec-2016

 -------------
 #p 6-31g* mp2
 -------------

 ------------------------------------------------------
 Input file generated by CHIRIPA (05-May-2021 14:55:21)
 ------------------------------------------------------
 Symbolic Z-matrix:
 Charge =  0 Multiplicity = 1

                         Standard orientation:
 ---------------------------------------------------------------------
 Center     Atomic      Atomic             Coordinates (Angstroms)
 Number     Number       Type             X           Y           Z
 ---------------------------------------------------------------------
      1          6           0        3.796493   -1.305395   -0.485705
      2          6           0        3.697331   -0.211037   -1.351193
      3          6           0        2.856942    0.863197   -1.044084
      4          6           0        2.126809    0.809821    0.142232
      5          6           0        2.204061   -0.266380    1.024905
      6          6           0        3.050857   -1.329531    0.697496
      7          1           0        4.451816   -2.135580   -0.732159
      8          1           0        4.275222   -0.189580   -2.270772
      9          1           0        2.761164    1.722883   -1.696146
     10          1           0        1.615553   -0.259188    1.934314
     11          1           0        3.125875   -2.178116    1.371529
     12          7           0        1.233735    1.941198    0.478099
     13          8           0        0.600988    1.870043    1.529387
     14          8           0        1.183402    2.877703   -0.316294
     15          6           0       -2.472954   -1.267429    0.302723
     16          6           0       -1.253285   -1.787840   -0.458568
     17          6           0       -0.387303   -2.725932    0.382773
     18          1           0       -2.136285   -0.744413    1.208291
     19          1           0       -3.076934   -2.120786    0.640931
     20          1           0       -0.652513   -0.933711   -0.796431
     21          1           0       -1.592888   -2.309513   -1.362527
     22          1           0       -0.966189   -3.596315    0.708236
     23          1           0       -0.020471   -2.212696    1.277549
     24          1           0        0.478967   -3.086113   -0.180880
     25          6           0       -3.348480   -0.328364   -0.525128
     26          6           0       -4.568149    0.192048    0.236163
     27          6           0       -5.434131    1.130140   -0.605177
     28          1           0       -2.744500    0.524994   -0.863335
     29          1           0       -3.685148   -0.851380   -1.430696
     30          1           0       -4.228546    0.713720    1.140123
     31          1           0       -5.168921   -0.662081    0.574027
     32          1           0       -5.800964    0.616904   -1.499953
     33          1           0       -4.855245    2.000522   -0.930640
     34          1           0       -6.300401    1.490321   -0.041524
 ---------------------------------------------------------------------

 SCF Done:  E(RHF) =  -669.534863373     A.U. after   15 cycles
 E2 =    -0.2093622867D+01 EUMP2 =    -0.67162848623973D+03

 The electronic state is 1-A.
 Alpha  occ. eigenvalues --  -20.60878 -20.60872 -15.85927 -11.31258 -11.27810
 Alpha  occ. eigenvalues --  -11.27802 -11.27539 -11.26815 -11.26795 -11.21527
 Alpha  occ. eigenvalues --  -11.21227 -11.21101 -11.21062 -11.20925 -11.20571
 Alpha  occ. eigenvalues --   -1.59952  -1.39505  -1.19426  -1.08824  -1.08109
 Alpha  occ. eigenvalues --   -1.04825  -1.03270  -0.95756  -0.95646  -0.86767
 Alpha  occ. eigenvalues --   -0.86219  -0.82496  -0.79355  -0.77892  -0.77546
 Alpha  occ. eigenvalues --   -0.72143  -0.71280  -0.70536  -0.65077  -0.64839
 Alpha  occ. eigenvalues --   -0.64717  -0.62193  -0.60678  -0.59138  -0.57337
 Alpha  occ. eigenvalues --   -0.55335  -0.55085  -0.53104  -0.52912  -0.52397
 Alpha  occ. eigenvalues --   -0.52159  -0.49685  -0.48899  -0.48898  -0.47670
 Alpha  occ. eigenvalues --   -0.46379  -0.45451  -0.45326  -0.44904  -0.43510
 Alpha  occ. eigenvalues --   -0.37385  -0.36330
 Alpha virt. eigenvalues --    0.04966   0.11160   0.16445   0.20823   0.23059
 Alpha virt. eigenvalues --    0.24419   0.26087   0.26996   0.27605   0.28296
 Alpha virt. eigenvalues --    0.29013   0.30590   0.31383   0.31686   0.32299

 Mulliken charges:
               1
     1  C   -0.172379
     2  C   -0.218055
     3  C   -0.172144
     4  C    0.158118
     5  C   -0.168476
     6  C   -0.213915
     7  H    0.225878
     8  H    0.223663
     9  H    0.275695
    10  H    0.275111
    11  H    0.224611
    12  N    0.487830
    13  O   -0.461240
    14  O   -0.460025
    15  C   -0.300299
    16  C   -0.300177
    17  C   -0.472924
    18  H    0.156811
    19  H    0.147050
    20  H    0.151754
    21  H    0.151210
    22  H    0.154259
    23  H    0.147108
    24  H    0.156883
    25  C   -0.298881
    26  C   -0.300266
    27  C   -0.476226
    28  H    0.155287
    29  H    0.146555
    30  H    0.157260
    31  H    0.148978
    32  H    0.152631
    33  H    0.158921
    34  H    0.159392
 Sum of Mulliken charges =  -0.00000

 Dipole moment (field-independent basis, Debye):
    X=              3.2016    Y=             -3.8745    Z=             -1.1672  Tot=              5.1599
 Quadrupole moment (field-independent basis, Debye-Ang):
   XX=            -81.9228   YY=           -100.8592   ZZ=            -91.9180
   XY=             -4.7771   XZ=             -3.7203   YZ=             -3.1771

 Normal termination of Gaussian 16 at Thu May  6 20:46:54 2021.
