 Gaussian 16, Revision A.03,
 Gaussian 16:  EM64L-G16RevA.03 25-Dec-2016

 -------------
 #p 6-31g* mp2
 -------------

 ------------------------------------------------------
 Input file generated by CHIRIPA (05-May-2021 14:55:21)
 ------------------------------------------------------
 Symbolic Z-matrix:
 Charge =  0 Multiplicity = 1

                         Standard orientation:
 ---------------------------------------------------------------------
 Center     Atomic      Atomic             Coordinates (Angstroms)
 Number     Number       Type             X           Y           Z
 ---------------------------------------------------------------------
      1          6           0        1.550466    2.474207    0.361310
      2          6           0        2.883851    2.344604    0.763562
      3          6           0        3.607220    1.186955    0.461679
      4          6           0        2.963056    0.174053   -0.247102
      5          6           0        1.635824    0.273404   -0.661682
      6          6           0        0.931798    1.440017   -0.348776
      7          1           0        0.996048    3.376979    0.600102
      8          1           0        3.366885    3.146152    1.315145
      9          1           0        4.640589    1.060348    0.760907
     10          1           0        1.181377   -0.542661   -1.210256
     11          1           0       -0.103611    1.537915   -0.662447
     12          7           0        3.718615   -1.056243   -0.572527
     13          8           0        3.128255   -1.934224   -1.198038
     14          8           0        4.886876   -1.119274   -0.195923
     15          6           0       -4.309325   -0.138003    0.336445
     16          6           0       -4.979384    0.232923   -0.986967
     17          6           0       -6.330927    0.920988   -0.792821
     18          1           0       -4.978740   -0.796026    0.907264
     19          1           0       -4.175837    0.770960    0.939239
     20          1           0       -5.110313   -0.676272   -1.587666
     21          1           0       -4.308215    0.889984   -1.554787
     22          1           0       -6.214086    1.843495   -0.214955
     23          1           0       -7.020741    0.268340   -0.248021
     24          1           0       -6.792295    1.177386   -1.751602
     25          6           0       -2.957312   -0.826656    0.158834
     26          6           0       -2.287254   -1.197582    1.482247
     27          6           0       -0.935711   -1.885647    1.288101
     28          1           0       -3.090801   -1.735620   -0.443961
     29          1           0       -2.287897   -0.168634   -0.411984
     30          1           0       -2.958422   -1.854644    2.050066
     31          1           0       -2.156325   -0.288389    2.082945
     32          1           0       -0.245897   -1.232999    0.743300
     33          1           0       -1.052551   -2.808155    0.710234
     34          1           0       -0.474343   -2.142046    2.246881
 ---------------------------------------------------------------------

 SCF Done:  E(RHF) =  -669.534659424     A.U. after   15 cycles
 E2 =    -0.2092883263D+01 EUMP2 =    -0.67162754268693D+03

 The electronic state is 1-A.
 Alpha  occ. eigenvalues --  -20.60770 -20.60763 -15.85826 -11.31224 -11.27804
 Alpha  occ. eigenvalues --  -11.27792 -11.27554 -11.26828 -11.26816 -11.22095
 Alpha  occ. eigenvalues --  -11.22010 -11.21950 -11.21882 -11.21491 -11.21195
 Alpha  occ. eigenvalues --   -1.59844  -1.39397  -1.19415  -1.08922  -1.08794
 Alpha  occ. eigenvalues --   -1.04836  -1.03929  -0.96376  -0.95625  -0.87390
 Alpha  occ. eigenvalues --   -0.86213  -0.82463  -0.79999  -0.78758  -0.77495
 Alpha  occ. eigenvalues --   -0.72044  -0.71168  -0.70524  -0.65586  -0.65063
 Alpha  occ. eigenvalues --   -0.64821  -0.62219  -0.61299  -0.59741  -0.57994
 Alpha  occ. eigenvalues --   -0.55716  -0.55316  -0.53244  -0.53022  -0.52971
 Alpha  occ. eigenvalues --   -0.52644  -0.50296  -0.48806  -0.48795  -0.48301
 Alpha  occ. eigenvalues --   -0.47041  -0.46294  -0.46213  -0.44791  -0.44210
 Alpha  occ. eigenvalues --   -0.37389  -0.36354
 Alpha virt. eigenvalues --    0.05001   0.11171   0.16374   0.19543   0.22716
 Alpha virt. eigenvalues --    0.23950   0.25058   0.26692   0.27104   0.28415
 Alpha virt. eigenvalues --    0.29183   0.30731   0.31336   0.31529   0.32061

 Mulliken charges:
               1
     1  C   -0.171006
     2  C   -0.218246
     3  C   -0.171045
     4  C    0.158539
     5  C   -0.172780
     6  C   -0.219882
     7  H    0.225915
     8  H    0.223680
     9  H    0.275924
    10  H    0.277642
    11  H    0.227053
    12  N    0.488328
    13  O   -0.459833
    14  O   -0.460510
    15  C   -0.298284
    16  C   -0.299300
    17  C   -0.475848
    18  H    0.152838
    19  H    0.147532
    20  H    0.154340
    21  H    0.147858
    22  H    0.154343
    23  H    0.156929
    24  H    0.161519
    25  C   -0.298711
    26  C   -0.299706
    27  C   -0.480986
    28  H    0.153828
    29  H    0.138180
    30  H    0.154518
    31  H    0.149591
    32  H    0.155216
    33  H    0.158978
    34  H    0.163385
 Sum of Mulliken charges =  -0.00000

 Dipole moment (field-independent basis, Debye):
    X=             -2.6785    Y=              4.2676    Z=              1.1819  Tot=              5.1753
 Quadrupole moment (field-independent basis, Debye-Ang):
   XX=           -107.7772   YY=            -92.3090   ZZ=            -94.9344
   XY=             15.3857   XZ=              6.2048   YZ=              0.1611

 Normal termination of Gaussian 16 at Thu May  6 20:42:41 2021.
