 Gaussian 16, Revision A.03,
 Gaussian 16:  EM64L-G16RevA.03 25-Dec-2016

 -------------
 #p 6-31g* mp2
 -------------

 ------------------------------------------------------
 Input file generated by CHIRIPA (05-May-2021 14:51:10)
 ------------------------------------------------------
 Symbolic Z-matrix:
 Charge =  0 Multiplicity = 1

                         Standard orientation:
 ---------------------------------------------------------------------
 Center     Atomic      Atomic             Coordinates (Angstroms)
 Number     Number       Type             X           Y           Z
 ---------------------------------------------------------------------
      1          6           0       -4.326518    0.577779    0.118417
      2          6           0       -5.828725    0.614977   -0.164382
      3          6           0       -6.451846    1.980081    0.128885
      4          1           0       -4.151055    0.844309    1.169664
      5          1           0       -3.827406    1.347312   -0.486646
      6          1           0       -6.324683   -0.155323    0.440002
      7          1           0       -6.000647    0.348141   -1.215028
      8          1           0       -5.983760    2.756955   -0.484273
      9          1           0       -6.309637    2.250631    1.180161
     10          1           0       -7.526153    1.984273   -0.080177
     11          6           0       -3.689225   -0.780320   -0.169944
     12          6           0       -2.187018   -0.817517    0.112855
     13          6           0       -1.563898   -2.182621   -0.180412
     14          1           0       -4.188337   -1.549852    0.435119
     15          1           0       -3.864688   -1.046850   -1.221191
     16          1           0       -2.015097   -0.550681    1.163501
     17          1           0       -1.691061   -0.047217   -0.491529
     18          1           0       -1.706107   -2.453171   -1.231688
     19          1           0       -2.031984   -2.959495    0.432746
     20          1           0       -0.489591   -2.186813    0.028650
     21          6           0        4.404438    0.657017   -0.316746
     22          6           0        4.351484    1.989389    0.431563
     23          6           0        5.149586    3.091304   -0.266010
     24          1           0        5.452202    0.343315   -0.420323
     25          1           0        4.019125    0.801132   -1.335647
     26          1           0        4.735493    1.842501    1.449195
     27          1           0        3.303712    2.299860    0.533539
     28          1           0        4.763185    3.266832   -1.275210
     29          1           0        6.203102    2.806874   -0.354352
     30          1           0        5.098098    4.035034    0.285881
     31          6           0        3.611305   -0.454477    0.368273
     32          6           0        3.664260   -1.786848   -0.380036
     33          6           0        2.866158   -2.888764    0.317537
     34          1           0        3.996619   -0.598591    1.387174
     35          1           0        2.563542   -0.140774    0.471851
     36          1           0        4.712032   -2.097320   -0.482012
     37          1           0        3.280251   -1.639960   -1.397668
     38          1           0        1.812642   -2.604333    0.405879
     39          1           0        3.252558   -3.064292    1.326737
     40          1           0        2.917646   -3.832494   -0.234355
 ---------------------------------------------------------------------

 SCF Done:  E(RHF) =  -470.733335308     A.U. after   11 cycles
 E2 =    -0.1582314190D+01 EUMP2 =    -0.47231564949800D+03

 The electronic state is 1-A.
 Alpha  occ. eigenvalues --  -11.21636 -11.21615 -11.21598 -11.21597 -11.21426
 Alpha  occ. eigenvalues --  -11.21404 -11.21366 -11.21344 -11.21093 -11.21082
 Alpha  occ. eigenvalues --  -11.21069 -11.21058  -1.08452  -1.08428  -1.03558
 Alpha  occ. eigenvalues --   -1.03522  -0.96019  -0.95961  -0.87050  -0.86964
 Alpha  occ. eigenvalues --   -0.79635  -0.79568  -0.78263  -0.78241  -0.65081
 Alpha  occ. eigenvalues --   -0.65062  -0.60957  -0.60945  -0.59408  -0.59320
 Alpha  occ. eigenvalues --   -0.57686  -0.57526  -0.55284  -0.55278  -0.52778
 Alpha  occ. eigenvalues --   -0.52662  -0.52467  -0.52298  -0.49938  -0.49904
 Alpha  occ. eigenvalues --   -0.47995  -0.47840  -0.46647  -0.46614  -0.45806
 Alpha  occ. eigenvalues --   -0.45781  -0.45730  -0.45706  -0.43782  -0.43778
 Alpha virt. eigenvalues --    0.21409   0.23027   0.23507   0.24907   0.26197
 Alpha virt. eigenvalues --    0.26634   0.27109   0.27455   0.27795   0.28691
 Alpha virt. eigenvalues --    0.30105   0.31397   0.31727   0.31892   0.31966

 Mulliken charges:
               1
     1  C   -0.298240
     2  C   -0.299664
     3  C   -0.475717
     4  H    0.149724
     5  H    0.149428
     6  H    0.152006
     7  H    0.151960
     8  H    0.155164
     9  H    0.155219
    10  H    0.160313
    11  C   -0.298624
    12  C   -0.298920
    13  C   -0.483821
    14  H    0.149730
    15  H    0.149710
    16  H    0.152095
    17  H    0.151354
    18  H    0.155491
    19  H    0.155851
    20  H    0.167044
    21  C   -0.298287
    22  C   -0.299698
    23  C   -0.475702
    24  H    0.149684
    25  H    0.149499
    26  H    0.151928
    27  H    0.152064
    28  H    0.155139
    29  H    0.155172
    30  H    0.160261
    31  C   -0.298507
    32  C   -0.299282
    33  C   -0.483343
    34  H    0.149582
    35  H    0.149484
    36  H    0.152016
    37  H    0.151994
    38  H    0.161768
    39  H    0.155380
    40  H    0.160747
 Sum of Mulliken charges =  -0.00000

 Dipole moment (field-independent basis, Debye):
    X=             -0.0073    Y=             -0.0067    Z=              0.0023  Tot=              0.0102
 Quadrupole moment (field-independent basis, Debye-Ang):
   XX=            -84.6655   YY=            -86.2951   ZZ=            -83.7313
   XY=             -0.0906   XZ=              0.5648   YZ=             -0.2405

 Normal termination of Gaussian 16 at Wed May  5 23:01:56 2021.
