 Gaussian 16, Revision A.03,
 Gaussian 16:  EM64L-G16RevA.03 25-Dec-2016

 -------------
 #p 6-31g* mp2
 -------------

 ------------------------------------------------------
 Input file generated by CHIRIPA (05-May-2021 14:57:27)
 ------------------------------------------------------
 Symbolic Z-matrix:
 Charge =  0 Multiplicity = 1

                         Standard orientation:
 ---------------------------------------------------------------------
 Center     Atomic      Atomic             Coordinates (Angstroms)
 Number     Number       Type             X           Y           Z
 ---------------------------------------------------------------------
      1          6           0        2.886206   -1.965034    1.660286
      2          6           0        1.892095   -1.653738    0.726820
      3          6           0        2.091123   -0.634474   -0.209149
      4          6           0        3.301692    0.056274   -0.183075
      5          6           0        4.311350   -0.230394    0.734368
      6          6           0        4.090538   -1.253623    1.661079
      7          1           0        2.723135   -2.758362    2.383773
      8          1           0        0.955809   -2.204559    0.723865
      9          1           0        1.338457   -0.372758   -0.942919
     10          1           0        5.234294    0.336282    0.712673
     11          1           0        4.864353   -1.493207    2.384857
     12          7           0        3.523925    1.137421   -1.169043
     13          8           0        4.599212    1.731120   -1.125268
     14          8           0        2.618616    1.370653   -1.966950
     15          6           0       -2.963544    2.184585    1.441981
     16          6           0       -4.244829    1.670388    1.217413
     17          6           0       -4.423765    0.528068    0.431516
     18          6           0       -3.294215   -0.077499   -0.116840
     19          6           0       -2.004767    0.410779    0.088580
     20          6           0       -1.849566    1.554251    0.877842
     21          1           0       -2.833762    3.072414    2.053790
     22          1           0       -5.111779    2.157837    1.654262
     23          1           0       -5.404336    0.108790    0.241498
     24          1           0       -1.159715   -0.097014   -0.360254
     25          1           0       -0.853313    1.951361    1.050549
     26          7           0       -3.471083   -1.287432   -0.950616
     27          8           0       -2.459766   -1.802464   -1.422440
     28          8           0       -4.617678   -1.697835   -1.116517
 ---------------------------------------------------------------------

 SCF Done:  E(RHF) =  -868.338130499     A.U. after   16 cycles
 E2 =    -0.2599832905D+01 EUMP2 =    -0.87093796340474D+03

 The electronic state is 1-A.
 Alpha  occ. eigenvalues --  -20.61169 -20.61138 -20.61087 -20.61080 -15.86203
 Alpha  occ. eigenvalues --  -15.86137 -11.31518 -11.31496 -11.28105 -11.28087
 Alpha  occ. eigenvalues --  -11.28042 -11.28008 -11.27742 -11.27713 -11.27060
 Alpha  occ. eigenvalues --  -11.27022 -11.27014 -11.27002  -1.60227  -1.60164
 Alpha  occ. eigenvalues --   -1.39787  -1.39717  -1.19668  -1.19639  -1.09047
 Alpha  occ. eigenvalues --   -1.09039  -1.05086  -1.05011  -0.95908  -0.95879
 Alpha  occ. eigenvalues --   -0.86459  -0.86426  -0.82743  -0.82704  -0.77868
 Alpha  occ. eigenvalues --   -0.77716  -0.72426  -0.72347  -0.71545  -0.71494
 Alpha  occ. eigenvalues --   -0.70856  -0.70659  -0.65316  -0.65290  -0.65066
 Alpha  occ. eigenvalues --   -0.64991  -0.62618  -0.62177  -0.55569  -0.55473
 Alpha  occ. eigenvalues --   -0.53406  -0.53351  -0.53187  -0.53053  -0.49194
 Alpha  occ. eigenvalues --   -0.49163  -0.49112  -0.49106  -0.45208  -0.45119
 Alpha  occ. eigenvalues --   -0.37628  -0.37595  -0.36718  -0.36580
 Alpha virt. eigenvalues --    0.04677   0.04764   0.10933   0.11031   0.16175
 Alpha virt. eigenvalues --    0.16292   0.19303   0.21954   0.24752   0.27502
 Alpha virt. eigenvalues --    0.27787   0.29404   0.30812   0.31157   0.31716

 Mulliken charges:
               1
     1  C   -0.171235
     2  C   -0.220594
     3  C   -0.183904
     4  C    0.160337
     5  C   -0.171501
     6  C   -0.218104
     7  H    0.227964
     8  H    0.232145
     9  H    0.277732
    10  H    0.276178
    11  H    0.224675
    12  N    0.487462
    13  O   -0.459284
    14  O   -0.460615
    15  C   -0.170598
    16  C   -0.218281
    17  C   -0.170336
    18  C    0.159398
    19  C   -0.174892
    20  C   -0.218737
    21  H    0.227673
    22  H    0.224733
    23  H    0.276251
    24  H    0.271119
    25  H    0.227723
    26  N    0.487790
    27  O   -0.465454
    28  O   -0.457644
 Sum of Mulliken charges =  -0.00000

 Dipole moment (field-independent basis, Debye):
    X=             -0.1809    Y=              0.4738    Z=              6.5166  Tot=              6.5363
 Quadrupole moment (field-independent basis, Debye-Ang):
   XX=           -104.3299   YY=           -106.7366   ZZ=           -107.2283
   XY=            -26.7876   XZ=              3.1275   YZ=              0.5567

 Normal termination of Gaussian 16 at Thu May  6 21:24:05 2021.
