 Gaussian 16, Revision A.03,
 Gaussian 16:  EM64L-G16RevA.03 25-Dec-2016

 -------------
 #p 6-31g* mp2
 -------------

 ------------------------------------------------------
 Input file generated by CHIRIPA (05-May-2021 14:57:21)
 ------------------------------------------------------
 Symbolic Z-matrix:
 Charge =  0 Multiplicity = 1

                         Standard orientation:
 ---------------------------------------------------------------------
 Center     Atomic      Atomic             Coordinates (Angstroms)
 Number     Number       Type             X           Y           Z
 ---------------------------------------------------------------------
      1          6           0       -1.889075    0.849758    1.200402
      2          6           0       -2.603453    1.728782    0.379731
      3          6           0       -3.801189    1.326485   -0.218711
      4          6           0       -4.257442    0.032213    0.026202
      5          6           0       -3.568456   -0.866730    0.838907
      6          6           0       -2.373003   -0.442913    1.426972
      7          1           0       -0.959532    1.170631    1.661255
      8          1           0       -2.230023    2.733276    0.202000
      9          1           0       -4.374326    1.986569   -0.858416
     10          1           0       -3.965948   -1.861870    0.997389
     11          1           0       -1.820313   -1.127716    2.063858
     12          7           0       -5.524223   -0.405073   -0.601849
     13          8           0       -5.904874   -1.550554   -0.370301
     14          8           0       -6.112488    0.405945   -1.313770
     15          6           0        1.533223   -0.238524    0.013386
     16          6           0        2.167475    1.007942   -0.010424
     17          6           0        3.560611    1.094306   -0.089555
     18          6           0        4.291844   -0.091304   -0.143547
     19          6           0        3.689129   -1.348104   -0.121652
     20          6           0        2.294733   -1.410503   -0.042205
     21          1           0        0.450512   -0.296306    0.074980
     22          1           0        1.578618    1.919776    0.032619
     23          1           0        4.077397    2.046119   -0.109602
     24          1           0        4.302910   -2.239582   -0.165922
     25          1           0        1.804867   -2.379905   -0.023884
     26          7           0        5.767363   -0.012560   -0.227486
     27          8           0        6.388972   -1.071845   -0.273903
     28          8           0        6.274325    1.106953   -0.245271
 ---------------------------------------------------------------------

 SCF Done:  E(RHF) =  -868.336594587     A.U. after   16 cycles
 E2 =    -0.2601247819D+01 EUMP2 =    -0.87093784240655D+03

 The electronic state is 1-A.
 Alpha  occ. eigenvalues --  -20.61584 -20.61579 -20.61231 -20.61224 -15.86644
 Alpha  occ. eigenvalues --  -15.86290 -11.32251 -11.31765 -11.28834 -11.28811
 Alpha  occ. eigenvalues --  -11.28676 -11.28385 -11.28336 -11.28057 -11.27954
 Alpha  occ. eigenvalues --  -11.27920 -11.27467 -11.27360  -1.60654  -1.60304
 Alpha  occ. eigenvalues --   -1.40200  -1.39854  -1.20462  -1.19959  -1.09847
 Alpha  occ. eigenvalues --   -1.09332  -1.05878  -1.05385  -0.96638  -0.96135
 Alpha  occ. eigenvalues --   -0.87278  -0.86785  -0.83436  -0.82976  -0.78414
 Alpha  occ. eigenvalues --   -0.78009  -0.72858  -0.72505  -0.71980  -0.71775
 Alpha  occ. eigenvalues --   -0.71629  -0.70914  -0.66109  -0.65885  -0.65612
 Alpha  occ. eigenvalues --   -0.65402  -0.63196  -0.62733  -0.56519  -0.55902
 Alpha  occ. eigenvalues --   -0.54098  -0.53961  -0.53699  -0.53484  -0.49636
 Alpha  occ. eigenvalues --   -0.49597  -0.49274  -0.49252  -0.45551  -0.45234
 Alpha  occ. eigenvalues --   -0.38489  -0.37950  -0.37476  -0.36994
 Alpha virt. eigenvalues --    0.04049   0.04532   0.10056   0.10596   0.15380
 Alpha virt. eigenvalues --    0.15959   0.19229   0.21877   0.25039   0.26421
 Alpha virt. eigenvalues --    0.27687   0.29283   0.29733   0.30484   0.31898

 Mulliken charges:
               1
     1  C   -0.183926
     2  C   -0.218650
     3  C   -0.169365
     4  C    0.160054
     5  C   -0.169639
     6  C   -0.223386
     7  H    0.228368
     8  H    0.225183
     9  H    0.279494
    10  H    0.278923
    11  H    0.226165
    12  N    0.487872
    13  O   -0.457748
    14  O   -0.457182
    15  C   -0.180457
    16  C   -0.223137
    17  C   -0.169404
    18  C    0.158527
    19  C   -0.169525
    20  C   -0.220700
    21  H    0.233129
    22  H    0.216759
    23  H    0.276670
    24  H    0.277531
    25  H    0.224604
    26  N    0.488002
    27  O   -0.458691
    28  O   -0.459473
 Sum of Mulliken charges =  -0.00000

 Dipole moment (field-independent basis, Debye):
    X=             -0.9719    Y=              1.2082    Z=              2.4453  Tot=              2.8955
 Quadrupole moment (field-independent basis, Debye-Ang):
   XX=           -186.6844   YY=            -95.5362   ZZ=           -105.3345
   XY=             -8.1331   XZ=             -7.0877   YZ=             -2.1120

 Normal termination of Gaussian 16 at Wed May  5 22:32:42 2021.
