 Gaussian 16, Revision A.03,
 Gaussian 16:  EM64L-G16RevA.03 25-Dec-2016

 -------------
 #p 6-31g* mp2
 -------------

 ------------------------------------------------------
 Input file generated by CHIRIPA (05-May-2021 14:55:20)
 ------------------------------------------------------
 Symbolic Z-matrix:
 Charge =  0 Multiplicity = 1

                         Standard orientation:
 ---------------------------------------------------------------------
 Center     Atomic      Atomic             Coordinates (Angstroms)
 Number     Number       Type             X           Y           Z
 ---------------------------------------------------------------------
      1          6           0       -3.929308    1.049804   -0.797633
      2          6           0       -3.566715   -0.129935   -1.455860
      3          6           0       -2.574609   -0.961459   -0.927806
      4          6           0       -1.963031   -0.580947    0.265707
      5          6           0       -2.302258    0.588124    0.945035
      6          6           0       -3.297036    1.404443    0.398605
      7          1           0       -4.701038    1.689846   -1.214976
      8          1           0       -4.056047   -0.407866   -2.385029
      9          1           0       -2.274461   -1.880361   -1.416630
     10          1           0       -1.796566    0.838695    1.869647
     11          1           0       -3.576593    2.320059    0.911968
     12          7           0       -0.911317   -1.453196    0.834461
     13          8           0       -0.387630   -1.095605    1.887323
     14          8           0       -0.630586   -2.477940    0.216620
     15          6           0        2.576870   -0.177316   -0.095543
     16          6           0        3.617699   -1.128520   -0.687042
     17          6           0        3.288376   -2.599250   -0.429565
     18          1           0        2.501112   -0.353648    0.986175
     19          1           0        1.591373   -0.413186   -0.520461
     20          1           0        4.601173   -0.890022   -0.262174
     21          1           0        3.691127   -0.949771   -1.767446
     22          1           0        2.319767   -2.859682   -0.868396
     23          1           0        3.234984   -2.799593    0.645429
     24          1           0        4.045363   -3.261637   -0.860927
     25          6           0        2.892226    1.296523   -0.344699
     26          6           0        1.851397    2.247727    0.246801
     27          6           0        2.180720    3.718457   -0.010676
     28          1           0        3.877723    1.532393    0.080220
     29          1           0        2.967984    1.472855   -1.426416
     30          1           0        1.777969    2.068978    1.327205
     31          1           0        0.867923    2.009230   -0.178068
     32          1           0        2.234112    3.918800   -1.085671
     33          1           0        3.149329    3.978888    0.428156
     34          1           0        1.423732    4.380845    0.420686
 ---------------------------------------------------------------------

 SCF Done:  E(RHF) =  -669.536234072     A.U. after   15 cycles
 E2 =    -0.2093238783D+01 EUMP2 =    -0.67162947285433D+03

 The electronic state is 1-A.
 Alpha  occ. eigenvalues --  -20.60929 -20.60916 -15.85927 -11.31288 -11.27848
 Alpha  occ. eigenvalues --  -11.27844 -11.27582 -11.26855 -11.26845 -11.21203
 Alpha  occ. eigenvalues --  -11.20855 -11.20755 -11.20593 -11.20352 -11.19680
 Alpha  occ. eigenvalues --   -1.59966  -1.39524  -1.19452  -1.08850  -1.07674
 Alpha  occ. eigenvalues --   -1.04848  -1.02766  -0.95689  -0.95196  -0.86252
 Alpha  occ. eigenvalues --   -0.86201  -0.82525  -0.78881  -0.77583  -0.77427
 Alpha  occ. eigenvalues --   -0.72166  -0.71264  -0.70555  -0.65106  -0.64848
 Alpha  occ. eigenvalues --   -0.64314  -0.62194  -0.60172  -0.58641  -0.56789
 Alpha  occ. eigenvalues --   -0.55350  -0.54475  -0.53180  -0.52938  -0.51935
 Alpha  occ. eigenvalues --   -0.51588  -0.49139  -0.48931  -0.48922  -0.47154
 Alpha  occ. eigenvalues --   -0.45939  -0.45200  -0.44926  -0.44534  -0.43016
 Alpha  occ. eigenvalues --   -0.37424  -0.36442
 Alpha virt. eigenvalues --    0.04923   0.11175   0.16379   0.21308   0.23455
 Alpha virt. eigenvalues --    0.25100   0.27043   0.27147   0.27682   0.28537
 Alpha virt. eigenvalues --    0.28874   0.31022   0.31986   0.32205   0.32346

 Mulliken charges:
               1
     1  C   -0.170588
     2  C   -0.218547
     3  C   -0.171448
     4  C    0.156597
     5  C   -0.169556
     6  C   -0.218901
     7  H    0.226029
     8  H    0.223789
     9  H    0.275676
    10  H    0.276467
    11  H    0.224024
    12  N    0.489280
    13  O   -0.457290
    14  O   -0.459722
    15  C   -0.298729
    16  C   -0.299982
    17  C   -0.477114
    18  H    0.164988
    19  H    0.143317
    20  H    0.147803
    21  H    0.145768
    22  H    0.167411
    23  H    0.160982
    24  H    0.151976
    25  C   -0.297861
    26  C   -0.300406
    27  C   -0.474560
    28  H    0.148306
    29  H    0.145825
    30  H    0.155389
    31  H    0.146477
    32  H    0.153700
    33  H    0.155812
    34  H    0.155088
 Sum of Mulliken charges =  -0.00000

 Dipole moment (field-independent basis, Debye):
    X=             -3.8785    Y=              2.9025    Z=             -1.8365  Tot=              5.1807
 Quadrupole moment (field-independent basis, Debye-Ang):
   XX=            -81.0501   YY=            -98.3472   ZZ=            -92.4535
   XY=             -3.8845   XZ=              4.5299   YZ=              4.8853

 Normal termination of Gaussian 16 at Thu May  6 04:32:41 2021.
