 Gaussian 16, Revision A.03,
 Gaussian 16:  EM64L-G16RevA.03 25-Dec-2016

 -------------
 #p 6-31g* mp2
 -------------

 ------------------------------------------------------
 Input file generated by CHIRIPA (05-May-2021 14:53:17)
 ------------------------------------------------------
 Symbolic Z-matrix:
 Charge =  0 Multiplicity = 1

                         Standard orientation:
 ---------------------------------------------------------------------
 Center     Atomic      Atomic             Coordinates (Angstroms)
 Number     Number       Type             X           Y           Z
 ---------------------------------------------------------------------
      1          6           0        2.968982    1.228782    0.296076
      2          6           0        2.205458    1.872497   -0.861787
      3          6           0        1.611299    3.232595   -0.494497
      4          1           0        2.293007    1.115423    1.154652
      5          1           0        3.772217    1.905991    0.617939
      6          1           0        1.404774    1.193670   -1.182280
      7          1           0        2.883278    1.984161   -1.717770
      8          1           0        2.400639    3.929594   -0.194935
      9          1           0        0.913734    3.134611    0.343597
     10          1           0        1.069870    3.674800   -1.336619
     11          6           0        3.568832   -0.131432   -0.055670
     12          6           0        4.332356   -0.775147    1.102193
     13          6           0        4.926514   -2.135246    0.734903
     14          1           0        2.765597   -0.808642   -0.377533
     15          1           0        4.244807   -0.018074   -0.914246
     16          1           0        3.654535   -0.886811    1.958175
     17          1           0        5.133040   -0.096321    1.422686
     18          1           0        5.624080   -2.037262   -0.103191
     19          1           0        4.137175   -2.832244    0.435341
     20          1           0        5.467944   -2.577450    1.577025
     21          6           0       -4.203465    1.134001    1.002793
     22          6           0       -3.046542    1.644615    0.405027
     23          6           0       -2.125577    0.788128   -0.205547
     24          6           0       -2.394353   -0.579724   -0.199934
     25          6           0       -3.537937   -1.118893    0.387266
     26          6           0       -4.445043   -0.243694    0.992024
     27          1           0       -4.913510    1.806608    1.474842
     28          1           0       -2.856332    2.714109    0.411878
     29          1           0       -1.221908    1.156576   -0.675703
     30          1           0       -3.700178   -2.189678    0.364508
     31          1           0       -5.342685   -0.643059    1.455482
     32          7           0       -1.426704   -1.496352   -0.843243
     33          8           0       -1.686605   -2.697498   -0.824849
     34          8           0       -0.426683   -0.996304   -1.353680
 ---------------------------------------------------------------------

 SCF Done:  E(RHF) =  -669.536386513     A.U. after   15 cycles
 E2 =    -0.2092138408D+01 EUMP2 =    -0.67162852492174D+03

 The electronic state is 1-A.
 Alpha  occ. eigenvalues --  -20.60999 -20.60989 -15.86026 -11.31299 -11.27861
 Alpha  occ. eigenvalues --  -11.27842 -11.27589 -11.26860 -11.26842 -11.21153
 Alpha  occ. eigenvalues --  -11.21088 -11.20967 -11.20882 -11.20552 -11.20412
 Alpha  occ. eigenvalues --   -1.60055  -1.39613  -1.19465  -1.08879  -1.07855
 Alpha  occ. eigenvalues --   -1.04853  -1.03073  -0.95729  -0.95547  -0.86561
 Alpha  occ. eigenvalues --   -0.86257  -0.82565  -0.79121  -0.77705  -0.77536
 Alpha  occ. eigenvalues --   -0.72254  -0.71365  -0.70576  -0.65127  -0.64880
 Alpha  occ. eigenvalues --   -0.64460  -0.62218  -0.60455  -0.58932  -0.57136
 Alpha  occ. eigenvalues --   -0.55367  -0.54844  -0.53189  -0.52936  -0.52276
 Alpha  occ. eigenvalues --   -0.51964  -0.49521  -0.49002  -0.48988  -0.47425
 Alpha  occ. eigenvalues --   -0.46109  -0.45244  -0.45177  -0.44815  -0.43282
 Alpha  occ. eigenvalues --   -0.37444  -0.36453
 Alpha virt. eigenvalues --    0.04877   0.11190   0.16370   0.20103   0.23168
 Alpha virt. eigenvalues --    0.24306   0.26804   0.27290   0.27779   0.28383
 Alpha virt. eigenvalues --    0.29488   0.30600   0.31632   0.31934   0.32129

 Mulliken charges:
               1
     1  C   -0.295423
     2  C   -0.315594
     3  C   -0.478241
     4  H    0.145563
     5  H    0.145879
     6  H    0.175351
     7  H    0.152941
     8  H    0.157112
     9  H    0.146031
    10  H    0.156382
    11  C   -0.304716
    12  C   -0.298919
    13  C   -0.476147
    14  H    0.168520
    15  H    0.147797
    16  H    0.149908
    17  H    0.148237
    18  H    0.154188
    19  H    0.160258
    20  H    0.157218
    21  C   -0.170195
    22  C   -0.221191
    23  C   -0.173916
    24  C    0.156405
    25  C   -0.170227
    26  C   -0.218892
    27  H    0.226140
    28  H    0.225115
    29  H    0.284319
    30  H    0.275710
    31  H    0.223834
    32  N    0.492169
    33  O   -0.458639
    34  O   -0.466980
 Sum of Mulliken charges =  -0.00000

 Dipole moment (field-independent basis, Debye):
    X=             -3.5469    Y=              3.0309    Z=              2.1634  Tot=              5.1427
 Quadrupole moment (field-independent basis, Debye-Ang):
   XX=            -76.9622   YY=            -96.9139   ZZ=            -96.1834
   XY=             -2.6469   XZ=             -6.3563   YZ=             -3.2250

 Normal termination of Gaussian 16 at Thu May  6 10:40:13 2021.
