 Gaussian 16, Revision A.03,
 Gaussian 16:  EM64L-G16RevA.03 25-Dec-2016

 -------------
 #p 6-31g* mp2
 -------------

 ------------------------------------------------------
 Input file generated by CHIRIPA (05-May-2021 14:53:14)
 ------------------------------------------------------
 Symbolic Z-matrix:
 Charge =  0 Multiplicity = 1

                         Standard orientation:
 ---------------------------------------------------------------------
 Center     Atomic      Atomic             Coordinates (Angstroms)
 Number     Number       Type             X           Y           Z
 ---------------------------------------------------------------------
      1          6           0       -4.370564   -0.154874    0.249435
      2          6           0       -4.120061   -1.609140   -0.150996
      3          6           0       -5.224211   -2.552545    0.327161
      4          1           0       -4.460207   -0.092460    1.342602
      5          1           0       -5.335924    0.170465   -0.162427
      6          1           0       -3.154818   -1.931207    0.260336
      7          1           0       -4.030814   -1.668069   -1.243323
      8          1           0       -6.191108   -2.258719   -0.094002
      9          1           0       -5.310134   -2.523352    1.418200
     10          1           0       -5.025004   -3.586918    0.030095
     11          6           0       -3.275362    0.800397   -0.221433
     12          6           0       -3.525865    2.254662    0.178998
     13          6           0       -2.421715    3.198067   -0.299159
     14          1           0       -2.310002    0.475058    0.190429
     15          1           0       -3.185719    0.737983   -1.314600
     16          1           0       -3.615112    2.313592    1.271325
     17          1           0       -4.491108    2.576730   -0.232334
     18          1           0       -2.335792    3.168874   -1.390198
     19          1           0       -1.454818    2.904242    0.122004
     20          1           0       -2.620922    4.232440   -0.002093
     21          6           0        5.462942    0.185446    0.195463
     22          6           0        4.553857    1.243069    0.302782
     23          6           0        3.179602    1.012283    0.190049
     24          6           0        2.747295   -0.294463   -0.030892
     25          6           0        3.628156   -1.369147   -0.142378
     26          6           0        4.998010   -1.114995   -0.026383
     27          1           0        6.528787    0.373802    0.284304
     28          1           0        4.912070    2.254033    0.475062
     29          1           0        2.453863    1.812576    0.269107
     30          1           0        3.240941   -2.366122   -0.314204
     31          1           0        5.701716   -1.938296   -0.110151
     32          7           0        1.294762   -0.551154   -0.151965
     33          8           0        0.939338   -1.711521   -0.346540
     34          8           0        0.539196    0.412878   -0.049993
 ---------------------------------------------------------------------

 SCF Done:  E(RHF) =  -669.536399041     A.U. after   15 cycles
 E2 =    -0.2091507870D+01 EUMP2 =    -0.67162790691159D+03

 The electronic state is 1-A.
 Alpha  occ. eigenvalues --  -20.61064 -20.61049 -15.86080 -11.31359 -11.27916
 Alpha  occ. eigenvalues --  -11.27912 -11.27646 -11.26913 -11.26903 -11.20316
 Alpha  occ. eigenvalues --  -11.20246 -11.20032 -11.20019 -11.19848 -11.19604
 Alpha  occ. eigenvalues --   -1.60110  -1.39668  -1.19522  -1.08935  -1.07012
 Alpha  occ. eigenvalues --   -1.04912  -1.02248  -0.95783  -0.94701  -0.86314
 Alpha  occ. eigenvalues --   -0.85726  -0.82620  -0.78305  -0.77676  -0.76769
 Alpha  occ. eigenvalues --   -0.72297  -0.71419  -0.70630  -0.65179  -0.64914
 Alpha  occ. eigenvalues --   -0.63646  -0.62259  -0.59656  -0.58070  -0.56306
 Alpha  occ. eigenvalues --   -0.55418  -0.53994  -0.53246  -0.53003  -0.51465
 Alpha  occ. eigenvalues --   -0.51131  -0.49130  -0.49056  -0.48595  -0.46617
 Alpha  occ. eigenvalues --   -0.45324  -0.45090  -0.44364  -0.44101  -0.42458
 Alpha  occ. eigenvalues --   -0.37499  -0.36510
 Alpha virt. eigenvalues --    0.04852   0.11145   0.16360   0.21222   0.24222
 Alpha virt. eigenvalues --    0.25399   0.27133   0.27690   0.28233   0.29077
 Alpha virt. eigenvalues --    0.29304   0.30812   0.31944   0.32761   0.32984

 Mulliken charges:
               1
     1  C   -0.297457
     2  C   -0.300041
     3  C   -0.474947
     4  H    0.145148
     5  H    0.143057
     6  H    0.162136
     7  H    0.150607
     8  H    0.151408
     9  H    0.152336
    10  H    0.157701
    11  C   -0.308196
    12  C   -0.297839
    13  C   -0.476943
    14  H    0.179791
    15  H    0.145897
    16  H    0.147223
    17  H    0.145568
    18  H    0.152476
    19  H    0.165008
    20  H    0.151318
    21  C   -0.170450
    22  C   -0.218553
    23  C   -0.170615
    24  C    0.157365
    25  C   -0.170499
    26  C   -0.218606
    27  H    0.226251
    28  H    0.224168
    29  H    0.275849
    30  H    0.275983
    31  H    0.224036
    32  N    0.492120
    33  O   -0.458583
    34  O   -0.462713
 Sum of Mulliken charges =  -0.00000

 Dipole moment (field-independent basis, Debye):
    X=              5.6075    Y=              0.7687    Z=              0.4250  Tot=              5.6759
 Quadrupole moment (field-independent basis, Debye-Ang):
   XX=            -69.1590   YY=            -92.0360   ZZ=            -95.0328
   XY=             -0.3368   XZ=              1.6044   YZ=              0.7876

 Normal termination of Gaussian 16 at Wed May  5 23:28:43 2021.
