 Gaussian 16, Revision A.03,
 Gaussian 16:  EM64L-G16RevA.03 25-Dec-2016

 -------------
 #p 6-31g* mp2
 -------------

 ------------------------------------------------------
 Input file generated by CHIRIPA (05-May-2021 14:53:18)
 ------------------------------------------------------
 Symbolic Z-matrix:
 Charge =  0 Multiplicity = 1

                         Standard orientation:
 ---------------------------------------------------------------------
 Center     Atomic      Atomic             Coordinates (Angstroms)
 Number     Number       Type             X           Y           Z
 ---------------------------------------------------------------------
      1          6           0        5.313335   -0.075526    0.204657
      2          6           0        6.138701    1.208710    0.291220
      3          6           0        7.522484    0.982118    0.900806
      4          1           0        5.206728   -0.503841    1.210702
      5          1           0        5.861877   -0.816026   -0.393805
      6          1           0        5.588143    1.947043    0.888184
      7          1           0        6.243193    1.634119   -0.715122
      8          1           0        8.094141    0.265017    0.302830
      9          1           0        7.435369    0.579719    1.915245
     10          1           0        8.095455    1.913150    0.953187
     11          6           0        3.927441    0.134810   -0.402619
     12          6           0        3.102075   -1.149426   -0.489183
     13          6           0        1.718292   -0.922834   -1.098768
     14          1           0        3.378899    0.875310    0.195843
     15          1           0        4.034047    0.563125   -1.408664
     16          1           0        2.997583   -1.574835    0.517159
     17          1           0        3.652632   -1.887759   -1.086146
     18          1           0        1.805406   -0.520435   -2.113208
     19          1           0        1.146635   -0.205733   -0.500792
     20          1           0        1.145321   -1.853866   -1.151149
     21          6           0       -5.203229    1.932760    0.047255
     22          6           0       -4.194583    1.836730   -0.917074
     23          6           0       -3.306007    0.757410   -0.910049
     24          6           0       -3.455619   -0.212248    0.080236
     25          6           0       -4.450300   -0.144676    1.054575
     26          6           0       -5.327649    0.943494    1.028272
     27          1           0       -5.889136    2.774639    0.034310
     28          1           0       -4.095585    2.603529   -1.680137
     29          1           0       -2.516094    0.658269   -1.644643
     30          1           0       -4.523988   -0.924624    1.802685
     31          1           0       -6.110028    1.015473    1.778437
     32          7           0       -2.520866   -1.359561    0.097878
     33          8           0       -2.673780   -2.200692    0.980914
     34          8           0       -1.652992   -1.395968   -0.771666
 ---------------------------------------------------------------------

 SCF Done:  E(RHF) =  -669.535577245     A.U. after   15 cycles
 E2 =    -0.2091031056D+01 EUMP2 =    -0.67162660830142D+03

 The electronic state is 1-A.
 Alpha  occ. eigenvalues --  -20.60877 -20.60850 -15.85895 -11.31245 -11.27813
 Alpha  occ. eigenvalues --  -11.27805 -11.27555 -11.26826 -11.26815 -11.21174
 Alpha  occ. eigenvalues --  -11.20812 -11.20716 -11.20660 -11.20548 -11.19587
 Alpha  occ. eigenvalues --   -1.59931  -1.39486  -1.19417  -1.08818  -1.07745
 Alpha  occ. eigenvalues --   -1.04816  -1.02748  -0.95663  -0.95162  -0.86224
 Alpha  occ. eigenvalues --   -0.86173  -0.82487  -0.78843  -0.77578  -0.77491
 Alpha  occ. eigenvalues --   -0.72124  -0.71247  -0.70525  -0.65072  -0.64820
 Alpha  occ. eigenvalues --   -0.64389  -0.62162  -0.60159  -0.58578  -0.56766
 Alpha  occ. eigenvalues --   -0.55321  -0.54481  -0.53149  -0.52909  -0.51795
 Alpha  occ. eigenvalues --   -0.51611  -0.49169  -0.48883  -0.48849  -0.47135
 Alpha  occ. eigenvalues --   -0.45931  -0.45112  -0.45040  -0.44771  -0.42940
 Alpha  occ. eigenvalues --   -0.37398  -0.36419
 Alpha virt. eigenvalues --    0.04982   0.11233   0.16464   0.21350   0.23488
 Alpha virt. eigenvalues --    0.25128   0.27202   0.27303   0.27986   0.28179
 Alpha virt. eigenvalues --    0.28990   0.30897   0.32020   0.32280   0.32696

 Mulliken charges:
               1
     1  C   -0.297524
     2  C   -0.298903
     3  C   -0.475287
     4  H    0.149348
     5  H    0.148808
     6  H    0.150483
     7  H    0.150622
     8  H    0.154853
     9  H    0.154893
    10  H    0.158430
    11  C   -0.297079
    12  C   -0.301460
    13  C   -0.471956
    14  H    0.146706
    15  H    0.146742
    16  H    0.151978
    17  H    0.148592
    18  H    0.144769
    19  H    0.151221
    20  H    0.181150
    21  C   -0.170709
    22  C   -0.218570
    23  C   -0.171175
    24  C    0.157711
    25  C   -0.170769
    26  C   -0.218606
    27  H    0.225798
    28  H    0.223757
    29  H    0.276517
    30  H    0.275699
    31  H    0.223605
    32  N    0.490529
    33  O   -0.460201
    34  O   -0.459970
 Sum of Mulliken charges =  -0.00000

 Dipole moment (field-independent basis, Debye):
    X=             -3.5846    Y=              3.9316    Z=             -0.0678  Tot=              5.3208
 Quadrupole moment (field-independent basis, Debye-Ang):
   XX=            -73.5341   YY=            -96.2661   ZZ=            -91.2564
   XY=            -12.8688   XZ=             -2.9954   YZ=             -1.1777

 Normal termination of Gaussian 16 at Wed May  5 17:17:54 2021.
