 Gaussian 16, Revision A.03,
 Gaussian 16:  EM64L-G16RevA.03 25-Dec-2016

 -------------
 #p 6-31g* mp2
 -------------

 ------------------------------------------------------
 Input file generated by CHIRIPA (05-May-2021 14:51:13)
 ------------------------------------------------------
 Symbolic Z-matrix:
 Charge =  0 Multiplicity = 1

                         Standard orientation:
 ---------------------------------------------------------------------
 Center     Atomic      Atomic             Coordinates (Angstroms)
 Number     Number       Type             X           Y           Z
 ---------------------------------------------------------------------
      1          6           0       -2.831569    0.946755   -0.033736
      2          6           0       -3.389790    2.369898   -0.001484
      3          6           0       -2.294846    3.435741   -0.055048
      4          1           0       -2.143443    0.810366    0.811737
      5          1           0       -2.234741    0.815061   -0.946889
      6          1           0       -3.986528    2.498436    0.910655
      7          1           0       -4.076815    2.502855   -0.847022
      8          1           0       -1.704708    3.336053   -0.971782
      9          1           0       -1.613908    3.331609    0.795882
     10          1           0       -2.716084    4.445609   -0.030871
     11          6           0       -3.914017   -0.129923    0.019159
     12          6           0       -3.355797   -1.553066   -0.013094
     13          6           0       -4.450741   -2.618909    0.040471
     14          1           0       -4.510845    0.001771    0.932312
     15          1           0       -4.602144    0.006467   -0.826314
     16          1           0       -2.668772   -1.686023    0.832445
     17          1           0       -2.759058   -1.681604   -0.925233
     18          1           0       -5.131678   -2.514777   -0.810459
     19          1           0       -5.040878   -2.519221    0.957205
     20          1           0       -4.029503   -3.628777    0.016294
     21          6           0        2.699768   -0.490503    0.359042
     22          6           0        1.639700   -1.167385   -0.510482
     23          6           0        0.298738   -1.324498    0.207104
     24          1           0        2.840275   -1.076561    1.277595
     25          1           0        2.332083    0.496753    0.671338
     26          1           0        2.009847   -2.152498   -0.822186
     27          1           0        1.501838   -0.579751   -1.427159
     28          1           0       -0.096128   -0.347484    0.503963
     29          1           0        0.414767   -1.929168    1.112374
     30          1           0       -0.444408   -1.810625   -0.432642
     31          6           0        4.045819   -0.326329   -0.344464
     32          6           0        5.105887    0.350553    0.525060
     33          6           0        6.446849    0.507666   -0.192526
     34          1           0        4.413504   -1.313585   -0.656760
     35          1           0        3.905311    0.259728   -1.263017
     36          1           0        5.243749   -0.237081    1.441737
     37          1           0        4.735740    1.335666    0.836763
     38          1           0        6.330819    1.112335   -1.097797
     39          1           0        6.841715   -0.469348   -0.489385
     40          1           0        7.189994    0.993793    0.447220
 ---------------------------------------------------------------------

 SCF Done:  E(RHF) =  -470.731132589     A.U. after   11 cycles
 E2 =    -0.1584316209D+01 EUMP2 =    -0.47231544879814D+03

 The electronic state is 1-A.
 Alpha  occ. eigenvalues --  -11.21598 -11.21566 -11.21511 -11.21489 -11.21379
 Alpha  occ. eigenvalues --  -11.21348 -11.21320 -11.21286 -11.21101 -11.21044
 Alpha  occ. eigenvalues --  -11.21027 -11.20816  -1.08438  -1.08348  -1.03534
 Alpha  occ. eigenvalues --   -1.03437  -0.95979  -0.95900  -0.87010  -0.86921
 Alpha  occ. eigenvalues --   -0.79708  -0.79482  -0.78298  -0.78068  -0.65061
 Alpha  occ. eigenvalues --   -0.64993  -0.60927  -0.60852  -0.59553  -0.59107
 Alpha  occ. eigenvalues --   -0.57700  -0.57420  -0.55300  -0.55160  -0.52856
 Alpha  occ. eigenvalues --   -0.52570  -0.52404  -0.52225  -0.49968  -0.49821
 Alpha  occ. eigenvalues --   -0.48041  -0.47702  -0.46697  -0.46567  -0.45883
 Alpha  occ. eigenvalues --   -0.45727  -0.45647  -0.45361  -0.43793  -0.43546
 Alpha virt. eigenvalues --    0.22137   0.23131   0.24012   0.24209   0.25394
 Alpha virt. eigenvalues --    0.26568   0.26851   0.27781   0.27855   0.29824
 Alpha virt. eigenvalues --    0.30159   0.30518   0.31735   0.31938   0.32170

 Mulliken charges:
               1
     1  C   -0.301292
     2  C   -0.298929
     3  C   -0.475871
     4  H    0.152646
     5  H    0.150260
     6  H    0.151835
     7  H    0.151842
     8  H    0.154890
     9  H    0.154540
    10  H    0.160529
    11  C   -0.297831
    12  C   -0.303328
    13  C   -0.475259
    14  H    0.149147
    15  H    0.149123
    16  H    0.158412
    17  H    0.152135
    18  H    0.154640
    19  H    0.154895
    20  H    0.159906
    21  C   -0.298500
    22  C   -0.300252
    23  C   -0.482245
    24  H    0.149240
    25  H    0.149258
    26  H    0.150988
    27  H    0.150850
    28  H    0.160601
    29  H    0.152282
    30  H    0.166026
    31  C   -0.298103
    32  C   -0.299565
    33  C   -0.475649
    34  H    0.149351
    35  H    0.149458
    36  H    0.151779
    37  H    0.151861
    38  H    0.155120
    39  H    0.155096
    40  H    0.160114
 Sum of Mulliken charges =  -0.00000

 Dipole moment (field-independent basis, Debye):
    X=             -0.0555    Y=              0.0011    Z=              0.0101  Tot=              0.0565
 Quadrupole moment (field-independent basis, Debye-Ang):
   XX=            -86.4685   YY=            -84.8516   ZZ=            -83.7665
   XY=             -1.0248   XZ=              0.5404   YZ=             -0.2396

 Normal termination of Gaussian 16 at Wed May  5 21:35:38 2021.
