 Gaussian 16, Revision A.03,
 Gaussian 16:  EM64L-G16RevA.03 25-Dec-2016

 -------------
 #p 6-31g* mp2
 -------------

 ------------------------------------------------------
 Input file generated by CHIRIPA (05-May-2021 14:53:16)
 ------------------------------------------------------
 Symbolic Z-matrix:
 Charge =  0 Multiplicity = 1

                         Standard orientation:
 ---------------------------------------------------------------------
 Center     Atomic      Atomic             Coordinates (Angstroms)
 Number     Number       Type             X           Y           Z
 ---------------------------------------------------------------------
      1          6           0        3.466514   -0.083144    0.053406
      2          6           0        4.616091   -0.701203   -0.743124
      3          6           0        5.127648   -2.004379   -0.128440
      4          1           0        3.800519    0.101979    1.083510
      5          1           0        2.642831   -0.807614    0.117321
      6          1           0        5.436818    0.024733   -0.806699
      7          1           0        4.279370   -0.884699   -1.771503
      8          1           0        4.325780   -2.748180   -0.079771
      9          1           0        5.489805   -1.833581    0.890516
     10          1           0        5.949195   -2.429003   -0.713773
     11          6           0        2.944301    1.220158   -0.548612
     12          6           0        1.794723    1.838216    0.247918
     13          6           0        1.283167    3.141392   -0.366766
     14          1           0        3.767983    1.944628   -0.612527
     15          1           0        2.610295    1.035035   -1.578716
     16          1           0        2.131445    2.021712    1.276297
     17          1           0        0.973996    1.112281    0.311492
     18          1           0        0.921010    2.970595   -1.385722
     19          1           0        2.085034    3.885194   -0.415436
     20          1           0        0.461619    3.566017    0.218567
     21          6           0       -0.520880   -0.778387    1.716775
     22          6           0       -1.605223   -0.002437    2.139416
     23          6           0       -2.709456    0.189531    1.303735
     24          6           0       -2.695966   -0.411833    0.046169
     25          6           0       -1.630701   -1.190446   -0.403563
     26          6           0       -0.537052   -1.368874    0.448870
     27          1           0        0.332804   -0.922252    2.372460
     28          1           0       -1.595402    0.457350    3.123563
     29          1           0       -3.562233    0.785379    1.605652
     30          1           0       -1.669339   -1.636069   -1.390146
     31          1           0        0.303668   -1.971996    0.117993
     32          7           0       -3.859367   -0.215772   -0.847397
     33          8           0       -3.823127   -0.756310   -1.950639
     34          8           0       -4.785451    0.474725   -0.427612
 ---------------------------------------------------------------------

 SCF Done:  E(RHF) =  -669.534258316     A.U. after   15 cycles
 E2 =    -0.2093968150D+01 EUMP2 =    -0.67162822646611D+03

 The electronic state is 1-A.
 Alpha  occ. eigenvalues --  -20.60818 -20.60812 -15.85874 -11.31262 -11.27853
 Alpha  occ. eigenvalues --  -11.27849 -11.27561 -11.26836 -11.26826 -11.22270
 Alpha  occ. eigenvalues --  -11.22186 -11.21900 -11.21833 -11.21756 -11.21318
 Alpha  occ. eigenvalues --   -1.59893  -1.39446  -1.19456  -1.09046  -1.08823
 Alpha  occ. eigenvalues --   -1.04858  -1.04036  -0.96508  -0.95667  -0.87517
 Alpha  occ. eigenvalues --   -0.86254  -0.82494  -0.80127  -0.78866  -0.77536
 Alpha  occ. eigenvalues --   -0.72091  -0.71218  -0.70542  -0.65718  -0.65093
 Alpha  occ. eigenvalues --   -0.64826  -0.62201  -0.61452  -0.59890  -0.58122
 Alpha  occ. eigenvalues --   -0.55814  -0.55335  -0.53356  -0.53103  -0.52978
 Alpha  occ. eigenvalues --   -0.52869  -0.50441  -0.48854  -0.48844  -0.48427
 Alpha  occ. eigenvalues --   -0.47160  -0.46379  -0.46297  -0.44847  -0.44319
 Alpha  occ. eigenvalues --   -0.37288  -0.36452
 Alpha virt. eigenvalues --    0.04991   0.11050   0.16444   0.19883   0.22821
 Alpha virt. eigenvalues --    0.23689   0.25278   0.26227   0.27344   0.28001
 Alpha virt. eigenvalues --    0.29755   0.30366   0.31106   0.31570   0.31860

 Mulliken charges:
               1
     1  C   -0.299939
     2  C   -0.300024
     3  C   -0.475387
     4  H    0.148644
     5  H    0.139239
     6  H    0.155321
     7  H    0.153484
     8  H    0.150589
     9  H    0.155521
    10  H    0.163609
    11  C   -0.297275
    12  C   -0.311286
    13  C   -0.474865
    14  H    0.151418
    15  H    0.151067
    16  H    0.145585
    17  H    0.165641
    18  H    0.157651
    19  H    0.154924
    20  H    0.160305
    21  C   -0.171486
    22  C   -0.217068
    23  C   -0.170619
    24  C    0.158660
    25  C   -0.170739
    26  C   -0.221059
    27  H    0.228551
    28  H    0.224130
    29  H    0.276103
    30  H    0.275986
    31  H    0.225709
    32  N    0.488123
    33  O   -0.460336
    34  O   -0.460176
 Sum of Mulliken charges =  -0.00000

 Dipole moment (field-independent basis, Debye):
    X=              4.0767    Y=             -0.6672    Z=              3.1306  Tot=              5.1832
 Quadrupole moment (field-independent basis, Debye-Ang):
   XX=           -116.0177   YY=            -93.8805   ZZ=            -92.0507
   XY=             -0.4929   XZ=            -10.1411   YZ=              1.4783

 Normal termination of Gaussian 16 at Thu May  6 12:13:12 2021.
