 Gaussian 16, Revision A.03,
 Gaussian 16:  EM64L-G16RevA.03 25-Dec-2016

 -------------
 #p 6-31g* mp2
 -------------

 ------------------------------------------------------
 Input file generated by CHIRIPA (05-May-2021 14:55:20)
 ------------------------------------------------------
 Symbolic Z-matrix:
 Charge =  0 Multiplicity = 1

                         Standard orientation:
 ---------------------------------------------------------------------
 Center     Atomic      Atomic             Coordinates (Angstroms)
 Number     Number       Type             X           Y           Z
 ---------------------------------------------------------------------
      1          6           0        1.525540    1.796980   -0.016826
      2          6           0        1.240419    0.581842   -0.648226
      3          6           0        2.179583   -0.453776   -0.652168
      4          6           0        3.399274   -0.239042   -0.012221
      5          6           0        3.712910    0.960223    0.625499
      6          6           0        2.758701    1.981966    0.616904
      7          1           0        0.790131    2.596084   -0.018634
      8          1           0        0.283556    0.435365   -1.141180
      9          1           0        1.984937   -1.404561   -1.133352
     10          1           0        4.675469    1.076585    1.108571
     11          1           0        2.982864    2.924604    1.108056
     12          7           0        4.401489   -1.328060   -0.009758
     13          8           0        5.468685   -1.113844    0.561067
     14          8           0        4.100851   -2.375228   -0.578699
     15          6           0       -4.002360    0.798109    0.224689
     16          6           0       -2.923980    1.478421   -0.619265
     17          6           0       -2.660588    2.922080   -0.190005
     18          1           0       -4.932861    1.378116    0.156097
     19          1           0       -3.698704    0.818079    1.280524
     20          1           0       -3.228934    1.455944   -1.673359
     21          1           0       -1.995992    0.896621   -0.548810
     22          1           0       -2.332066    2.959820    0.853667
     23          1           0       -3.572014    3.522321   -0.277272
     24          1           0       -1.886327    3.389321   -0.806500
     25          6           0       -4.276929   -0.645638   -0.192363
     26          6           0       -5.355309   -1.325950    0.651590
     27          6           0       -5.618701   -2.769610    0.222329
     28          1           0       -4.580585   -0.665609   -1.248199
     29          1           0       -3.346428   -1.225646   -0.123771
     30          1           0       -6.283297   -0.744151    0.581136
     31          1           0       -5.050355   -1.303474    1.705684
     32          1           0       -4.707276   -3.369851    0.309597
     33          1           0       -5.947224   -2.807349   -0.821341
     34          1           0       -6.392962   -3.236851    0.838825
 ---------------------------------------------------------------------

 SCF Done:  E(RHF) =  -669.535548776     A.U. after   15 cycles
 E2 =    -0.2091483621D+01 EUMP2 =    -0.67162703239690D+03

 The electronic state is 1-A.
 Alpha  occ. eigenvalues --  -20.60739 -20.60734 -15.85792 -11.31151 -11.27724
 Alpha  occ. eigenvalues --  -11.27717 -11.27438 -11.26728 -11.26698 -11.22759
 Alpha  occ. eigenvalues --  -11.22293 -11.22219 -11.22118 -11.22038 -11.21466
 Alpha  occ. eigenvalues --   -1.59815  -1.39369  -1.19322  -1.09232  -1.08714
 Alpha  occ. eigenvalues --   -1.04727  -1.04343  -0.96779  -0.95550  -0.87798
 Alpha  occ. eigenvalues --   -0.86126  -0.82386  -0.80442  -0.79000  -0.77436
 Alpha  occ. eigenvalues --   -0.72011  -0.71138  -0.70426  -0.65891  -0.64971
 Alpha  occ. eigenvalues --   -0.64734  -0.62137  -0.61671  -0.60192  -0.58377
 Alpha  occ. eigenvalues --   -0.56056  -0.55216  -0.53495  -0.53202  -0.53052
 Alpha  occ. eigenvalues --   -0.52830  -0.50707  -0.48820  -0.48766  -0.48683
 Alpha  occ. eigenvalues --   -0.47451  -0.46541  -0.46429  -0.44776  -0.44582
 Alpha  occ. eigenvalues --   -0.37296  -0.36330
 Alpha virt. eigenvalues --    0.05099   0.11252   0.16584   0.19049   0.22593
 Alpha virt. eigenvalues --    0.23768   0.24877   0.26082   0.26376   0.28250
 Alpha virt. eigenvalues --    0.29333   0.29982   0.30860   0.31520   0.32288

 Mulliken charges:
               1
     1  C   -0.175452
     2  C   -0.224427
     3  C   -0.171535
     4  C    0.158587
     5  C   -0.170900
     6  C   -0.219073
     7  H    0.230563
     8  H    0.230044
     9  H    0.275673
    10  H    0.275435
    11  H    0.223474
    12  N    0.487988
    13  O   -0.460546
    14  O   -0.460538
    15  C   -0.298094
    16  C   -0.305722
    17  C   -0.479402
    18  H    0.152695
    19  H    0.151762
    20  H    0.155515
    21  H    0.146485
    22  H    0.156337
    23  H    0.162340
    24  H    0.154643
    25  C   -0.299035
    26  C   -0.300338
    27  C   -0.476330
    28  H    0.150511
    29  H    0.148774
    30  H    0.152943
    31  H    0.153270
    32  H    0.156353
    33  H    0.155741
    34  H    0.162263
 Sum of Mulliken charges =  -0.00000

 Dipole moment (field-independent basis, Debye):
    X=             -3.7778    Y=              3.8279    Z=              0.0306  Tot=              5.3782
 Quadrupole moment (field-independent basis, Debye-Ang):
   XX=           -115.8105   YY=            -96.2134   ZZ=            -93.6530
   XY=             15.4890   XZ=              2.2610   YZ=              1.3453

 Normal termination of Gaussian 16 at Thu May  6 02:57:41 2021.
