 Gaussian 16, Revision A.03,
 Gaussian 16:  EM64L-G16RevA.03 25-Dec-2016

 -------------
 #p 6-31g* mp2
 -------------

 ------------------------------------------------------
 Input file generated by CHIRIPA (05-May-2021 14:57:26)
 ------------------------------------------------------
 Symbolic Z-matrix:
 Charge =  0 Multiplicity = 1

                         Standard orientation:
 ---------------------------------------------------------------------
 Center     Atomic      Atomic             Coordinates (Angstroms)
 Number     Number       Type             X           Y           Z
 ---------------------------------------------------------------------
      1          6           0       -4.310354    0.813581    0.106047
      2          6           0       -4.119317   -0.347366    0.862504
      3          6           0       -2.988689   -1.145580    0.664814
      4          6           0       -2.065158   -0.751283   -0.302094
      5          6           0       -2.227305    0.399713   -1.071642
      6          6           0       -3.365405    1.182765   -0.856914
      7          1           0       -5.191556    1.427764    0.266235
      8          1           0       -4.851518   -0.636527    1.611044
      9          1           0       -2.815923   -2.049362    1.236433
     10          1           0       -1.479922    0.662166   -1.810530
     11          1           0       -3.511159    2.083846   -1.445857
     12          7           0       -0.864257   -1.588291   -0.520398
     13          8           0       -0.065391   -1.219136   -1.378404
     14          8           0       -0.744597   -2.597643    0.170634
     15          6           0        0.367082    2.227979    0.671125
     16          6           0        0.697305    1.278055    1.643296
     17          6           0        1.745910    0.378430    1.429633
     18          6           0        2.446379    0.457237    0.226960
     19          6           0        2.141391    1.392297   -0.760935
     20          6           0        1.088906    2.281973   -0.525777
     21          1           0       -0.449007    2.922965    0.845453
     22          1           0        0.138457    1.233809    2.573767
     23          1           0        2.022755   -0.367004    2.165229
     24          1           0        2.716705    1.412028   -1.678563
     25          1           0        0.834671    3.018645   -1.282563
     26          7           0        3.558543   -0.489890   -0.010614
     27          8           0        4.160269   -0.399882   -1.078538
     28          8           0        3.807473   -1.304321    0.875599
 ---------------------------------------------------------------------

 SCF Done:  E(RHF) =  -868.336358171     A.U. after   16 cycles
 E2 =    -0.2605275707D+01 EUMP2 =    -0.87094163387807D+03

 The electronic state is 1-A.
 Alpha  occ. eigenvalues --  -20.61060 -20.61036 -20.59870 -20.59860 -15.86086
 Alpha  occ. eigenvalues --  -15.84935 -11.31585 -11.30493 -11.28206 -11.28200
 Alpha  occ. eigenvalues --  -11.28003 -11.27276 -11.27232 -11.27199 -11.27175
 Alpha  occ. eigenvalues --  -11.27108 -11.26329 -11.26295  -1.60109  -1.58920
 Alpha  occ. eigenvalues --   -1.39664  -1.38478  -1.19810  -1.18775  -1.09173
 Alpha  occ. eigenvalues --   -1.08147  -1.05244  -1.04255  -0.95983  -0.94934
 Alpha  occ. eigenvalues --   -0.86625  -0.85643  -0.82822  -0.81787  -0.77842
 Alpha  occ. eigenvalues --   -0.76755  -0.72331  -0.71475  -0.71182  -0.70918
 Alpha  occ. eigenvalues --   -0.70174  -0.69953  -0.65462  -0.65248  -0.64461
 Alpha  occ. eigenvalues --   -0.64306  -0.62588  -0.61602  -0.55741  -0.54824
 Alpha  occ. eigenvalues --   -0.53648  -0.53346  -0.52456  -0.52375  -0.49094
 Alpha  occ. eigenvalues --   -0.49055  -0.47948  -0.47902  -0.45004  -0.43848
 Alpha  occ. eigenvalues --   -0.38041  -0.37239  -0.36128  -0.35820
 Alpha virt. eigenvalues --    0.04620   0.05884   0.10730   0.11766   0.16158
 Alpha virt. eigenvalues --    0.17204   0.20807   0.21820   0.26611   0.27484
 Alpha virt. eigenvalues --    0.28154   0.28683   0.30411   0.31182   0.32112

 Mulliken charges:
               1
     1  C   -0.171853
     2  C   -0.220172
     3  C   -0.173066
     4  C    0.160552
     5  C   -0.166462
     6  C   -0.224762
     7  H    0.225815
     8  H    0.224279
     9  H    0.276904
    10  H    0.275325
    11  H    0.221087
    12  N    0.488885
    13  O   -0.458935
    14  O   -0.458324
    15  C   -0.170220
    16  C   -0.225235
    17  C   -0.171740
    18  C    0.172991
    19  C   -0.157561
    20  C   -0.226571
    21  H    0.219652
    22  H    0.220093
    23  H    0.277799
    24  H    0.275660
    25  H    0.216314
    26  N    0.490436
    27  O   -0.461148
    28  O   -0.459744
 Sum of Mulliken charges =  -0.00000

 Dipole moment (field-independent basis, Debye):
    X=             -7.9316    Y=              5.9548    Z=              1.5182  Tot=             10.0337
 Quadrupole moment (field-independent basis, Debye-Ang):
   XX=           -107.1322   YY=           -104.9087   ZZ=            -99.0425
   XY=              4.8743   XZ=             -1.4704   YZ=             -5.1604

 Normal termination of Gaussian 16 at Thu May  6 11:30:43 2021.
