 Gaussian 16, Revision A.03,
 Gaussian 16:  EM64L-G16RevA.03 25-Dec-2016

 -------------
 #p 6-31g* mp2
 -------------

 ------------------------------------------------------
 Input file generated by CHIRIPA (05-May-2021 14:53:17)
 ------------------------------------------------------
 Symbolic Z-matrix:
 Charge =  0 Multiplicity = 1

                         Standard orientation:
 ---------------------------------------------------------------------
 Center     Atomic      Atomic             Coordinates (Angstroms)
 Number     Number       Type             X           Y           Z
 ---------------------------------------------------------------------
      1          6           0        2.639900    1.038531   -0.502114
      2          6           0        2.943204    2.247640    0.383350
      3          6           0        2.660772    3.577888   -0.315554
      4          1           0        3.238128    1.105794   -1.421105
      5          1           0        1.586222    1.074665   -0.811713
      6          1           0        3.995641    2.208496    0.692317
      7          1           0        2.344327    2.177392    1.300425
      8          1           0        1.608117    3.642839   -0.609322
      9          1           0        3.268813    3.674119   -1.220886
     10          1           0        2.884459    4.428826    0.335391
     11          6           0        2.917246   -0.298608    0.182624
     12          6           0        2.613942   -1.507717   -0.702840
     13          6           0        2.896375   -2.837966   -0.003936
     14          1           0        3.970925   -0.334742    0.492223
     15          1           0        2.319018   -0.365871    1.101615
     16          1           0        3.212819   -1.437469   -1.619915
     17          1           0        1.561506   -1.468573   -1.011807
     18          1           0        2.288334   -2.934196    0.901396
     19          1           0        3.949030   -2.902916    0.289832
     20          1           0        2.672688   -3.688903   -0.654881
     21          6           0       -0.729646   -2.335518    0.442616
     22          6           0       -0.722084   -1.318110    1.402483
     23          6           0       -1.516548   -0.179728    1.236771
     24          6           0       -2.310081   -0.091186    0.094076
     25          6           0       -2.339386   -1.087905   -0.880081
     26          6           0       -1.536849   -2.217377   -0.693600
     27          1           0       -0.109351   -3.216380    0.579412
     28          1           0       -0.096189   -1.407163    2.285868
     29          1           0       -1.529904    0.622872    1.964146
     30          1           0       -2.973740   -0.970709   -1.750299
     31          1           0       -1.544735   -3.005941   -1.440694
     32          7           0       -3.155419    1.109253   -0.092350
     33          8           0       -3.845717    1.163261   -1.107834
     34          8           0       -3.111689    1.973418    0.780545
 ---------------------------------------------------------------------

 SCF Done:  E(RHF) =  -669.534293297     A.U. after   15 cycles
 E2 =    -0.2094860001D+01 EUMP2 =    -0.67162915329833D+03

 The electronic state is 1-A.
 Alpha  occ. eigenvalues --  -20.60847 -20.60842 -15.85904 -11.31292 -11.27896
 Alpha  occ. eigenvalues --  -11.27880 -11.27565 -11.26874 -11.26857 -11.22107
 Alpha  occ. eigenvalues --  -11.22031 -11.21841 -11.21778 -11.21614 -11.21071
 Alpha  occ. eigenvalues --   -1.59924  -1.39476  -1.19486  -1.08945  -1.08741
 Alpha  occ. eigenvalues --   -1.04888  -1.03947  -0.96433  -0.95684  -0.87433
 Alpha  occ. eigenvalues --   -0.86282  -0.82525  -0.80016  -0.78593  -0.77567
 Alpha  occ. eigenvalues --   -0.72120  -0.71250  -0.70619  -0.65523  -0.65127
 Alpha  occ. eigenvalues --   -0.64843  -0.62232  -0.61376  -0.59820  -0.58004
 Alpha  occ. eigenvalues --   -0.56000  -0.55085  -0.53217  -0.53097  -0.52977
 Alpha  occ. eigenvalues --   -0.52827  -0.50335  -0.48879  -0.48873  -0.48319
 Alpha  occ. eigenvalues --   -0.47049  -0.46146  -0.46024  -0.44877  -0.44175
 Alpha  occ. eigenvalues --   -0.37356  -0.36481
 Alpha virt. eigenvalues --    0.04955   0.11019   0.16369   0.19798   0.23001
 Alpha virt. eigenvalues --    0.24167   0.25262   0.26514   0.26776   0.28476
 Alpha virt. eigenvalues --    0.29341   0.30490   0.30929   0.31183   0.31894

 Mulliken charges:
               1
     1  C   -0.299651
     2  C   -0.299261
     3  C   -0.476574
     4  H    0.150481
     5  H    0.152881
     6  H    0.151329
     7  H    0.149552
     8  H    0.159742
     9  H    0.155024
    10  H    0.161403
    11  C   -0.296655
    12  C   -0.305859
    13  C   -0.477956
    14  H    0.149852
    15  H    0.143578
    16  H    0.154356
    17  H    0.159061
    18  H    0.142798
    19  H    0.161038
    20  H    0.157850
    21  C   -0.171091
    22  C   -0.217539
    23  C   -0.171671
    24  C    0.157602
    25  C   -0.170318
    26  C   -0.220248
    27  H    0.231880
    28  H    0.223875
    29  H    0.276111
    30  H    0.276223
    31  H    0.224491
    32  N    0.488078
    33  O   -0.460070
    34  O   -0.460311
 Sum of Mulliken charges =  -0.00000

 Dipole moment (field-independent basis, Debye):
    X=              2.9279    Y=             -4.1551    Z=              0.5813  Tot=              5.1162
 Quadrupole moment (field-independent basis, Debye-Ang):
   XX=           -107.8293   YY=            -94.8987   ZZ=            -91.1486
   XY=             10.6875   XZ=             -0.1104   YZ=              1.8033

 Normal termination of Gaussian 16 at Thu May  6 07:33:44 2021.
