 Gaussian 16, Revision A.03,
 Gaussian 16:  EM64L-G16RevA.03 25-Dec-2016

 -------------
 #p 6-31g* mp2
 -------------

 ------------------------------------------------------
 Input file generated by CHIRIPA (05-May-2021 14:53:17)
 ------------------------------------------------------
 Symbolic Z-matrix:
 Charge =  0 Multiplicity = 1

                         Standard orientation:
 ---------------------------------------------------------------------
 Center     Atomic      Atomic             Coordinates (Angstroms)
 Number     Number       Type             X           Y           Z
 ---------------------------------------------------------------------
      1          6           0       -4.060268   -0.572811   -0.301703
      2          6           0       -4.910705   -1.649701    0.372871
      3          6           0       -5.025662   -2.923307   -0.465285
      4          1           0       -4.495474   -0.330947   -1.281010
      5          1           0       -3.057012   -0.976413   -0.496584
      6          1           0       -5.911635   -1.243736    0.567675
      7          1           0       -4.473532   -1.888892    1.350768
      8          1           0       -4.036166   -3.354459   -0.648606
      9          1           0       -5.482440   -2.705638   -1.436149
     10          1           0       -5.637803   -3.679717    0.035701
     11          6           0       -3.935991    0.706448    0.523996
     12          6           0       -3.085554    1.783338   -0.150578
     13          6           0       -2.970597    3.056944    0.687578
     14          1           0       -4.939247    1.110050    0.718877
     15          1           0       -3.500785    0.464585    1.503303
     16          1           0       -3.522727    2.022529   -1.128476
     17          1           0       -2.084624    1.377373   -0.345382
     18          1           0       -2.513820    2.839275    1.658441
     19          1           0       -3.960093    3.488097    0.870899
     20          1           0       -2.358456    3.813355    0.186592
     21          6           0        1.077701    1.321299   -0.629020
     22          6           0        2.337121    1.928359   -0.585891
     23          6           0        3.477545    1.177114   -0.286537
     24          6           0        3.321323   -0.184987   -0.034417
     25          6           0        2.080184   -0.818715   -0.069820
     26          6           0        0.953471   -0.047887   -0.371302
     27          1           0        0.197118    1.912490   -0.862392
     28          1           0        2.436601    2.991497   -0.785609
     29          1           0        4.464592    1.621582   -0.246472
     30          1           0        2.012640   -1.880502    0.133801
     31          1           0       -0.023348   -0.522010   -0.404097
     32          7           0        4.521380   -0.990662    0.283622
     33          8           0        4.357050   -2.188987    0.501914
     34          8           0        5.603593   -0.408571    0.308588
 ---------------------------------------------------------------------

 SCF Done:  E(RHF) =  -669.535322807     A.U. after   15 cycles
 E2 =    -0.2091769774D+01 EUMP2 =    -0.67162709258070D+03

 The electronic state is 1-A.
 Alpha  occ. eigenvalues --  -20.60742 -20.60737 -15.85796 -11.31156 -11.27733
 Alpha  occ. eigenvalues --  -11.27725 -11.27434 -11.26739 -11.26727 -11.22844
 Alpha  occ. eigenvalues --  -11.22380 -11.22333 -11.22285 -11.22135 -11.21670
 Alpha  occ. eigenvalues --   -1.59818  -1.39371  -1.19329  -1.09394  -1.08722
 Alpha  occ. eigenvalues --   -1.04735  -1.04452  -0.96872  -0.95560  -0.87885
 Alpha  occ. eigenvalues --   -0.86134  -0.82396  -0.80542  -0.79196  -0.77442
 Alpha  occ. eigenvalues --   -0.72014  -0.71141  -0.70459  -0.66053  -0.64980
 Alpha  occ. eigenvalues --   -0.64728  -0.62099  -0.61829  -0.60270  -0.58497
 Alpha  occ. eigenvalues --   -0.56162  -0.55203  -0.53565  -0.53289  -0.53061
 Alpha  occ. eigenvalues --   -0.52828  -0.50807  -0.48837  -0.48772  -0.48766
 Alpha  occ. eigenvalues --   -0.47573  -0.46726  -0.46637  -0.44778  -0.44708
 Alpha  occ. eigenvalues --   -0.37301  -0.36341
 Alpha virt. eigenvalues --    0.05092   0.11297   0.16571   0.18453   0.22209
 Alpha virt. eigenvalues --    0.23249   0.24436   0.25897   0.26267   0.28447
 Alpha virt. eigenvalues --    0.29135   0.30446   0.30778   0.30992   0.32028

 Mulliken charges:
               1
     1  C   -0.299139
     2  C   -0.300605
     3  C   -0.476078
     4  H    0.152320
     5  H    0.142757
     6  H    0.154493
     7  H    0.153417
     8  H    0.154515
     9  H    0.156387
    10  H    0.163339
    11  C   -0.298909
    12  C   -0.304957
    13  C   -0.476960
    14  H    0.154118
    15  H    0.152067
    16  H    0.155706
    17  H    0.141930
    18  H    0.158982
    19  H    0.160844
    20  H    0.157113
    21  C   -0.175035
    22  C   -0.218755
    23  C   -0.170802
    24  C    0.158336
    25  C   -0.171276
    26  C   -0.222931
    27  H    0.231833
    28  H    0.223516
    29  H    0.275475
    30  H    0.275524
    31  H    0.225761
    32  N    0.488072
    33  O   -0.460576
    34  O   -0.460480
 Sum of Mulliken charges =  -0.00000

 Dipole moment (field-independent basis, Debye):
    X=             -4.5009    Y=              2.8559    Z=             -1.0593  Tot=              5.4348
 Quadrupole moment (field-independent basis, Debye-Ang):
   XX=           -119.7281   YY=            -93.2268   ZZ=            -95.4946
   XY=             12.4643   XZ=             -3.7886   YZ=             -0.9024

 Normal termination of Gaussian 16 at Wed May  5 22:00:45 2021.
