 Gaussian 16, Revision A.03,
 Gaussian 16:  EM64L-G16RevA.03 25-Dec-2016

 -------------
 #p 6-31g* mp2
 -------------

 ------------------------------------------------------
 Input file generated by CHIRIPA (05-May-2021 14:53:17)
 ------------------------------------------------------
 Symbolic Z-matrix:
 Charge =  0 Multiplicity = 1

                         Standard orientation:
 ---------------------------------------------------------------------
 Center     Atomic      Atomic             Coordinates (Angstroms)
 Number     Number       Type             X           Y           Z
 ---------------------------------------------------------------------
      1          6           0        4.275814   -0.393899   -0.574521
      2          6           0        5.468175   -0.766660    0.307130
      3          6           0        6.240885   -1.974655   -0.223401
      4          1           0        3.601051   -1.257406   -0.651967
      5          1           0        4.632744   -0.183859   -1.592302
      6          1           0        5.109271   -0.974590    1.323284
      7          1           0        6.140081    0.097895    0.382643
      8          1           0        6.626483   -1.774281   -1.228272
      9          1           0        5.589816   -2.852860   -0.282285
     10          1           0        7.088987   -2.223745    0.421995
     11          6           0        3.493371    0.811871   -0.057192
     12          6           0        2.301009    1.184632   -0.938843
     13          6           0        1.528299    2.392626   -0.408312
     14          1           0        3.136440    0.601830    0.960589
     15          1           0        4.168133    1.675377    0.020254
     16          1           0        1.629103    0.320076   -1.014356
     17          1           0        2.659913    1.392561   -1.954997
     18          1           0        2.179368    3.270831   -0.349428
     19          1           0        1.142701    2.192252    0.596558
     20          1           0        0.680197    2.641717   -1.053709
     21          6           0       -1.351905    0.698755    1.917264
     22          6           0       -1.759108    1.508888    0.852186
     23          6           0       -2.691004    1.041650   -0.079376
     24          6           0       -3.197538   -0.246607    0.085265
     25          6           0       -2.811603   -1.077730    1.135780
     26          6           0       -1.878524   -0.589696    2.055418
     27          1           0       -0.627526    1.069794    2.636292
     28          1           0       -1.351808    2.509936    0.742397
     29          1           0       -3.023694    1.647681   -0.913319
     30          1           0       -3.235309   -2.071198    1.218915
     31          1           0       -1.564113   -1.221073    2.881586
     32          7           0       -4.184721   -0.752259   -0.894626
     33          8           0       -4.616042   -1.890953   -0.727367
     34          8           0       -4.508460   -0.000319   -1.811369
 ---------------------------------------------------------------------

 SCF Done:  E(RHF) =  -669.534682827     A.U. after   15 cycles
 E2 =    -0.2092187723D+01 EUMP2 =    -0.67162687055018D+03

 The electronic state is 1-A.
 Alpha  occ. eigenvalues --  -20.60768 -20.60763 -15.85820 -11.31194 -11.27744
 Alpha  occ. eigenvalues --  -11.27725 -11.27489 -11.26788 -11.26717 -11.22173
 Alpha  occ. eigenvalues --  -11.21992 -11.21941 -11.21910 -11.21792 -11.21381
 Alpha  occ. eigenvalues --   -1.59843  -1.39396  -1.19359  -1.08933  -1.08754
 Alpha  occ. eigenvalues --   -1.04763  -1.04046  -0.96530  -0.95591  -0.87569
 Alpha  occ. eigenvalues --   -0.86147  -0.82419  -0.80122  -0.78726  -0.77463
 Alpha  occ. eigenvalues --   -0.72039  -0.71166  -0.70476  -0.65581  -0.65010
 Alpha  occ. eigenvalues --   -0.64773  -0.62155  -0.61406  -0.59893  -0.58118
 Alpha  occ. eigenvalues --   -0.55845  -0.55267  -0.53352  -0.53045  -0.52949
 Alpha  occ. eigenvalues --   -0.52740  -0.50439  -0.48796  -0.48793  -0.48434
 Alpha  occ. eigenvalues --   -0.47128  -0.46274  -0.46184  -0.44800  -0.44303
 Alpha  occ. eigenvalues --   -0.37320  -0.36329
 Alpha virt. eigenvalues --    0.05034   0.11242   0.16475   0.20555   0.22545
 Alpha virt. eigenvalues --    0.24026   0.25777   0.26285   0.26693   0.27749
 Alpha virt. eigenvalues --    0.28764   0.30010   0.31224   0.31510   0.32090

 Mulliken charges:
               1
     1  C   -0.298922
     2  C   -0.299716
     3  C   -0.475985
     4  H    0.150943
     5  H    0.151440
     6  H    0.150411
     7  H    0.152332
     8  H    0.156369
     9  H    0.155824
    10  H    0.160912
    11  C   -0.298049
    12  C   -0.300329
    13  C   -0.475268
    14  H    0.145363
    15  H    0.150327
    16  H    0.156465
    17  H    0.155270
    18  H    0.156713
    19  H    0.146032
    20  H    0.158328
    21  C   -0.173286
    22  C   -0.213653
    23  C   -0.174059
    24  C    0.158845
    25  C   -0.171647
    26  C   -0.218648
    27  H    0.225036
    28  H    0.227634
    29  H    0.275322
    30  H    0.275452
    31  H    0.223260
    32  N    0.488050
    33  O   -0.460440
    34  O   -0.460323
 Sum of Mulliken charges =  -0.00000

 Dipole moment (field-independent basis, Debye):
    X=              3.5776    Y=              1.7479    Z=              3.3788  Tot=              5.2222
 Quadrupole moment (field-independent basis, Debye-Ang):
   XX=           -117.6192   YY=            -92.4928   ZZ=            -93.2465
   XY=             -5.5330   XZ=            -11.3043   YZ=             -3.8156

 Normal termination of Gaussian 16 at Thu May  6 13:58:00 2021.
