 Gaussian 16, Revision A.03,
 Gaussian 16:  EM64L-G16RevA.03 25-Dec-2016

 -------------
 #p 6-31g* mp2
 -------------

 ------------------------------------------------------
 Input file generated by CHIRIPA (05-May-2021 14:51:11)
 ------------------------------------------------------
 Symbolic Z-matrix:
 Charge =  0 Multiplicity = 1

                         Standard orientation:
 ---------------------------------------------------------------------
 Center     Atomic      Atomic             Coordinates (Angstroms)
 Number     Number       Type             X           Y           Z
 ---------------------------------------------------------------------
      1          6           0        2.289891   -0.240207   -0.531365
      2          6           0        3.450393   -1.009655   -1.163164
      3          6           0        2.985381   -2.218311   -1.976003
      4          1           0        1.716312   -0.919325    0.114197
      5          1           0        1.604419    0.091293   -1.323597
      6          1           0        4.134193   -1.338414   -0.370099
      7          1           0        4.021389   -0.328578   -1.807148
      8          1           0        2.320396   -1.904350   -2.787067
      9          1           0        2.433841   -2.919923   -1.341854
     10          1           0        3.831031   -2.753814   -2.418690
     11          6           0        2.738796    0.970860    0.284432
     12          6           0        1.578293    1.740308    0.916231
     13          6           0        2.043306    2.948964    1.729070
     14          1           0        3.424268    0.639360    1.076664
     15          1           0        3.312375    1.649978   -0.361130
     16          1           0        1.007298    1.059231    1.560215
     17          1           0        0.894494    2.069067    0.123166
     18          1           0        2.594846    3.650576    1.094921
     19          1           0        2.708291    2.635003    2.540134
     20          1           0        1.197655    3.484467    2.171757
     21          6           0       -2.440655    0.275142   -0.286171
     22          6           0       -3.613558    0.526834   -1.234293
     23          6           0       -3.451581    1.811832   -2.046906
     24          1           0       -2.337904    1.130937    0.395007
     25          1           0       -1.510681    0.226469   -0.869413
     26          1           0       -4.541213    0.573640   -0.649588
     27          1           0       -3.713647   -0.329745   -1.913167
     28          1           0       -2.541925    1.771159   -2.654749
     29          1           0       -3.374192    2.679677   -1.383991
     30          1           0       -4.301152    1.972227   -2.717996
     31          6           0       -2.588032   -1.005795    0.533103
     32          6           0       -1.415129   -1.257487    1.481226
     33          6           0       -1.577106   -2.542485    2.293839
     34          1           0       -3.518006   -0.957122    1.116347
     35          1           0       -2.690783   -1.861589   -0.148075
     36          1           0       -1.315038   -0.400908    2.160100
     37          1           0       -0.487474   -1.304293    0.896522
     38          1           0       -1.654495   -3.410330    1.630924
     39          1           0       -2.486762   -2.501812    2.901682
     40          1           0       -0.727535   -2.702880    2.964929
 ---------------------------------------------------------------------

 SCF Done:  E(RHF) =  -470.733015961     A.U. after   11 cycles
 E2 =    -0.1584257920D+01 EUMP2 =    -0.47231727388138D+03

 The electronic state is 1-A.
 Alpha  occ. eigenvalues --  -11.21630 -11.21586 -11.21564 -11.21513 -11.21417
 Alpha  occ. eigenvalues --  -11.21378 -11.21347 -11.21314 -11.21113 -11.21083
 Alpha  occ. eigenvalues --  -11.21075 -11.21036  -1.08462  -1.08384  -1.03530
 Alpha  occ. eigenvalues --   -1.03518  -0.95985  -0.95971  -0.87000  -0.86988
 Alpha  occ. eigenvalues --   -0.79615  -0.79580  -0.78471  -0.77996  -0.65111
 Alpha  occ. eigenvalues --   -0.65009  -0.60976  -0.60875  -0.59373  -0.59322
 Alpha  occ. eigenvalues --   -0.57615  -0.57563  -0.55315  -0.55222  -0.52707
 Alpha  occ. eigenvalues --   -0.52640  -0.52421  -0.52392  -0.49992  -0.49859
 Alpha  occ. eigenvalues --   -0.48004  -0.47924  -0.46809  -0.46524  -0.46262
 Alpha  occ. eigenvalues --   -0.45688  -0.45642  -0.45076  -0.43789  -0.43755
 Alpha virt. eigenvalues --    0.21140   0.23262   0.23607   0.23835   0.24854
 Alpha virt. eigenvalues --    0.26139   0.26493   0.28049   0.28141   0.30138
 Alpha virt. eigenvalues --    0.30593   0.31508   0.31674   0.31902   0.32005

 Mulliken charges:
               1
     1  C   -0.305930
     2  C   -0.298942
     3  C   -0.475804
     4  H    0.156180
     5  H    0.149459
     6  H    0.152093
     7  H    0.152149
     8  H    0.154856
     9  H    0.154803
    10  H    0.160584
    11  C   -0.297890
    12  C   -0.305014
    13  C   -0.475675
    14  H    0.149194
    15  H    0.149480
    16  H    0.157674
    17  H    0.153410
    18  H    0.154935
    19  H    0.154824
    20  H    0.159767
    21  C   -0.300701
    22  C   -0.299715
    23  C   -0.475591
    24  H    0.150281
    25  H    0.152184
    26  H    0.151865
    27  H    0.151861
    28  H    0.154603
    29  H    0.155151
    30  H    0.160282
    31  C   -0.297595
    32  C   -0.310000
    33  C   -0.475244
    34  H    0.149250
    35  H    0.149468
    36  H    0.152773
    37  H    0.161170
    38  H    0.155080
    39  H    0.155308
    40  H    0.159417
 Sum of Mulliken charges =  -0.00000

 Dipole moment (field-independent basis, Debye):
    X=              0.0042    Y=             -0.0072    Z=             -0.0001  Tot=              0.0084
 Quadrupole moment (field-independent basis, Debye-Ang):
   XX=            -84.6415   YY=            -85.8686   ZZ=            -84.4168
   XY=             -0.4815   XZ=             -0.4376   YZ=             -0.0660

 Normal termination of Gaussian 16 at Wed May  5 19:52:21 2021.
