 Gaussian 16, Revision A.03,
 Gaussian 16:  EM64L-G16RevA.03 25-Dec-2016

 -------------
 #p 6-31g* mp2
 -------------

 ------------------------------------------------------
 Input file generated by CHIRIPA (05-May-2021 14:55:22)
 ------------------------------------------------------
 Symbolic Z-matrix:
 Charge =  0 Multiplicity = 1

                         Standard orientation:
 ---------------------------------------------------------------------
 Center     Atomic      Atomic             Coordinates (Angstroms)
 Number     Number       Type             X           Y           Z
 ---------------------------------------------------------------------
      1          6           0        1.340023    2.538135    0.193828
      2          6           0        2.692988    2.533322    0.548769
      3          6           0        3.468953    1.383685    0.373375
      4          6           0        2.856846    0.251459   -0.162048
      5          6           0        1.511271    0.224968   -0.525385
      6          6           0        0.754515    1.385974   -0.341173
      7          1           0        0.744696    3.435616    0.333503
      8          1           0        3.150361    3.426653    0.964479
      9          1           0        4.518506    1.352354    0.639599
     10          1           0        1.083357   -0.680849   -0.937457
     11          1           0       -0.295992    1.386818   -0.617722
     12          7           0        3.668158   -0.971628   -0.352397
     13          8           0        3.105236   -1.956204   -0.826071
     14          8           0        4.851623   -0.922548   -0.024315
     15          6           0       -4.103677   -0.433287   -0.256919
     16          6           0       -4.851425    0.828016    0.176640
     17          6           0       -6.085541    1.107993   -0.681476
     18          1           0       -3.804898   -0.331272   -1.309187
     19          1           0       -4.787820   -1.291749   -0.208065
     20          1           0       -4.165691    1.683614    0.128308
     21          1           0       -5.148291    0.723065    1.228055
     22          1           0       -6.791431    0.273042   -0.625116
     23          1           0       -5.803247    1.239048   -1.731112
     24          1           0       -6.604953    2.014056   -0.354180
     25          6           0       -2.867542   -0.726490    0.591450
     26          6           0       -2.119795   -1.987793    0.157890
     27          6           0       -0.885678   -2.267771    1.016006
     28          1           0       -2.183399    0.131971    0.542596
     29          1           0       -3.166321   -0.828505    1.643718
     30          1           0       -1.822929   -1.882844   -0.893525
     31          1           0       -2.805528   -2.843392    0.206223
     32          1           0       -1.167971   -2.398826    2.065643
     33          1           0       -0.179788   -1.432820    0.959646
     34          1           0       -0.366266   -3.173833    0.688711
 ---------------------------------------------------------------------

 SCF Done:  E(RHF) =  -669.534412849     A.U. after   15 cycles
 E2 =    -0.2093324107D+01 EUMP2 =    -0.67162773695651D+03

 The electronic state is 1-A.
 Alpha  occ. eigenvalues --  -20.60778 -20.60771 -15.85832 -11.31221 -11.27804
 Alpha  occ. eigenvalues --  -11.27776 -11.27549 -11.26815 -11.26806 -11.22194
 Alpha  occ. eigenvalues --  -11.22068 -11.22006 -11.21936 -11.21559 -11.21189
 Alpha  occ. eigenvalues --   -1.59851  -1.39404  -1.19411  -1.08993  -1.08791
 Alpha  occ. eigenvalues --   -1.04832  -1.03997  -0.96433  -0.95622  -0.87444
 Alpha  occ. eigenvalues --   -0.86205  -0.82462  -0.80065  -0.78816  -0.77498
 Alpha  occ. eigenvalues --   -0.72052  -0.71176  -0.70527  -0.65690  -0.65055
 Alpha  occ. eigenvalues --   -0.64829  -0.62293  -0.61280  -0.59783  -0.58033
 Alpha  occ. eigenvalues --   -0.55797  -0.55293  -0.53205  -0.53077  -0.52976
 Alpha  occ. eigenvalues --   -0.52689  -0.50339  -0.48813  -0.48803  -0.48355
 Alpha  occ. eigenvalues --   -0.47128  -0.46326  -0.46296  -0.44801  -0.44256
 Alpha  occ. eigenvalues --   -0.37383  -0.36356
 Alpha virt. eigenvalues --    0.04999   0.11138   0.16367   0.19141   0.22902
 Alpha virt. eigenvalues --    0.23696   0.25211   0.26329   0.27457   0.28571
 Alpha virt. eigenvalues --    0.29395   0.31031   0.31304   0.31489   0.31969

 Mulliken charges:
               1
     1  C   -0.170889
     2  C   -0.218428
     3  C   -0.170577
     4  C    0.157630
     5  C   -0.174619
     6  C   -0.221190
     7  H    0.226006
     8  H    0.223712
     9  H    0.275896
    10  H    0.281393
    11  H    0.227268
    12  N    0.488389
    13  O   -0.460170
    14  O   -0.460410
    15  C   -0.298781
    16  C   -0.298589
    17  C   -0.475926
    18  H    0.147822
    19  H    0.153283
    20  H    0.145863
    21  H    0.154033
    22  H    0.157440
    23  H    0.155147
    24  H    0.161073
    25  C   -0.300795
    26  C   -0.302651
    27  C   -0.483448
    28  H    0.141420
    29  H    0.153642
    30  H    0.147361
    31  H    0.156524
    32  H    0.156792
    33  H    0.155074
    34  H    0.170704
 Sum of Mulliken charges =  -0.00000

 Dipole moment (field-independent basis, Debye):
    X=             -2.8835    Y=              4.2128    Z=              0.7164  Tot=              5.1552
 Quadrupole moment (field-independent basis, Debye-Ang):
   XX=           -108.0941   YY=            -91.3646   ZZ=            -94.9256
   XY=             14.7347   XZ=              3.1554   YZ=              0.2334

 Normal termination of Gaussian 16 at Wed May  5 15:59:04 2021.
