 Gaussian 16, Revision A.03,
 Gaussian 16:  EM64L-G16RevA.03 25-Dec-2016

 -------------
 #p 6-31g* mp2
 -------------

 ------------------------------------------------------
 Input file generated by CHIRIPA (05-May-2021 14:55:23)
 ------------------------------------------------------
 Symbolic Z-matrix:
 Charge =  0 Multiplicity = 1

                         Standard orientation:
 ---------------------------------------------------------------------
 Center     Atomic      Atomic             Coordinates (Angstroms)
 Number     Number       Type             X           Y           Z
 ---------------------------------------------------------------------
      1          6           0        4.673980   -1.800434   -0.901390
      2          6           0        3.881015   -0.984583   -1.715094
      3          6           0        3.050078   -0.012122   -1.150816
      4          6           0        3.036771    0.117832    0.237070
      5          6           0        3.815147   -0.679804    1.074445
      6          6           0        4.638577   -1.645714    0.488332
      7          1           0        5.316556   -2.553321   -1.348216
      8          1           0        3.906478   -1.102503   -2.794674
      9          1           0        2.425889    0.632910   -1.757232
     10          1           0        3.768357   -0.538673    2.147437
     11          1           0        5.253325   -2.277907    1.122731
     12          7           0        2.161068    1.143865    0.846004
     13          8           0        2.167418    1.238444    2.071423
     14          8           0        1.484924    1.834062    0.086337
     15          6           0       -4.789779   -0.192404   -0.138045
     16          6           0       -4.892417   -1.627788    0.378793
     17          6           0       -6.335027   -2.129799    0.447006
     18          1           0       -5.378924    0.467961    0.512931
     19          1           0       -5.246230   -0.135892   -1.135970
     20          1           0       -4.434671   -1.681873    1.374865
     21          1           0       -4.302802   -2.284784   -0.273379
     22          1           0       -6.798962   -2.104632   -0.544322
     23          1           0       -6.931579   -1.498295    1.113287
     24          1           0       -6.385182   -3.157868    0.819051
     25          6           0       -3.353830    0.323658   -0.211932
     26          6           0       -3.251192    1.759042   -0.728770
     27          6           0       -1.808581    2.261052   -0.796983
     28          1           0       -2.897378    0.267145    0.785993
     29          1           0       -2.764685   -0.336708   -0.862908
     30          1           0       -3.840807    2.416038   -0.076599
     31          1           0       -3.708938    1.813126   -1.724842
     32          1           0       -1.212029    1.629548   -1.463264
     33          1           0       -1.344647    2.235885    0.194346
     34          1           0       -1.758427    3.289122   -1.169029
 ---------------------------------------------------------------------

 SCF Done:  E(RHF) =  -669.535578764     A.U. after   15 cycles
 E2 =    -0.2091155418D+01 EUMP2 =    -0.67162673418244D+03

 The electronic state is 1-A.
 Alpha  occ. eigenvalues --  -20.60882 -20.60850 -15.85896 -11.31249 -11.27816
 Alpha  occ. eigenvalues --  -11.27812 -11.27558 -11.26830 -11.26820 -11.21169
 Alpha  occ. eigenvalues --  -11.20815 -11.20727 -11.20642 -11.20578 -11.19570
 Alpha  occ. eigenvalues --   -1.59934  -1.39488  -1.19420  -1.08821  -1.07741
 Alpha  occ. eigenvalues --   -1.04821  -1.02754  -0.95664  -0.95165  -0.86227
 Alpha  occ. eigenvalues --   -0.86171  -0.82490  -0.78843  -0.77580  -0.77479
 Alpha  occ. eigenvalues --   -0.72117  -0.71250  -0.70529  -0.65075  -0.64825
 Alpha  occ. eigenvalues --   -0.64382  -0.62169  -0.60156  -0.58616  -0.56782
 Alpha  occ. eigenvalues --   -0.55326  -0.54456  -0.53152  -0.52914  -0.51861
 Alpha  occ. eigenvalues --   -0.51583  -0.49219  -0.48880  -0.48781  -0.47133
 Alpha  occ. eigenvalues --   -0.45889  -0.45162  -0.44986  -0.44704  -0.43023
 Alpha  occ. eigenvalues --   -0.37400  -0.36424
 Alpha virt. eigenvalues --    0.04977   0.11230   0.16460   0.21310   0.23489
 Alpha virt. eigenvalues --    0.25045   0.27007   0.27397   0.27865   0.28196
 Alpha virt. eigenvalues --    0.29074   0.30827   0.31835   0.32397   0.32680

 Mulliken charges:
               1
     1  C   -0.170681
     2  C   -0.218557
     3  C   -0.171006
     4  C    0.158162
     5  C   -0.170749
     6  C   -0.218558
     7  H    0.225812
     8  H    0.223651
     9  H    0.275942
    10  H    0.275717
    11  H    0.223645
    12  N    0.489622
    13  O   -0.460503
    14  O   -0.458769
    15  C   -0.297465
    16  C   -0.299019
    17  C   -0.475247
    18  H    0.149445
    19  H    0.147466
    20  H    0.152203
    21  H    0.149677
    22  H    0.154109
    23  H    0.155196
    24  H    0.158410
    25  C   -0.297131
    26  C   -0.301519
    27  C   -0.471281
    28  H    0.152022
    29  H    0.145394
    30  H    0.149642
    31  H    0.145762
    32  H    0.148779
    33  H    0.174398
    34  H    0.155428
 Sum of Mulliken charges =  -0.00000

 Dipole moment (field-independent basis, Debye):
    X=              3.3546    Y=             -3.5415    Z=             -2.0520  Tot=              5.2921
 Quadrupole moment (field-independent basis, Debye-Ang):
   XX=            -78.1826   YY=            -96.1109   ZZ=            -90.9590
   XY=            -12.0022   XZ=             -4.5298   YZ=             -1.9272

 Normal termination of Gaussian 16 at Thu May  6 12:38:07 2021.
