 Gaussian 16, Revision A.03,
 Gaussian 16:  EM64L-G16RevA.03 25-Dec-2016

 -------------
 #p 6-31g* mp2
 -------------

 ------------------------------------------------------
 Input file generated by CHIRIPA (05-May-2021 14:53:11)
 ------------------------------------------------------
 Symbolic Z-matrix:
 Charge =  0 Multiplicity = 1

                         Standard orientation:
 ---------------------------------------------------------------------
 Center     Atomic      Atomic             Coordinates (Angstroms)
 Number     Number       Type             X           Y           Z
 ---------------------------------------------------------------------
      1          6           0       -3.855611   -0.544954    0.328040
      2          6           0       -3.115135   -1.662478   -0.407364
      3          6           0       -1.696348   -1.878343    0.120120
      4          1           0       -3.282839    0.388021    0.236204
      5          1           0       -3.894303   -0.783753    1.399895
      6          1           0       -3.079061   -1.422314   -1.477708
      7          1           0       -3.689833   -2.592858   -0.313928
      8          1           0       -1.716315   -2.142439    1.182408
      9          1           0       -1.102073   -0.965243    0.012016
     10          1           0       -1.185252   -2.681656   -0.419630
     11          6           0       -5.275326   -0.317195   -0.187969
     12          6           0       -6.015802    0.800329    0.547436
     13          6           0       -7.434589    1.016194    0.019951
     14          1           0       -5.236634   -0.078396   -1.259823
     15          1           0       -5.848098   -1.250170   -0.096132
     16          1           0       -5.441104    1.730709    0.454000
     17          1           0       -6.051876    0.560165    1.617780
     18          1           0       -8.028864    0.103094    0.128055
     19          1           0       -7.414622    1.280290   -1.042337
     20          1           0       -7.945685    1.819507    0.559701
     21          6           0        1.816655    2.121689   -0.396921
     22          6           0        1.506345    0.780457   -0.644563
     23          6           0        2.468172   -0.216919   -0.458348
     24          6           0        3.735967    0.164218   -0.021632
     25          6           0        4.075667    1.491903    0.233609
     26          6           0        3.098067    2.472512    0.040604
     27          1           0        1.063358    2.889962   -0.544216
     28          1           0        0.512008    0.505080   -0.984425
     29          1           0        2.254878   -1.262859   -0.642556
     30          1           0        5.075552    1.735613    0.571622
     31          1           0        3.341882    3.513333    0.233713
     32          7           0        4.762559   -0.882784    0.179101
     33          8           0        5.872160   -0.520999    0.564504
     34          8           0        4.438164   -2.045385   -0.052770
 ---------------------------------------------------------------------

 SCF Done:  E(RHF) =  -669.535432838     A.U. after   15 cycles
 E2 =    -0.2090963357D+01 EUMP2 =    -0.67162639619495D+03

 The electronic state is 1-A.
 Alpha  occ. eigenvalues --  -20.60734 -20.60729 -15.85788 -11.31155 -11.27737
 Alpha  occ. eigenvalues --  -11.27721 -11.27483 -11.26750 -11.26725 -11.22273
 Alpha  occ. eigenvalues --  -11.22070 -11.22017 -11.21888 -11.21875 -11.21465
 Alpha  occ. eigenvalues --   -1.59809  -1.39363  -1.19334  -1.09012  -1.08730
 Alpha  occ. eigenvalues --   -1.04739  -1.04114  -0.96572  -0.95562  -0.87590
 Alpha  occ. eigenvalues --   -0.86138  -0.82397  -0.80176  -0.78811  -0.77439
 Alpha  occ. eigenvalues --   -0.72006  -0.71132  -0.70444  -0.65662  -0.64987
 Alpha  occ. eigenvalues --   -0.64759  -0.62147  -0.61471  -0.59934  -0.58166
 Alpha  occ. eigenvalues --   -0.55892  -0.55236  -0.53260  -0.53119  -0.53013
 Alpha  occ. eigenvalues --   -0.52755  -0.50498  -0.48769  -0.48760  -0.48480
 Alpha  occ. eigenvalues --   -0.47207  -0.46356  -0.46273  -0.44768  -0.44362
 Alpha  occ. eigenvalues --   -0.37318  -0.36331
 Alpha virt. eigenvalues --    0.05088   0.11272   0.16502   0.20040   0.22536
 Alpha virt. eigenvalues --    0.23736   0.25643   0.26467   0.26973   0.28149
 Alpha virt. eigenvalues --    0.29018   0.29589   0.31165   0.31486   0.32097

 Mulliken charges:
               1
     1  C   -0.297427
     2  C   -0.300467
     3  C   -0.480531
     4  H    0.144380
     5  H    0.152174
     6  H    0.150677
     7  H    0.156274
     8  H    0.161649
     9  H    0.146617
    10  H    0.163034
    11  C   -0.298684
    12  C   -0.299733
    13  C   -0.475980
    14  H    0.149271
    15  H    0.151781
    16  H    0.150323
    17  H    0.153164
    18  H    0.156446
    19  H    0.155243
    20  H    0.161232
    21  C   -0.171272
    22  C   -0.221260
    23  C   -0.171400
    24  C    0.158334
    25  C   -0.170773
    26  C   -0.218635
    27  H    0.225398
    28  H    0.227501
    29  H    0.276582
    30  H    0.275569
    31  H    0.223289
    32  N    0.488135
    33  O   -0.460650
    34  O   -0.460260
 Sum of Mulliken charges =  -0.00000

 Dipole moment (field-independent basis, Debye):
    X=             -3.7626    Y=              3.6238    Z=             -0.6637  Tot=              5.2659
 Quadrupole moment (field-independent basis, Debye-Ang):
   XX=           -120.3520   YY=            -90.8066   ZZ=            -94.7641
   XY=             16.6758   XZ=             -2.1338   YZ=              0.4899

 Normal termination of Gaussian 16 at Thu May  6 04:04:05 2021.
