 Gaussian 16, Revision A.03,
 Gaussian 16:  EM64L-G16RevA.03 25-Dec-2016

 -------------
 #p 6-31g* mp2
 -------------

 ------------------------------------------------------
 Input file generated by CHIRIPA (05-May-2021 14:55:21)
 ------------------------------------------------------
 Symbolic Z-matrix:
 Charge =  0 Multiplicity = 1

                         Standard orientation:
 ---------------------------------------------------------------------
 Center     Atomic      Atomic             Coordinates (Angstroms)
 Number     Number       Type             X           Y           Z
 ---------------------------------------------------------------------
      1          6           0       -2.957992   -2.141868   -1.176527
      2          6           0       -1.804888   -1.682722   -0.531502
      3          6           0       -1.768224   -0.403952    0.032370
      4          6           0       -2.907791    0.392715   -0.067628
      5          6           0       -4.071632   -0.036231   -0.703841
      6          6           0       -4.085696   -1.318609   -1.260490
      7          1           0       -2.977695   -3.136648   -1.611751
      8          1           0       -0.927618   -2.319896   -0.464784
      9          1           0       -0.888744   -0.023338    0.537411
     10          1           0       -4.930538    0.621903   -0.754421
     11          1           0       -4.982596   -1.672551   -1.760830
     12          7           0       -2.880939    1.748401    0.525495
     13          8           0       -3.898069    2.430875    0.423949
     14          8           0       -1.843271    2.102843    1.080700
     15          6           0        3.547946   -0.624868    0.831791
     16          6           0        2.059996   -0.964756    0.923791
     17          6           0        1.716142   -1.781606    2.169711
     18          1           0        4.131050   -1.555958    0.833993
     19          1           0        3.845834   -0.067383    1.730606
     20          1           0        1.764691   -1.520233    0.024427
     21          1           0        1.480356   -0.032754    0.921177
     22          1           0        1.983019   -1.230636    3.077350
     23          1           0        2.268968   -2.726566    2.175505
     24          1           0        0.647492   -2.013456    2.215451
     25          6           0        3.907327    0.191506   -0.408414
     26          6           0        5.395277    0.531395   -0.500414
     27          6           0        5.739131    1.348245   -1.746333
     28          1           0        3.609440   -0.365980   -1.307229
     29          1           0        3.324223    1.122597   -0.410615
     30          1           0        5.974917   -0.400608   -0.497800
     31          1           0        5.690582    1.086872    0.398951
     32          1           0        5.186304    2.293205   -1.752128
     33          1           0        5.472254    0.797275   -2.653973
     34          1           0        6.807781    1.580095   -1.792074
 ---------------------------------------------------------------------

 SCF Done:  E(RHF) =  -669.535583951     A.U. after   15 cycles
 E2 =    -0.2091944390D+01 EUMP2 =    -0.67162752834099D+03

 The electronic state is 1-A.
 Alpha  occ. eigenvalues --  -20.60737 -20.60731 -15.85787 -11.31116 -11.27703
 Alpha  occ. eigenvalues --  -11.27643 -11.27444 -11.26716 -11.26683 -11.22338
 Alpha  occ. eigenvalues --  -11.21807 -11.21767 -11.21707 -11.21619 -11.21166
 Alpha  occ. eigenvalues --   -1.59811  -1.39366  -1.19296  -1.08818  -1.08701
 Alpha  occ. eigenvalues --   -1.04699  -1.03936  -0.96355  -0.95538  -0.87367
 Alpha  occ. eigenvalues --   -0.86097  -0.82374  -0.80052  -0.78614  -0.77405
 Alpha  occ. eigenvalues --   -0.72009  -0.71132  -0.70417  -0.65462  -0.64951
 Alpha  occ. eigenvalues --   -0.64689  -0.62115  -0.61315  -0.59717  -0.57961
 Alpha  occ. eigenvalues --   -0.55613  -0.55199  -0.53088  -0.53027  -0.52813
 Alpha  occ. eigenvalues --   -0.52748  -0.50273  -0.48765  -0.48764  -0.48332
 Alpha  occ. eigenvalues --   -0.47054  -0.46139  -0.46031  -0.44778  -0.44172
 Alpha  occ. eigenvalues --   -0.37285  -0.36292
 Alpha virt. eigenvalues --    0.05097   0.11350   0.16557   0.19520   0.22832
 Alpha virt. eigenvalues --    0.23793   0.25299   0.25981   0.27372   0.27949
 Alpha virt. eigenvalues --    0.29207   0.29680   0.31296   0.31516   0.31679

 Mulliken charges:
               1
     1  C   -0.170639
     2  C   -0.225400
     3  C   -0.178893
     4  C    0.158773
     5  C   -0.170112
     6  C   -0.219045
     7  H    0.225392
     8  H    0.226808
     9  H    0.287732
    10  H    0.275365
    11  H    0.223169
    12  N    0.487442
    13  O   -0.460490
    14  O   -0.461336
    15  C   -0.296953
    16  C   -0.311307
    17  C   -0.478243
    18  H    0.150121
    19  H    0.154228
    20  H    0.145001
    21  H    0.158364
    22  H    0.163038
    23  H    0.156826
    24  H    0.156140
    25  C   -0.299940
    26  C   -0.300151
    27  C   -0.476162
    28  H    0.147661
    29  H    0.154561
    30  H    0.151296
    31  H    0.153781
    32  H    0.157505
    33  H    0.154463
    34  H    0.161004
 Sum of Mulliken charges =  -0.00000

 Dipole moment (field-independent basis, Debye):
    X=              0.0894    Y=             -4.7034    Z=             -2.0311  Tot=              5.1240
 Quadrupole moment (field-independent basis, Debye-Ang):
   XX=            -89.4241   YY=            -98.7453   ZZ=            -95.0473
   XY=             12.9888   XZ=              8.3293   YZ=              0.2376

 Normal termination of Gaussian 16 at Thu May  6 15:50:03 2021.
