 Gaussian 16, Revision A.03,
 Gaussian 16:  EM64L-G16RevA.03 25-Dec-2016

 -------------
 #p 6-31g* mp2
 -------------

 ------------------------------------------------------
 Input file generated by CHIRIPA (05-May-2021 14:55:18)
 ------------------------------------------------------
 Symbolic Z-matrix:
 Charge =  0 Multiplicity = 1

                         Standard orientation:
 ---------------------------------------------------------------------
 Center     Atomic      Atomic             Coordinates (Angstroms)
 Number     Number       Type             X           Y           Z
 ---------------------------------------------------------------------
      1          6           0       -5.609404    1.233790    0.279408
      2          6           0       -5.567498   -0.126105   -0.045323
      3          6           0       -4.345558   -0.761224   -0.286228
      4          6           0       -3.179639   -0.002738   -0.193381
      5          6           0       -3.188647    1.353679    0.128086
      6          6           0       -4.421938    1.968048    0.364926
      7          1           0       -6.563045    1.719106    0.464970
      8          1           0       -6.488110   -0.698829   -0.112444
      9          1           0       -4.284224   -1.812668   -0.539452
     10          1           0       -2.254191    1.898356    0.187546
     11          1           0       -4.451455    3.024300    0.616925
     12          7           0       -1.880018   -0.664126   -0.446265
     13          8           0       -0.866979    0.026257   -0.358177
     14          8           0       -1.899023   -1.860382   -0.727774
     15          6           0        3.875233   -0.729623    0.088218
     16          6           0        2.649624   -0.704936    1.002142
     17          6           0        1.721154   -1.898936    0.778310
     18          1           0        3.543540   -0.746741   -0.958984
     19          1           0        4.430066   -1.663177    0.255652
     20          1           0        2.098024    0.228922    0.834029
     21          1           0        2.984275   -0.687682    2.047287
     22          1           0        2.250403   -2.838878    0.965408
     23          1           0        1.359116   -1.917066   -0.254743
     24          1           0        0.851631   -1.861285    1.441916
     25          6           0        4.812977    0.457580    0.300142
     26          6           0        6.038586    0.432892   -0.613783
     27          6           0        6.967056    1.626893   -0.389950
     28          1           0        4.258145    1.391134    0.132708
     29          1           0        5.144671    0.474698    1.347344
     30          1           0        5.703935    0.415639   -1.658927
     31          1           0        6.590187   -0.500965   -0.445668
     32          1           0        7.329095    1.645023    0.643104
     33          1           0        6.437808    2.566835   -0.577048
     34          1           0        7.836579    1.589241   -1.053557
 ---------------------------------------------------------------------

 SCF Done:  E(RHF) =  -669.536087390     A.U. after   15 cycles
 E2 =    -0.2091790615D+01 EUMP2 =    -0.67162787800514D+03

 The electronic state is 1-A.
 Alpha  occ. eigenvalues --  -20.61002 -20.60996 -15.86016 -11.31333 -11.27892
 Alpha  occ. eigenvalues --  -11.27887 -11.27625 -11.26894 -11.26884 -11.20836
 Alpha  occ. eigenvalues --  -11.20467 -11.20430 -11.20126 -11.19974 -11.19004
 Alpha  occ. eigenvalues --   -1.60047  -1.39605  -1.19496  -1.08903  -1.07297
 Alpha  occ. eigenvalues --   -1.04890  -1.02283  -0.95751  -0.94720  -0.86291
 Alpha  occ. eigenvalues --   -0.85747  -0.82579  -0.78426  -0.77636  -0.77040
 Alpha  occ. eigenvalues --   -0.72234  -0.71362  -0.70604  -0.65152  -0.64895
 Alpha  occ. eigenvalues --   -0.63928  -0.62237  -0.59667  -0.58210  -0.56329
 Alpha  occ. eigenvalues --   -0.55402  -0.54025  -0.53221  -0.52980  -0.51433
 Alpha  occ. eigenvalues --   -0.51164  -0.49216  -0.48987  -0.48379  -0.46713
 Alpha  occ. eigenvalues --   -0.45454  -0.45010  -0.44581  -0.44442  -0.42558
 Alpha  occ. eigenvalues --   -0.37473  -0.36490
 Alpha virt. eigenvalues --    0.04881   0.11165   0.16379   0.21293   0.23912
 Alpha virt. eigenvalues --    0.25627   0.27221   0.27700   0.28197   0.28570
 Alpha virt. eigenvalues --    0.29296   0.30888   0.32343   0.32673   0.32746

 Mulliken charges:
               1
     1  C   -0.170532
     2  C   -0.218583
     3  C   -0.170722
     4  C    0.158598
     5  C   -0.170740
     6  C   -0.218545
     7  H    0.226132
     8  H    0.223973
     9  H    0.276027
    10  H    0.275637
    11  H    0.223952
    12  N    0.489254
    13  O   -0.459788
    14  O   -0.458467
    15  C   -0.297977
    16  C   -0.300876
    17  C   -0.466372
    18  H    0.151714
    19  H    0.145548
    20  H    0.158953
    21  H    0.141963
    22  H    0.140842
    23  H    0.173654
    24  H    0.154889
    25  C   -0.297164
    26  C   -0.298803
    27  C   -0.474972
    28  H    0.148190
    29  H    0.146593
    30  H    0.151613
    31  H    0.150612
    32  H    0.153695
    33  H    0.153798
    34  H    0.157902
 Sum of Mulliken charges =  -0.00000

 Dipole moment (field-independent basis, Debye):
    X=             -5.0193    Y=              2.3515    Z=              0.7529  Tot=              5.5937
 Quadrupole moment (field-independent basis, Debye-Ang):
   XX=            -66.7538   YY=            -91.8145   ZZ=            -95.6344
   XY=             -6.0184   XZ=             -1.5583   YZ=              0.2966

 Normal termination of Gaussian 16 at Thu May  6 17:22:10 2021.
