 Gaussian 16, Revision A.03,
 Gaussian 16:  EM64L-G16RevA.03 25-Dec-2016

 -------------
 #p 6-31g* mp2
 -------------

 ------------------------------------------------------
 Input file generated by CHIRIPA (05-May-2021 14:53:13)
 ------------------------------------------------------
 Symbolic Z-matrix:
 Charge =  0 Multiplicity = 1

                         Standard orientation:
 ---------------------------------------------------------------------
 Center     Atomic      Atomic             Coordinates (Angstroms)
 Number     Number       Type             X           Y           Z
 ---------------------------------------------------------------------
      1          6           0        4.641829   -0.329185    0.196315
      2          6           0        5.598293    0.440948   -0.714760
      3          6           0        6.940388    0.739277   -0.045749
      4          1           0        4.474588    0.249787    1.114883
      5          1           0        5.117230   -1.271231    0.502807
      6          1           0        5.120679    1.380623   -1.020558
      7          1           0        5.763126   -0.139836   -1.631350
      8          1           0        7.441262   -0.190026    0.244288
      9          1           0        6.795165    1.339072    0.858550
     10          1           0        7.608708    1.290390   -0.714690
     11          6           0        3.295863   -0.634895   -0.458394
     12          6           0        2.339399   -1.405027    0.452681
     13          6           0        0.997304   -1.703356   -0.216330
     14          1           0        2.820462    0.307151   -0.764886
     15          1           0        3.463104   -1.213866   -1.376962
     16          1           0        2.174566   -0.824243    1.369270
     17          1           0        2.817013   -2.344702    0.758478
     18          1           0        1.142527   -2.303151   -1.120630
     19          1           0        0.496430   -0.774053   -0.506367
     20          1           0        0.328983   -2.254469    0.452611
     21          6           0       -1.264351    2.010604    0.671495
     22          6           0       -2.282201    2.381749   -0.213238
     23          6           0       -3.304711    1.484538   -0.535782
     24          6           0       -3.278188    0.218624    0.047354
     25          6           0       -2.277863   -0.180768    0.932298
     26          6           0       -1.265428    0.732783    1.240436
     27          1           0       -0.473954    2.713926    0.916460
     28          1           0       -2.283916    3.373454   -0.656591
     29          1           0       -4.104859    1.745739   -1.217659
     30          1           0       -2.303046   -1.176375    1.358382
     31          1           0       -0.476227    0.441808    1.927852
     32          7           0       -4.355341   -0.739863   -0.286484
     33          8           0       -4.309269   -1.849202    0.240660
     34          8           0       -5.225289   -0.363635   -1.068967
 ---------------------------------------------------------------------

 SCF Done:  E(RHF) =  -669.534577975     A.U. after   15 cycles
 E2 =    -0.2092575769D+01 EUMP2 =    -0.67162715374360D+03

 The electronic state is 1-A.
 Alpha  occ. eigenvalues --  -20.60762 -20.60757 -15.85816 -11.31195 -11.27753
 Alpha  occ. eigenvalues --  -11.27745 -11.27513 -11.26792 -11.26764 -11.22210
 Alpha  occ. eigenvalues --  -11.22046 -11.21932 -11.21860 -11.21464 -11.21439
 Alpha  occ. eigenvalues --   -1.59836  -1.39390  -1.19376  -1.08947  -1.08768
 Alpha  occ. eigenvalues --   -1.04789  -1.04009  -0.96446  -0.95598  -0.87461
 Alpha  occ. eigenvalues --   -0.86175  -0.82429  -0.80080  -0.78756  -0.77472
 Alpha  occ. eigenvalues --   -0.72034  -0.71159  -0.70482  -0.65607  -0.65026
 Alpha  occ. eigenvalues --   -0.64775  -0.62171  -0.61390  -0.59816  -0.58060
 Alpha  occ. eigenvalues --   -0.55793  -0.55276  -0.53320  -0.53013  -0.52854
 Alpha  occ. eigenvalues --   -0.52775  -0.50336  -0.48795  -0.48788  -0.48385
 Alpha  occ. eigenvalues --   -0.47124  -0.46292  -0.46228  -0.44791  -0.44278
 Alpha  occ. eigenvalues --   -0.37362  -0.36287
 Alpha virt. eigenvalues --    0.05057   0.11192   0.16504   0.20006   0.22664
 Alpha virt. eigenvalues --    0.23883   0.25776   0.26296   0.26879   0.28048
 Alpha virt. eigenvalues --    0.28683   0.29603   0.31039   0.31367   0.31938

 Mulliken charges:
               1
     1  C   -0.298197
     2  C   -0.299730
     3  C   -0.475854
     4  H    0.146935
     5  H    0.151451
     6  H    0.150533
     7  H    0.153687
     8  H    0.156396
     9  H    0.154413
    10  H    0.161379
    11  C   -0.297996
    12  C   -0.300568
    13  C   -0.480555
    14  H    0.146909
    15  H    0.153042
    16  H    0.142148
    17  H    0.155319
    18  H    0.159436
    19  H    0.161934
    20  H    0.155804
    21  C   -0.173019
    22  C   -0.218281
    23  C   -0.171415
    24  C    0.158440
    25  C   -0.167907
    26  C   -0.218210
    27  H    0.225367
    28  H    0.223452
    29  H    0.275627
    30  H    0.275659
    31  H    0.226291
    32  N    0.488157
    33  O   -0.460233
    34  O   -0.460411
 Sum of Mulliken charges =  -0.00000

 Dipole moment (field-independent basis, Debye):
    X=              3.8382    Y=              3.3437    Z=              1.1040  Tot=              5.2087
 Quadrupole moment (field-independent basis, Debye-Ang):
   XX=           -120.0010   YY=            -90.5818   ZZ=            -93.4164
   XY=            -12.6734   XZ=             -2.9152   YZ=             -1.6411

 Normal termination of Gaussian 16 at Thu May  6 05:45:49 2021.
