 Gaussian 16, Revision A.03,
 Gaussian 16:  EM64L-G16RevA.03 25-Dec-2016

 -------------
 #p 6-31g* mp2
 -------------

 ------------------------------------------------------
 Input file generated by CHIRIPA (05-May-2021 14:53:14)
 ------------------------------------------------------
 Symbolic Z-matrix:
 Charge =  0 Multiplicity = 1

                         Standard orientation:
 ---------------------------------------------------------------------
 Center     Atomic      Atomic             Coordinates (Angstroms)
 Number     Number       Type             X           Y           Z
 ---------------------------------------------------------------------
      1          6           0        4.006226    0.424532    0.414525
      2          6           0        3.776017    1.898510    0.079298
      3          6           0        2.507387    2.459822    0.722183
      4          1           0        3.136646   -0.160137    0.084467
      5          1           0        4.064868    0.308681    1.505641
      6          1           0        3.719208    2.011749   -1.010916
      7          1           0        4.646329    2.479712    0.410019
      8          1           0        2.558566    2.375999    1.812576
      9          1           0        1.626178    1.905377    0.383567
     10          1           0        2.362232    3.514773    0.469462
     11          6           0        5.270633   -0.150959   -0.220937
     12          6           0        5.500842   -1.624938    0.114290
     13          6           0        6.769471   -2.186250   -0.528596
     14          1           0        5.211991   -0.035109   -1.312053
     15          1           0        6.140213    0.433710    0.109121
     16          1           0        4.630530   -2.206139   -0.216432
     17          1           0        5.557650   -1.738176    1.204504
     18          1           0        7.650681   -1.631805   -0.189979
     19          1           0        6.718292   -2.102427   -1.618988
     20          1           0        6.914627   -3.241201   -0.275874
     21          6           0       -1.506514    1.229867   -0.385922
     22          6           0       -1.436600   -0.111535    0.004303
     23          6           0       -2.603228   -0.861815    0.179251
     24          6           0       -3.828461   -0.236095   -0.045622
     25          6           0       -3.930903    1.098500   -0.435047
     26          6           0       -2.751248    1.829546   -0.603968
     27          1           0       -0.595189    1.805231   -0.519484
     28          1           0       -0.471304   -0.579866    0.174346
     29          1           0       -2.578031   -1.901939    0.480790
     30          1           0       -4.907704    1.537829   -0.597120
     31          1           0       -2.808576    2.871122   -0.907080
     32          7           0       -5.070414   -1.020201    0.136397
     33          8           0       -6.137566   -0.445701   -0.067991
     34          8           0       -4.953189   -2.194436    0.480005
 ---------------------------------------------------------------------

 SCF Done:  E(RHF) =  -669.535474822     A.U. after   15 cycles
 E2 =    -0.2090945817D+01 EUMP2 =    -0.67162642063844D+03

 The electronic state is 1-A.
 Alpha  occ. eigenvalues --  -20.60731 -20.60726 -15.85785 -11.31144 -11.27717
 Alpha  occ. eigenvalues --  -11.27713 -11.27428 -11.26728 -11.26717 -11.22568
 Alpha  occ. eigenvalues --  -11.22302 -11.22280 -11.22191 -11.22061 -11.21543
 Alpha  occ. eigenvalues --   -1.59807  -1.39360  -1.19317  -1.09233  -1.08711
 Alpha  occ. eigenvalues --   -1.04721  -1.04337  -0.96804  -0.95548  -0.87821
 Alpha  occ. eigenvalues --   -0.86118  -0.82383  -0.80408  -0.79016  -0.77430
 Alpha  occ. eigenvalues --   -0.72003  -0.71130  -0.70446  -0.65867  -0.64970
 Alpha  occ. eigenvalues --   -0.64729  -0.62074  -0.61736  -0.60179  -0.58396
 Alpha  occ. eigenvalues --   -0.56194  -0.55169  -0.53483  -0.53210  -0.53042
 Alpha  occ. eigenvalues --   -0.52813  -0.50736  -0.48764  -0.48759  -0.48712
 Alpha  occ. eigenvalues --   -0.47436  -0.46568  -0.46465  -0.44767  -0.44581
 Alpha  occ. eigenvalues --   -0.37291  -0.36327
 Alpha virt. eigenvalues --    0.05103   0.11320   0.16582   0.19117   0.22501
 Alpha virt. eigenvalues --    0.23803   0.25173   0.25998   0.26429   0.27884
 Alpha virt. eigenvalues --    0.28841   0.30116   0.30894   0.31296   0.31600

 Mulliken charges:
               1
     1  C   -0.297725
     2  C   -0.300172
     3  C   -0.479478
     4  H    0.143363
     5  H    0.151967
     6  H    0.152720
     7  H    0.156595
     8  H    0.161244
     9  H    0.144292
    10  H    0.162652
    11  C   -0.298889
    12  C   -0.300092
    13  C   -0.476164
    14  H    0.150464
    15  H    0.151849
    16  H    0.151103
    17  H    0.153027
    18  H    0.156243
    19  H    0.155889
    20  H    0.162122
    21  C   -0.175113
    22  C   -0.220791
    23  C   -0.170958
    24  C    0.158265
    25  C   -0.170802
    26  C   -0.219229
    27  H    0.232836
    28  H    0.223157
    29  H    0.275507
    30  H    0.275422
    31  H    0.223736
    32  N    0.488062
    33  O   -0.460527
    34  O   -0.460578
 Sum of Mulliken charges =  -0.00000

 Dipole moment (field-independent basis, Debye):
    X=              4.6290    Y=              2.7944    Z=             -0.6083  Tot=              5.4412
 Quadrupole moment (field-independent basis, Debye-Ang):
   XX=           -126.6553   YY=            -93.1042   ZZ=            -94.6363
   XY=            -13.4792   XZ=              3.9805   YZ=             -1.0809

 Normal termination of Gaussian 16 at Wed May  5 23:26:26 2021.
