 Gaussian 16, Revision A.03,
 Gaussian 16:  EM64L-G16RevA.03 25-Dec-2016

 -------------
 #p 6-31g* mp2
 -------------

 ------------------------------------------------------
 Input file generated by CHIRIPA (05-May-2021 14:51:13)
 ------------------------------------------------------
 Symbolic Z-matrix:
 Charge =  0 Multiplicity = 1

                         Standard orientation:
 ---------------------------------------------------------------------
 Center     Atomic      Atomic             Coordinates (Angstroms)
 Number     Number       Type             X           Y           Z
 ---------------------------------------------------------------------
      1          6           0        4.017094    0.197360   -0.104277
      2          6           0        5.322830   -0.480098    0.312963
      3          6           0        6.510722    0.482485    0.324793
      4          1           0        4.143108    0.638796   -1.102375
      5          1           0        3.808661    1.030036    0.581727
      6          1           0        5.528021   -1.312115   -0.372792
      7          1           0        5.193632   -0.920138    1.310104
      8          1           0        6.331727    1.306713    1.022797
      9          1           0        6.668017    0.912510   -0.669661
     10          1           0        7.433791   -0.022650    0.625861
     11          6           0        2.820405   -0.752054   -0.120922
     12          6           0        1.514669   -0.074596   -0.538162
     13          6           0        0.326777   -1.037180   -0.549991
     14          1           0        3.028838   -1.584730   -0.806925
     15          1           0        2.694391   -1.193491    0.877176
     16          1           0        1.643867    0.365444   -1.535302
     17          1           0        1.309477    0.757420    0.147594
     18          1           0        0.169482   -1.467204    0.444462
     19          1           0        0.505771   -1.861408   -1.247995
     20          1           0       -0.596292   -0.532045   -0.851059
     21          6           0       -3.643015   -0.365970   -0.232772
     22          6           0       -3.703268   -1.569924    0.707893
     23          6           0       -4.153550   -2.849448    0.002304
     24          1           0       -4.633387   -0.209653   -0.681853
     25          1           0       -2.956283   -0.590344   -1.060690
     26          1           0       -4.388620   -1.342818    1.534531
     27          1           0       -2.712685   -1.723274    1.154934
     28          1           0       -3.465986   -3.103272   -0.810981
     29          1           0       -5.151444   -2.720653   -0.429227
     30          1           0       -4.189577   -3.697507    0.693217
     31          6           0       -3.194483    0.920664    0.457969
     32          6           0       -3.134231    2.124618   -0.482694
     33          6           0       -2.683950    3.404144    0.222894
     34          1           0       -3.881216    1.145038    1.285888
     35          1           0       -2.204112    0.764347    0.907051
     36          1           0       -4.124814    2.277968   -0.929735
     37          1           0       -2.448879    1.897512   -1.309332
     38          1           0       -1.686055    3.275348    0.654425
     39          1           0       -3.371513    3.657965    1.036179
     40          1           0       -2.647922    4.252201   -0.468019
 ---------------------------------------------------------------------

 SCF Done:  E(RHF) =  -470.732962941     A.U. after   11 cycles
 E2 =    -0.1583619392D+01 EUMP2 =    -0.47231658233333D+03

 The electronic state is 1-A.
 Alpha  occ. eigenvalues --  -11.21684 -11.21631 -11.21601 -11.21532 -11.21453
 Alpha  occ. eigenvalues --  -11.21391 -11.21360 -11.21299 -11.21143 -11.21093
 Alpha  occ. eigenvalues --  -11.21068 -11.21009  -1.08490  -1.08394  -1.03587
 Alpha  occ. eigenvalues --   -1.03493  -0.96059  -0.95927  -0.87065  -0.86955
 Alpha  occ. eigenvalues --   -0.79653  -0.79558  -0.78292  -0.78215  -0.65175
 Alpha  occ. eigenvalues --   -0.65047  -0.60983  -0.60891  -0.59396  -0.59312
 Alpha  occ. eigenvalues --   -0.57660  -0.57553  -0.55344  -0.55226  -0.52718
 Alpha  occ. eigenvalues --   -0.52641  -0.52476  -0.52328  -0.49984  -0.49882
 Alpha  occ. eigenvalues --   -0.47977  -0.47876  -0.46716  -0.46558  -0.45850
 Alpha  occ. eigenvalues --   -0.45760  -0.45745  -0.45647  -0.43812  -0.43727
 Alpha virt. eigenvalues --    0.20168   0.23040   0.23721   0.24776   0.25860
 Alpha virt. eigenvalues --    0.26256   0.27080   0.27415   0.27839   0.29808
 Alpha virt. eigenvalues --    0.30184   0.31263   0.31739   0.31850   0.32317

 Mulliken charges:
               1
     1  C   -0.298293
     2  C   -0.299684
     3  C   -0.475739
     4  H    0.149760
     5  H    0.149606
     6  H    0.151991
     7  H    0.152009
     8  H    0.155258
     9  H    0.155234
    10  H    0.160364
    11  C   -0.298653
    12  C   -0.299759
    13  C   -0.484082
    14  H    0.149768
    15  H    0.149770
    16  H    0.152209
    17  H    0.151682
    18  H    0.155750
    19  H    0.155347
    20  H    0.168543
    21  C   -0.301164
    22  C   -0.301035
    23  C   -0.475859
    24  H    0.149979
    25  H    0.151390
    26  H    0.151434
    27  H    0.154439
    28  H    0.155885
    29  H    0.154765
    30  H    0.159900
    31  C   -0.301397
    32  C   -0.300270
    33  C   -0.475525
    34  H    0.149913
    35  H    0.152238
    36  H    0.152174
    37  H    0.151557
    38  H    0.155030
    39  H    0.155187
    40  H    0.160276
 Sum of Mulliken charges =  -0.00000

 Dipole moment (field-independent basis, Debye):
    X=              0.0262    Y=             -0.0067    Z=             -0.0022  Tot=              0.0272
 Quadrupole moment (field-independent basis, Debye-Ang):
   XX=            -84.8603   YY=            -86.0535   ZZ=            -83.8994
   XY=             -1.1332   XZ=             -0.5818   YZ=             -0.1165

 Normal termination of Gaussian 16 at Wed May  5 23:11:40 2021.
