 Gaussian 16, Revision A.03,
 Gaussian 16:  EM64L-G16RevA.03 25-Dec-2016

 -------------
 #p 6-31g* mp2
 -------------

 ------------------------------------------------------
 Input file generated by CHIRIPA (05-May-2021 14:53:12)
 ------------------------------------------------------
 Symbolic Z-matrix:
 Charge =  0 Multiplicity = 1

                         Standard orientation:
 ---------------------------------------------------------------------
 Center     Atomic      Atomic             Coordinates (Angstroms)
 Number     Number       Type             X           Y           Z
 ---------------------------------------------------------------------
      1          6           0       -2.800228    0.892244   -0.393023
      2          6           0       -2.845757    2.377150   -0.031133
      3          6           0       -1.856854    3.214097   -0.843157
      4          1           0       -1.781020    0.513904   -0.234845
      5          1           0       -3.013820    0.776445   -1.464641
      6          1           0       -2.633506    2.490001    1.039769
      7          1           0       -3.865021    2.751953   -0.190009
      8          1           0       -2.070168    3.131176   -1.913775
      9          1           0       -0.831656    2.867735   -0.677010
     10          1           0       -1.906148    4.272362   -0.568374
     11          6           0       -3.783209    0.042492    0.410343
     12          6           0       -3.737679   -1.442415    0.048452
     13          6           0       -4.726583   -2.279361    0.860477
     14          1           0       -3.569616    0.158290    1.481961
     15          1           0       -4.802416    0.420832    0.252165
     16          1           0       -2.718416   -1.817217    0.207328
     17          1           0       -3.949931   -1.555265   -1.022449
     18          1           0       -5.751781   -1.933000    0.694330
     19          1           0       -4.513269   -2.196441    1.931094
     20          1           0       -4.677289   -3.337626    0.585694
     21          6           0        3.660329    1.805818    0.677114
     22          6           0        2.290861    1.767931    0.394902
     23          6           0        1.677066    0.570634    0.015058
     24          6           0        2.466406   -0.575010   -0.072880
     25          6           0        3.833075   -0.569390    0.201846
     26          6           0        4.425716    0.639094    0.579857
     27          1           0        4.128924    2.740252    0.971475
     28          1           0        1.693977    2.672471    0.469606
     29          1           0        0.618842    0.512954   -0.209111
     30          1           0        4.401994   -1.487446    0.118645
     31          1           0        5.489469    0.665546    0.798430
     32          7           0        1.827806   -1.848457   -0.474035
     33          8           0        2.545239   -2.843954   -0.544136
     34          8           0        0.621930   -1.826975   -0.710762
 ---------------------------------------------------------------------

 SCF Done:  E(RHF) =  -669.535582474     A.U. after   15 cycles
 E2 =    -0.2092488053D+01 EUMP2 =    -0.67162807052732D+03

 The electronic state is 1-A.
 Alpha  occ. eigenvalues --  -20.60832 -20.60827 -15.85876 -11.31209 -11.27778
 Alpha  occ. eigenvalues --  -11.27759 -11.27516 -11.26790 -11.26772 -11.21892
 Alpha  occ. eigenvalues --  -11.21692 -11.21416 -11.21155 -11.20957 -11.20559
 Alpha  occ. eigenvalues --   -1.59900  -1.39455  -1.19382  -1.08782  -1.08355
 Alpha  occ. eigenvalues --   -1.04784  -1.03454  -0.95952  -0.95623  -0.86978
 Alpha  occ. eigenvalues --   -0.86182  -0.82458  -0.79553  -0.78084  -0.77485
 Alpha  occ. eigenvalues --   -0.72095  -0.71218  -0.70503  -0.65059  -0.65030
 Alpha  occ. eigenvalues --   -0.64760  -0.62162  -0.60826  -0.59364  -0.57509
 Alpha  occ. eigenvalues --   -0.55289  -0.55282  -0.53112  -0.52907  -0.52642
 Alpha  occ. eigenvalues --   -0.52348  -0.49931  -0.48857  -0.48852  -0.47841
 Alpha  occ. eigenvalues --   -0.46581  -0.45608  -0.45478  -0.44854  -0.43694
 Alpha  occ. eigenvalues --   -0.37362  -0.36381
 Alpha virt. eigenvalues --    0.05012   0.11267   0.16491   0.18993   0.23195
 Alpha virt. eigenvalues --    0.24019   0.25441   0.26238   0.27263   0.28327
 Alpha virt. eigenvalues --    0.29410   0.30774   0.31513   0.31938   0.32220

 Mulliken charges:
               1
     1  C   -0.307351
     2  C   -0.300423
     3  C   -0.476952
     4  H    0.155157
     5  H    0.153332
     6  H    0.150122
     7  H    0.155002
     8  H    0.160812
     9  H    0.142612
    10  H    0.160847
    11  C   -0.297483
    12  C   -0.304277
    13  C   -0.475928
    14  H    0.147518
    15  H    0.148236
    16  H    0.168622
    17  H    0.152494
    18  H    0.151952
    19  H    0.153346
    20  H    0.162757
    21  C   -0.170178
    22  C   -0.226391
    23  C   -0.180707
    24  C    0.155867
    25  C   -0.169408
    26  C   -0.219228
    27  H    0.225946
    28  H    0.226812
    29  H    0.293340
    30  H    0.275679
    31  H    0.223571
    32  N    0.487463
    33  O   -0.459628
    34  O   -0.463532
 Sum of Mulliken charges =  -0.00000

 Dipole moment (field-independent basis, Debye):
    X=              2.2085    Y=              4.3659    Z=              1.3573  Tot=              5.0774
 Quadrupole moment (field-independent basis, Debye-Ang):
   XX=            -79.6518   YY=            -99.8623   ZZ=            -95.5586
   XY=              7.0281   XZ=              4.9336   YZ=             -1.0710

 Normal termination of Gaussian 16 at Thu May  6 07:15:59 2021.
