 Gaussian 16, Revision A.03,
 Gaussian 16:  EM64L-G16RevA.03 25-Dec-2016

 -------------
 #p 6-31g* mp2
 -------------

 ------------------------------------------------------
 Input file generated by CHIRIPA (05-May-2021 14:57:21)
 ------------------------------------------------------
 Symbolic Z-matrix:
 Charge =  0 Multiplicity = 1

                         Standard orientation:
 ---------------------------------------------------------------------
 Center     Atomic      Atomic             Coordinates (Angstroms)
 Number     Number       Type             X           Y           Z
 ---------------------------------------------------------------------
      1          6           0       -5.221241   -0.365119   -1.732706
      2          6           0       -3.941798   -0.913785   -1.868766
      3          6           0       -2.987288   -0.747989   -0.860813
      4          6           0       -3.347819   -0.024515    0.274922
      5          6           0       -4.614255    0.534257    0.439856
      6          6           0       -5.552802    0.355880   -0.580860
      7          1           0       -5.956527   -0.498800   -2.520666
      8          1           0       -3.681511   -1.474196   -2.762206
      9          1           0       -1.989458   -1.162050   -0.940228
     10          1           0       -4.844301    1.087909    1.342057
     11          1           0       -6.545666    0.783102   -0.472477
     12          7           0       -2.345773    0.157666    1.348753
     13          8           0       -2.688241    0.799263    2.339563
     14          8           0       -1.236874   -0.344588    1.179278
     15          6           0        3.654233   -2.409441    0.426238
     16          6           0        4.550295   -1.834242   -0.480812
     17          6           0        4.481291   -0.470061   -0.778800
     18          6           0        3.499312    0.292749   -0.148617
     19          6           0        2.592246   -0.251101    0.759539
     20          6           0        2.679786   -1.617431    1.042433
     21          1           0        3.715037   -3.470004    0.651859
     22          1           0        5.308091   -2.446896   -0.960860
     23          1           0        5.162377    0.001034   -1.477089
     24          1           0        1.847669    0.385242    1.222236
     25          1           0        1.982570   -2.061434    1.747270
     26          7           0        3.416449    1.738084   -0.456094
     27          8           0        2.542180    2.388490    0.112470
     28          8           0        4.227337    2.193163   -1.259834
 ---------------------------------------------------------------------

 SCF Done:  E(RHF) =  -868.339735973     A.U. after   16 cycles
 E2 =    -0.2598567244D+01 EUMP2 =    -0.87093830321754D+03

 The electronic state is 1-A.
 Alpha  occ. eigenvalues --  -20.61212 -20.61164 -20.60033 -20.60005 -15.86227
 Alpha  occ. eigenvalues --  -15.85069 -11.31402 -11.30311 -11.27961 -11.27938
 Alpha  occ. eigenvalues --  -11.27666 -11.26978 -11.26933 -11.26918 -11.26698
 Alpha  occ. eigenvalues --  -11.26685 -11.25995 -11.25770  -1.60244  -1.59104
 Alpha  occ. eigenvalues --   -1.39807  -1.38656  -1.19557  -1.18501  -1.08988
 Alpha  occ. eigenvalues --   -1.07940  -1.04936  -1.03855  -0.95857  -0.94777
 Alpha  occ. eigenvalues --   -0.86344  -0.85277  -0.82703  -0.81588  -0.77766
 Alpha  occ. eigenvalues --   -0.76631  -0.72474  -0.71539  -0.71289  -0.70671
 Alpha  occ. eigenvalues --   -0.70429  -0.69614  -0.65220  -0.64942  -0.64145
 Alpha  occ. eigenvalues --   -0.63855  -0.62288  -0.61163  -0.55449  -0.54429
 Alpha  occ. eigenvalues --   -0.53269  -0.53030  -0.52245  -0.51928  -0.49227
 Alpha  occ. eigenvalues --   -0.49186  -0.48056  -0.48032  -0.45250  -0.44086
 Alpha  occ. eigenvalues --   -0.37525  -0.36542  -0.36528  -0.35459
 Alpha virt. eigenvalues --    0.04755   0.05856   0.11130   0.12173   0.16279
 Alpha virt. eigenvalues --    0.17342   0.21253   0.22320   0.27184   0.27970
 Alpha virt. eigenvalues --    0.28407   0.29227   0.30852   0.31832   0.32368

 Mulliken charges:
               1
     1  C   -0.170011
     2  C   -0.218336
     3  C   -0.169908
     4  C    0.158831
     5  C   -0.169984
     6  C   -0.218474
     7  H    0.226590
     8  H    0.223960
     9  H    0.274299
    10  H    0.276467
    11  H    0.224542
    12  N    0.491561
    13  O   -0.456048
    14  O   -0.471519
    15  C   -0.172508
    16  C   -0.220052
    17  C   -0.172707
    18  C    0.155545
    19  C   -0.171367
    20  C   -0.221740
    21  H    0.221975
    22  H    0.219202
    23  H    0.272087
    24  H    0.292115
    25  H    0.230853
    26  N    0.487585
    27  O   -0.457607
    28  O   -0.465351
 Sum of Mulliken charges =  -0.00000

 Dipole moment (field-independent basis, Debye):
    X=             -3.6954    Y=             -5.6536    Z=             -2.5560  Tot=              7.2216
 Quadrupole moment (field-independent basis, Debye-Ang):
   XX=            -75.3327   YY=           -107.9334   ZZ=           -104.6591
   XY=            -18.0087   XZ=             11.3722   YZ=              3.0536

 Normal termination of Gaussian 16 at Thu May  6 21:07:11 2021.
