 Gaussian 16, Revision A.03,
 Gaussian 16:  EM64L-G16RevA.03 25-Dec-2016

 -------------
 #p 6-31g* mp2
 -------------

 ------------------------------------------------------
 Input file generated by CHIRIPA (05-May-2021 14:53:12)
 ------------------------------------------------------
 Symbolic Z-matrix:
 Charge =  0 Multiplicity = 1

                         Standard orientation:
 ---------------------------------------------------------------------
 Center     Atomic      Atomic             Coordinates (Angstroms)
 Number     Number       Type             X           Y           Z
 ---------------------------------------------------------------------
      1          6           0        3.902726    0.777856    0.269924
      2          6           0        3.570907    1.720236   -0.887573
      3          6           0        4.087356    3.141196   -0.659651
      4          1           0        3.473516    1.181171    1.197319
      5          1           0        4.991822    0.754470    0.413866
      6          1           0        2.482856    1.740769   -1.030185
      7          1           0        4.000794    1.314532   -1.812353
      8          1           0        5.175508    3.140896   -0.539122
      9          1           0        3.648945    3.569554    0.247490
     10          1           0        3.839195    3.798039   -1.499195
     11          6           0        3.392973   -0.646381    0.056782
     12          6           0        3.724792   -1.588762    1.214279
     13          6           0        3.208343   -3.009721    0.986357
     14          1           0        2.303878   -0.622996   -0.087160
     15          1           0        3.822183   -1.049696   -0.870613
     16          1           0        3.294905   -1.183058    2.139059
     17          1           0        4.812843   -1.609294    1.356891
     18          1           0        3.646754   -3.438080    0.079216
     19          1           0        2.120191   -3.009422    0.865828
     20          1           0        3.456504   -3.666564    1.825901
     21          6           0       -4.603765    1.219650    1.166352
     22          6           0       -3.246635    1.463644    1.401267
     23          6           0       -2.266208    0.765310    0.690182
     24          6           0       -2.680323   -0.174233   -0.252716
     25          6           0       -4.024531   -0.439757   -0.509415
     26          6           0       -4.987705    0.270402    0.213440
     27          1           0       -5.358683    1.766724    1.723311
     28          1           0       -2.945541    2.200267    2.140709
     29          1           0       -1.208562    0.934415    0.852063
     30          1           0       -4.293893   -1.180117   -1.252872
     31          1           0       -6.040936    0.078838    0.028907
     32          7           0       -1.651522   -0.919787   -1.011740
     33          8           0       -2.042347   -1.742412   -1.837077
     34          8           0       -0.473803   -0.667410   -0.766954
 ---------------------------------------------------------------------

 SCF Done:  E(RHF) =  -669.536153335     A.U. after   15 cycles
 E2 =    -0.2091105288D+01 EUMP2 =    -0.67162725862280D+03

 The electronic state is 1-A.
 Alpha  occ. eigenvalues --  -20.60991 -20.60973 -15.86031 -11.31333 -11.27900
 Alpha  occ. eigenvalues --  -11.27889 -11.27627 -11.26899 -11.26889 -11.20865
 Alpha  occ. eigenvalues --  -11.20701 -11.20597 -11.20584 -11.20152 -11.20103
 Alpha  occ. eigenvalues --   -1.60048  -1.39606  -1.19500  -1.08906  -1.07536
 Alpha  occ. eigenvalues --   -1.04895  -1.02722  -0.95751  -0.95166  -0.86296
 Alpha  occ. eigenvalues --   -0.86184  -0.82589  -0.78788  -0.77658  -0.77282
 Alpha  occ. eigenvalues --   -0.72255  -0.71363  -0.70609  -0.65160  -0.64897
 Alpha  occ. eigenvalues --   -0.64165  -0.62244  -0.60130  -0.58547  -0.56768
 Alpha  occ. eigenvalues --   -0.55398  -0.54455  -0.53226  -0.52987  -0.51907
 Alpha  occ. eigenvalues --   -0.51579  -0.49123  -0.49010  -0.48978  -0.47104
 Alpha  occ. eigenvalues --   -0.45833  -0.45029  -0.44883  -0.44667  -0.42941
 Alpha  occ. eigenvalues --   -0.37477  -0.36496
 Alpha virt. eigenvalues --    0.04885   0.11159   0.16382   0.21155   0.23547
 Alpha virt. eigenvalues --    0.25100   0.26776   0.27393   0.27929   0.28640
 Alpha virt. eigenvalues --    0.29048   0.31035   0.32146   0.32382   0.32618

 Mulliken charges:
               1
     1  C   -0.296655
     2  C   -0.300019
     3  C   -0.474936
     4  H    0.143047
     5  H    0.145856
     6  H    0.156524
     7  H    0.152788
     8  H    0.153951
     9  H    0.150748
    10  H    0.158314
    11  C   -0.311081
    12  C   -0.297869
    13  C   -0.476252
    14  H    0.178210
    15  H    0.148448
    16  H    0.146138
    17  H    0.147302
    18  H    0.155084
    19  H    0.163066
    20  H    0.154394
    21  C   -0.170570
    22  C   -0.218438
    23  C   -0.170478
    24  C    0.157399
    25  C   -0.170575
    26  C   -0.218531
    27  H    0.226180
    28  H    0.223996
    29  H    0.274878
    30  H    0.276010
    31  H    0.223988
    32  N    0.497216
    33  O   -0.458239
    34  O   -0.469894
 Sum of Mulliken charges =  -0.00000

 Dipole moment (field-independent basis, Debye):
    X=             -3.9480    Y=              2.5454    Z=              2.5423  Tot=              5.3413
 Quadrupole moment (field-independent basis, Debye-Ang):
   XX=            -73.2790   YY=            -96.6209   ZZ=            -95.4955
   XY=             -5.2386   XZ=             -5.2577   YZ=              0.6974

 Normal termination of Gaussian 16 at Wed May  5 16:57:42 2021.
