 Gaussian 16, Revision A.03,
 Gaussian 16:  EM64L-G16RevA.03 25-Dec-2016

 -------------
 #p 6-31g* mp2
 -------------

 ------------------------------------------------------
 Input file generated by CHIRIPA (05-May-2021 14:53:15)
 ------------------------------------------------------
 Symbolic Z-matrix:
 Charge =  0 Multiplicity = 1

                         Standard orientation:
 ---------------------------------------------------------------------
 Center     Atomic      Atomic             Coordinates (Angstroms)
 Number     Number       Type             X           Y           Z
 ---------------------------------------------------------------------
      1          6           0       -4.131657    0.369862   -0.432026
      2          6           0       -5.038548    1.272135    0.405493
      3          6           0       -5.783781    2.307395   -0.437513
      4          1           0       -3.407586    0.991846   -0.975901
      5          1           0       -4.737137   -0.142384   -1.192548
      6          1           0       -4.431762    1.781473    1.165099
      7          1           0       -5.760422    0.647916    0.947586
      8          1           0       -6.412935    1.814299   -1.185593
      9          1           0       -5.076726    2.954297   -0.966844
     10          1           0       -6.426219    2.941682    0.181206
     11          6           0       -3.379880   -0.670308    0.396590
     12          6           0       -2.472989   -1.572581   -0.440928
     13          6           0       -1.727756   -2.607841    0.402078
     14          1           0       -2.774400   -0.158062    1.157112
     15          1           0       -4.103951   -1.292292    0.940466
     16          1           0       -1.751115   -0.948362   -0.983021
     17          1           0       -3.079775   -2.081919   -1.200534
     18          1           0       -2.434811   -3.254743    0.931409
     19          1           0       -1.098602   -2.114745    1.150158
     20          1           0       -1.085318   -3.242128   -0.216642
     21          6           0        3.920957    2.437157    0.117636
     22          6           0        3.325032    1.878497    1.253108
     23          6           0        2.775089    0.593976    1.207134
     24          6           0        2.838798   -0.106908    0.003807
     25          6           0        3.425791    0.422408   -1.144476
     26          6           0        3.969348    1.708613   -1.075428
     27          1           0        4.345685    3.435658    0.162312
     28          1           0        3.286018    2.441984    2.181012
     29          1           0        2.307797    0.137400    2.071191
     30          1           0        3.449582   -0.163651   -2.055183
     31          1           0        4.431528    2.139951   -1.958821
     32          7           0        2.259977   -1.467664   -0.057077
     33          8           0        2.328852   -2.064588   -1.129260
     34          8           0        1.748383   -1.911537    0.968538
 ---------------------------------------------------------------------

 SCF Done:  E(RHF) =  -669.535856620     A.U. after   15 cycles
 E2 =    -0.2091270092D+01 EUMP2 =    -0.67162712671148D+03

 The electronic state is 1-A.
 Alpha  occ. eigenvalues --  -20.60921 -20.60910 -15.85945 -11.31291 -11.27857
 Alpha  occ. eigenvalues --  -11.27851 -11.27594 -11.26867 -11.26857 -11.21293
 Alpha  occ. eigenvalues --  -11.20935 -11.20854 -11.20737 -11.20637 -11.19542
 Alpha  occ. eigenvalues --   -1.59974  -1.39532  -1.19460  -1.08860  -1.07843
 Alpha  occ. eigenvalues --   -1.04860  -1.02828  -0.95703  -0.95240  -0.86269
 Alpha  occ. eigenvalues --   -0.86244  -0.82533  -0.78929  -0.77626  -0.77576
 Alpha  occ. eigenvalues --   -0.72170  -0.71294  -0.70568  -0.65116  -0.64862
 Alpha  occ. eigenvalues --   -0.64487  -0.62207  -0.60233  -0.58684  -0.56840
 Alpha  occ. eigenvalues --   -0.55363  -0.54543  -0.53190  -0.52951  -0.51891
 Alpha  occ. eigenvalues --   -0.51672  -0.49287  -0.48926  -0.48840  -0.47223
 Alpha  occ. eigenvalues --   -0.46026  -0.45193  -0.45140  -0.44742  -0.43069
 Alpha  occ. eigenvalues --   -0.37438  -0.36462
 Alpha virt. eigenvalues --    0.04923   0.11192   0.16395   0.21317   0.23370
 Alpha virt. eigenvalues --    0.25044   0.27140   0.27259   0.28003   0.28154
 Alpha virt. eigenvalues --    0.28928   0.30890   0.32028   0.32250   0.32534

 Mulliken charges:
               1
     1  C   -0.297301
     2  C   -0.298847
     3  C   -0.475194
     4  H    0.147213
     5  H    0.149223
     6  H    0.149793
     7  H    0.151910
     8  H    0.155259
     9  H    0.153589
    10  H    0.158719
    11  C   -0.297076
    12  C   -0.299547
    13  C   -0.477924
    14  H    0.146411
    15  H    0.148689
    16  H    0.147980
    17  H    0.148779
    18  H    0.146552
    19  H    0.166259
    20  H    0.171745
    21  C   -0.170684
    22  C   -0.218522
    23  C   -0.171072
    24  C    0.158332
    25  C   -0.170882
    26  C   -0.218534
    27  H    0.225996
    28  H    0.223804
    29  H    0.275466
    30  H    0.275903
    31  H    0.223846
    32  N    0.488745
    33  O   -0.459783
    34  O   -0.458849
 Sum of Mulliken charges =  -0.00000

 Dipole moment (field-independent basis, Debye):
    X=              2.3032    Y=              4.7050    Z=              0.2304  Tot=              5.2436
 Quadrupole moment (field-independent basis, Debye-Ang):
   XX=            -84.1120   YY=            -96.5031   ZZ=            -90.4307
   XY=             14.6476   XZ=             -1.0889   YZ=              0.8755

 Normal termination of Gaussian 16 at Thu May  6 07:26:23 2021.
