 Gaussian 16, Revision A.03,
 Gaussian 16:  EM64L-G16RevA.03 25-Dec-2016

 -------------
 #p 6-31g* mp2
 -------------

 ------------------------------------------------------
 Input file generated by CHIRIPA (05-May-2021 14:55:20)
 ------------------------------------------------------
 Symbolic Z-matrix:
 Charge =  0 Multiplicity = 1

                         Standard orientation:
 ---------------------------------------------------------------------
 Center     Atomic      Atomic             Coordinates (Angstroms)
 Number     Number       Type             X           Y           Z
 ---------------------------------------------------------------------
      1          6           0        0.462886   -2.358316    0.800571
      2          6           0        0.242062   -1.742520   -0.435776
      3          6           0        1.147462   -0.799362   -0.931003
      4          6           0        2.268194   -0.494394   -0.160129
      5          6           0        2.515957   -1.090737    1.075297
      6          6           0        1.597129   -2.031036    1.550839
      7          1           0       -0.245667   -3.089874    1.177629
      8          1           0       -0.637942   -1.994738   -1.020604
      9          1           0        1.000995   -0.307465   -1.884944
     10          1           0        3.402294   -0.818742    1.635514
     11          1           0        1.771190   -2.507682    2.511337
     12          7           0        3.233808    0.502572   -0.673984
     13          8           0        4.213486    0.753881    0.024380
     14          8           0        2.992695    1.013808   -1.765378
     15          6           0       -2.404202    1.306738    0.626906
     16          6           0       -1.409384    2.320235    0.060210
     17          6           0       -0.827084    3.240586    1.133371
     18          1           0       -3.218296    1.844542    1.131844
     19          1           0       -1.903680    0.703152    1.396684
     20          1           0       -1.911250    2.920805   -0.709246
     21          1           0       -0.597663    1.779962   -0.443605
     22          1           0       -0.301863    2.657842    1.897016
     23          1           0       -1.622914    3.805167    1.629865
     24          1           0       -0.118455    3.957090    0.706376
     25          6           0       -2.994962    0.379550   -0.433780
     26          6           0       -3.989781   -0.633949    0.132916
     27          6           0       -4.572079   -1.554299   -0.940246
     28          1           0       -3.495485    0.983134   -1.203558
     29          1           0       -2.180868   -0.158254   -0.938718
     30          1           0       -4.801502   -0.093674    0.636730
     31          1           0       -3.487915   -1.234518    0.902373
     32          1           0       -3.776251   -2.118880   -1.436739
     33          1           0       -5.097301   -0.971554   -1.703890
     34          1           0       -5.280710   -2.270803   -0.513250
 ---------------------------------------------------------------------

 SCF Done:  E(RHF) =  -669.535007385     A.U. after   15 cycles
 E2 =    -0.2094063538D+01 EUMP2 =    -0.67162907092334D+03

 The electronic state is 1-A.
 Alpha  occ. eigenvalues --  -20.60845 -20.60840 -15.85900 -11.31311 -11.27878
 Alpha  occ. eigenvalues --  -11.27865 -11.27619 -11.26899 -11.26888 -11.22271
 Alpha  occ. eigenvalues --  -11.21906 -11.21836 -11.21686 -11.21626 -11.21027
 Alpha  occ. eigenvalues --   -1.59919  -1.39471  -1.19487  -1.08894  -1.08817
 Alpha  occ. eigenvalues --   -1.04896  -1.03901  -0.96353  -0.95696  -0.87372
 Alpha  occ. eigenvalues --   -0.86287  -0.82534  -0.79992  -0.78637  -0.77561
 Alpha  occ. eigenvalues --   -0.72116  -0.71243  -0.70580  -0.65617  -0.65134
 Alpha  occ. eigenvalues --   -0.64823  -0.62230  -0.61299  -0.59745  -0.57944
 Alpha  occ. eigenvalues --   -0.55679  -0.55378  -0.53215  -0.53022  -0.53010
 Alpha  occ. eigenvalues --   -0.52750  -0.50311  -0.48882  -0.48869  -0.48293
 Alpha  occ. eigenvalues --   -0.47046  -0.46162  -0.46064  -0.44861  -0.44144
 Alpha  occ. eigenvalues --   -0.37447  -0.36430
 Alpha virt. eigenvalues --    0.04933   0.11027   0.16318   0.19313   0.23124
 Alpha virt. eigenvalues --    0.23499   0.25193   0.26377   0.27339   0.28335
 Alpha virt. eigenvalues --    0.29242   0.29725   0.31272   0.31513   0.32047

 Mulliken charges:
               1
     1  C   -0.173149
     2  C   -0.217138
     3  C   -0.171828
     4  C    0.158943
     5  C   -0.170923
     6  C   -0.218403
     7  H    0.226574
     8  H    0.226404
     9  H    0.276755
    10  H    0.276162
    11  H    0.224110
    12  N    0.488304
    13  O   -0.459897
    14  O   -0.460191
    15  C   -0.297730
    16  C   -0.302464
    17  C   -0.476625
    18  H    0.150346
    19  H    0.149373
    20  H    0.152594
    21  H    0.153921
    22  H    0.154503
    23  H    0.154127
    24  H    0.166033
    25  C   -0.299199
    26  C   -0.300466
    27  C   -0.475222
    28  H    0.152234
    29  H    0.141851
    30  H    0.156106
    31  H    0.146583
    32  H    0.146708
    33  H    0.159467
    34  H    0.162140
 Sum of Mulliken charges =  -0.00000

 Dipole moment (field-independent basis, Debye):
    X=             -3.3548    Y=             -3.4397    Z=              1.8452  Tot=              5.1469
 Quadrupole moment (field-independent basis, Debye-Ang):
   XX=           -108.5646   YY=            -91.8390   ZZ=            -92.6682
   XY=             -7.7253   XZ=              7.1309   YZ=             -1.6227

 Normal termination of Gaussian 16 at Thu May  6 14:09:05 2021.
