 Gaussian 16, Revision A.03,
 Gaussian 16:  EM64L-G16RevA.03 25-Dec-2016

 -------------
 #p 6-31g* mp2
 -------------

 ------------------------------------------------------
 Input file generated by CHIRIPA (05-May-2021 14:55:21)
 ------------------------------------------------------
 Symbolic Z-matrix:
 Charge =  0 Multiplicity = 1

                         Standard orientation:
 ---------------------------------------------------------------------
 Center     Atomic      Atomic             Coordinates (Angstroms)
 Number     Number       Type             X           Y           Z
 ---------------------------------------------------------------------
      1          6           0       -2.553230    0.691662    1.778080
      2          6           0       -1.567473   -0.206588    2.199922
      3          6           0       -0.959730   -1.073888    1.287241
      4          6           0       -1.363783   -1.015802   -0.045672
      5          6           0       -2.343001   -0.132061   -0.496698
      6          6           0       -2.937171    0.725998    0.433487
      7          1           0       -3.020068    1.361812    2.493872
      8          1           0       -1.267309   -0.235462    3.243528
      9          1           0       -0.194016   -1.779173    1.586698
     10          1           0       -2.621243   -0.126547   -1.543583
     11          1           0       -3.702453    1.422554    0.103036
     12          7           0       -0.727577   -1.929083   -1.021152
     13          8           0       -1.101258   -1.858263   -2.189905
     14          8           0        0.132715   -2.698438   -0.598508
     15          6           0        1.514910    1.467155   -0.713842
     16          6           0        0.419709    2.415158   -0.224135
     17          6           0       -0.301303    3.127137   -1.369132
     18          1           0        2.242218    2.034476   -1.310595
     19          1           0        1.070619    0.722055   -1.388251
     20          1           0        0.865694    3.157406    0.450240
     21          1           0       -0.304973    1.845549    0.371682
     22          1           0       -0.772480    2.400378   -2.038770
     23          1           0        0.404839    3.719688   -1.959766
     24          1           0       -1.080110    3.799811   -0.996532
     25          6           0        2.244802    0.747968    0.419187
     26          6           0        3.340002   -0.200035   -0.070519
     27          6           0        4.061015   -0.912014    1.074478
     28          1           0        2.689092    1.493069    1.093597
     29          1           0        1.517494    0.180647    1.015941
     30          1           0        4.064685    0.369574   -0.666336
     31          1           0        2.894017   -0.942283   -0.744894
     32          1           0        3.354873   -1.504565    1.665112
     33          1           0        4.532192   -0.185254    1.744115
     34          1           0        4.839821   -1.584687    0.701879
 ---------------------------------------------------------------------

 SCF Done:  E(RHF) =  -669.533487948     A.U. after   15 cycles
 E2 =    -0.2099055557D+01 EUMP2 =    -0.67163254350475D+03

 The electronic state is 1-A.
 Alpha  occ. eigenvalues --  -20.61028 -20.61020 -15.86056 -11.31402 -11.27974
 Alpha  occ. eigenvalues --  -11.27957 -11.27681 -11.26975 -11.26942 -11.21348
 Alpha  occ. eigenvalues --  -11.21165 -11.21121 -11.21101 -11.21045 -11.20720
 Alpha  occ. eigenvalues --   -1.60088  -1.39641  -1.19616  -1.08986  -1.08176
 Alpha  occ. eigenvalues --   -1.04999  -1.03270  -0.95820  -0.95778  -0.86799
 Alpha  occ. eigenvalues --   -0.86376  -0.82642  -0.79350  -0.77999  -0.77695
 Alpha  occ. eigenvalues --   -0.72273  -0.71444  -0.70688  -0.65235  -0.65028
 Alpha  occ. eigenvalues --   -0.64817  -0.62337  -0.60748  -0.59161  -0.57378
 Alpha  occ. eigenvalues --   -0.55471  -0.55109  -0.53391  -0.53062  -0.52429
 Alpha  occ. eigenvalues --   -0.52204  -0.49729  -0.49037  -0.49033  -0.47644
 Alpha  occ. eigenvalues --   -0.46359  -0.45475  -0.45353  -0.44986  -0.43534
 Alpha  occ. eigenvalues --   -0.37536  -0.36501
 Alpha virt. eigenvalues --    0.04776   0.10963   0.16243   0.20745   0.23053
 Alpha virt. eigenvalues --    0.23826   0.26355   0.26913   0.27537   0.28614
 Alpha virt. eigenvalues --    0.28875   0.30492   0.30753   0.32022   0.32253

 Mulliken charges:
               1
     1  C   -0.172207
     2  C   -0.216395
     3  C   -0.174668
     4  C    0.162372
     5  C   -0.171065
     6  C   -0.217014
     7  H    0.227143
     8  H    0.225377
     9  H    0.277167
    10  H    0.276525
    11  H    0.225270
    12  N    0.489307
    13  O   -0.459115
    14  O   -0.459884
    15  C   -0.300172
    16  C   -0.307884
    17  C   -0.474518
    18  H    0.150663
    19  H    0.150503
    20  H    0.147836
    21  H    0.162526
    22  H    0.153210
    23  H    0.156613
    24  H    0.152895
    25  C   -0.301742
    26  C   -0.303470
    27  C   -0.473877
    28  H    0.146006
    29  H    0.146471
    30  H    0.150071
    31  H    0.167154
    32  H    0.151529
    33  H    0.150912
    34  H    0.162461
 Sum of Mulliken charges =  -0.00000

 Dipole moment (field-independent basis, Debye):
    X=             -2.3975    Y=              3.0160    Z=              3.4145  Tot=              5.1481
 Quadrupole moment (field-independent basis, Debye-Ang):
   XX=            -87.3568   YY=           -101.4270   ZZ=            -93.1844
   XY=             -2.7957   XZ=             -3.1458   YZ=             -4.6573

 Normal termination of Gaussian 16 at Thu May  6 02:59:23 2021.
