 Gaussian 16, Revision A.03,
 Gaussian 16:  EM64L-G16RevA.03 25-Dec-2016

 -------------
 #p 6-31g* mp2
 -------------

 ------------------------------------------------------
 Input file generated by CHIRIPA (05-May-2021 14:53:18)
 ------------------------------------------------------
 Symbolic Z-matrix:
 Charge =  0 Multiplicity = 1

                         Standard orientation:
 ---------------------------------------------------------------------
 Center     Atomic      Atomic             Coordinates (Angstroms)
 Number     Number       Type             X           Y           Z
 ---------------------------------------------------------------------
      1          6           0        4.064924   -0.279047    0.576098
      2          6           0        4.992007   -1.283866   -0.108624
      3          6           0        5.367052   -2.455833    0.798916
      4          1           0        4.552659    0.100254    1.484498
      5          1           0        3.152779   -0.796639    0.903946
      6          1           0        5.901531   -0.764248   -0.436312
      7          1           0        4.502088   -1.660675   -1.015602
      8          1           0        4.471289   -2.999734    1.115747
      9          1           0        5.878684   -2.098214    1.698328
     10          1           0        6.030215   -3.161892    0.289451
     11          6           0        3.681081    0.898284   -0.318488
     12          6           0        2.753999    1.903102    0.366234
     13          6           0        2.378954    3.075069   -0.541306
     14          1           0        4.593227    1.415876   -0.646336
     15          1           0        3.193346    0.518983   -1.226888
     16          1           0        3.243918    2.279912    1.273213
     17          1           0        1.844475    1.383485    0.693922
     18          1           0        1.867322    2.717450   -1.440718
     19          1           0        3.274716    3.618971   -0.858136
     20          1           0        1.715791    3.781128   -0.031840
     21          6           0       -5.404097   -0.074453    0.724909
     22          6           0       -4.976905   -1.222131    0.048991
     23          6           0       -3.661422   -1.325817   -0.412855
     24          6           0       -2.795857   -0.258077   -0.180439
     25          6           0       -3.191522    0.898456    0.489763
     26          6           0       -4.511616    0.980318    0.942753
     27          1           0       -6.427787   -0.002383    1.080242
     28          1           0       -5.667832   -2.042837   -0.121612
     29          1           0       -3.304272   -2.202775   -0.938978
     30          1           0       -2.479737    1.700161    0.644848
     31          1           0       -4.840608    1.872829    1.467380
     32          7           0       -1.400773   -0.356292   -0.664687
     33          8           0       -0.657657    0.598249   -0.447280
     34          8           0       -1.076840   -1.385955   -1.252478
 ---------------------------------------------------------------------

 SCF Done:  E(RHF) =  -669.536330115     A.U. after   15 cycles
 E2 =    -0.2091080256D+01 EUMP2 =    -0.67162741037135D+03

 The electronic state is 1-A.
 Alpha  occ. eigenvalues --  -20.61026 -20.61021 -15.86056 -11.31342 -11.27902
 Alpha  occ. eigenvalues --  -11.27898 -11.27634 -11.26902 -11.26892 -11.20604
 Alpha  occ. eigenvalues --  -11.20254 -11.20211 -11.20069 -11.19989 -11.19732
 Alpha  occ. eigenvalues --   -1.60087  -1.39643  -1.19508  -1.08920  -1.07177
 Alpha  occ. eigenvalues --   -1.04899  -1.02319  -0.95767  -0.94808  -0.86301
 Alpha  occ. eigenvalues --   -0.85833  -0.82602  -0.78414  -0.77659  -0.76975
 Alpha  occ. eigenvalues --   -0.72286  -0.71398  -0.70617  -0.65167  -0.64903
 Alpha  occ. eigenvalues --   -0.63773  -0.62246  -0.59677  -0.58206  -0.56425
 Alpha  occ. eigenvalues --   -0.55405  -0.54076  -0.53233  -0.52990  -0.51547
 Alpha  occ. eigenvalues --   -0.51246  -0.49050  -0.49034  -0.48730  -0.46739
 Alpha  occ. eigenvalues --   -0.45469  -0.45048  -0.44529  -0.44324  -0.42584
 Alpha  occ. eigenvalues --   -0.37485  -0.36499
 Alpha virt. eigenvalues --    0.04850   0.11157   0.16339   0.21271   0.24106
 Alpha virt. eigenvalues --    0.25414   0.27212   0.27805   0.28265   0.28810
 Alpha virt. eigenvalues --    0.29106   0.30871   0.32286   0.32639   0.32966

 Mulliken charges:
               1
     1  C   -0.298142
     2  C   -0.299315
     3  C   -0.475138
     4  H    0.144303
     5  H    0.153877
     6  H    0.148686
     7  H    0.154851
     8  H    0.155329
     9  H    0.152366
    10  H    0.157298
    11  C   -0.298070
    12  C   -0.303458
    13  C   -0.473738
    14  H    0.142591
    15  H    0.158253
    16  H    0.141600
    17  H    0.171650
    18  H    0.163715
    19  H    0.147329
    20  H    0.152238
    21  C   -0.170477
    22  C   -0.218599
    23  C   -0.170561
    24  C    0.157532
    25  C   -0.170680
    26  C   -0.218553
    27  H    0.226196
    28  H    0.223970
    29  H    0.275868
    30  H    0.276057
    31  H    0.224081
    32  N    0.491834
    33  O   -0.463654
    34  O   -0.459242
 Sum of Mulliken charges =  -0.00000

 Dipole moment (field-independent basis, Debye):
    X=             -5.3106    Y=              0.2280    Z=              1.6205  Tot=              5.5570
 Quadrupole moment (field-independent basis, Debye-Ang):
   XX=            -68.5374   YY=            -92.2616   ZZ=            -95.7023
   XY=              1.7189   XZ=             -3.9027   YZ=              2.1597

 Normal termination of Gaussian 16 at Thu May  6 13:59:04 2021.
