 Gaussian 16, Revision A.03,
 Gaussian 16:  EM64L-G16RevA.03 25-Dec-2016

 -------------
 #p 6-31g* mp2
 -------------

 ------------------------------------------------------
 Input file generated by CHIRIPA (05-May-2021 14:53:12)
 ------------------------------------------------------
 Symbolic Z-matrix:
 Charge =  0 Multiplicity = 1

                         Standard orientation:
 ---------------------------------------------------------------------
 Center     Atomic      Atomic             Coordinates (Angstroms)
 Number     Number       Type             X           Y           Z
 ---------------------------------------------------------------------
      1          6           0        3.320515    0.868752    0.440546
      2          6           0        2.584022    1.896504   -0.419273
      3          6           0        1.437066    2.578529    0.327138
      4          1           0        2.605206    0.110759    0.788003
      5          1           0        3.710919    1.365466    1.339575
      6          1           0        2.196312    1.398284   -1.317089
      7          1           0        3.301203    2.652032   -0.764882
      8          1           0        1.811037    3.100848    1.213664
      9          1           0        0.699868    1.839977    0.658319
     10          1           0        0.924333    3.309283   -0.306079
     11          6           0        4.469833    0.178424   -0.291741
     12          6           0        5.206325   -0.849328    0.568078
     13          6           0        6.353281   -1.531353   -0.178333
     14          1           0        4.079428   -0.318290   -1.190770
     15          1           0        5.185141    0.936417   -0.639198
     16          1           0        4.489144   -1.604856    0.913687
     17          1           0        5.594035   -0.351108    1.465894
     18          1           0        7.090479   -0.792801   -0.509514
     19          1           0        5.979311   -2.053672   -1.064859
     20          1           0        6.866014   -2.262107    0.454885
     21          6           0       -5.278871    0.742305    0.145946
     22          6           0       -5.188010   -0.644018    0.308351
     23          6           0       -3.954451   -1.292540    0.197448
     24          6           0       -2.826959   -0.520362   -0.077856
     25          6           0       -2.885104    0.862386   -0.244938
     26          6           0       -4.129155    1.489765   -0.129694
     27          1           0       -6.241204    1.237880    0.233785
     28          1           0       -6.079229   -1.227044    0.522479
     29          1           0       -3.855537   -2.364442    0.318521
     30          1           0       -1.979151    1.416809   -0.457734
     31          1           0       -4.196723    2.566541   -0.256308
     32          7           0       -1.515492   -1.195732   -0.197562
     33          8           0       -0.536978   -0.492844   -0.440662
     34          8           0       -1.490909   -2.415186   -0.046023
 ---------------------------------------------------------------------

 SCF Done:  E(RHF) =  -669.536490072     A.U. after   15 cycles
 E2 =    -0.2091466567D+01 EUMP2 =    -0.67162795663895D+03

 The electronic state is 1-A.
 Alpha  occ. eigenvalues --  -20.61006 -20.60992 -15.86029 -11.31299 -11.27863
 Alpha  occ. eigenvalues --  -11.27841 -11.27593 -11.26861 -11.26846 -11.20741
 Alpha  occ. eigenvalues --  -11.20614 -11.20423 -11.20342 -11.20281 -11.20263
 Alpha  occ. eigenvalues --   -1.60061  -1.39618  -1.19466  -1.08881  -1.07452
 Alpha  occ. eigenvalues --   -1.04854  -1.02641  -0.95732  -0.95116  -0.86261
 Alpha  occ. eigenvalues --   -0.86145  -0.82566  -0.78722  -0.77626  -0.77258
 Alpha  occ. eigenvalues --   -0.72263  -0.71370  -0.70575  -0.65129  -0.64859
 Alpha  occ. eigenvalues --   -0.64040  -0.62204  -0.59999  -0.58504  -0.56739
 Alpha  occ. eigenvalues --   -0.55364  -0.54383  -0.53190  -0.52945  -0.51872
 Alpha  occ. eigenvalues --   -0.51560  -0.49223  -0.49003  -0.48817  -0.47048
 Alpha  occ. eigenvalues --   -0.45742  -0.45066  -0.44806  -0.44613  -0.42895
 Alpha  occ. eigenvalues --   -0.37446  -0.36453
 Alpha virt. eigenvalues --    0.04867   0.11188   0.16359   0.21027   0.23713
 Alpha virt. eigenvalues --    0.24639   0.26921   0.27537   0.27997   0.28537
 Alpha virt. eigenvalues --    0.29266   0.31017   0.31793   0.32470   0.32608

 Mulliken charges:
               1
     1  C   -0.301588
     2  C   -0.295786
     3  C   -0.484001
     4  H    0.164614
     5  H    0.143162
     6  H    0.160093
     7  H    0.145365
     8  H    0.150016
     9  H    0.169570
    10  H    0.148961
    11  C   -0.298259
    12  C   -0.299843
    13  C   -0.475328
    14  H    0.153283
    15  H    0.144964
    16  H    0.155950
    17  H    0.148765
    18  H    0.152648
    19  H    0.155930
    20  H    0.158026
    21  C   -0.170331
    22  C   -0.218727
    23  C   -0.170630
    24  C    0.157224
    25  C   -0.172555
    26  C   -0.219219
    27  H    0.226055
    28  H    0.223798
    29  H    0.275676
    30  H    0.279951
    31  H    0.224352
    32  N    0.490855
    33  O   -0.464229
    34  O   -0.458762
 Sum of Mulliken charges =  -0.00000

 Dipole moment (field-independent basis, Debye):
    X=             -4.8784    Y=              2.1665    Z=              0.3960  Tot=              5.3525
 Quadrupole moment (field-independent basis, Debye-Ang):
   XX=            -69.3336   YY=            -94.0086   ZZ=            -95.6830
   XY=             -1.7020   XZ=             -0.9039   YZ=             -1.3895

 Normal termination of Gaussian 16 at Thu May  6 13:41:16 2021.
