 Gaussian 16, Revision A.03,
 Gaussian 16:  EM64L-G16RevA.03 25-Dec-2016

 -------------
 #p 6-31g* mp2
 -------------

 ------------------------------------------------------
 Input file generated by CHIRIPA (05-May-2021 14:51:13)
 ------------------------------------------------------
 Symbolic Z-matrix:
 Charge =  0 Multiplicity = 1

                         Standard orientation:
 ---------------------------------------------------------------------
 Center     Atomic      Atomic             Coordinates (Angstroms)
 Number     Number       Type             X           Y           Z
 ---------------------------------------------------------------------
      1          6           0        4.419047    0.275540   -0.338632
      2          6           0        5.169411    1.338119    0.465024
      3          6           0        6.265398    2.028963   -0.346973
      4          1           0        5.135421   -0.473776   -0.702336
      5          1           0        3.977088    0.743533   -1.229165
      6          1           0        5.608659    0.868535    1.354500
      7          1           0        4.451141    2.084889    0.827019
      8          1           0        5.839820    2.523190   -1.226305
      9          1           0        7.003914    1.299925   -0.695827
     10          1           0        6.788993    2.784718    0.246781
     11          6           0        3.320258   -0.423966    0.459541
     12          6           0        2.569894   -1.486546   -0.344115
     13          6           0        1.473907   -2.177390    0.467883
     14          1           0        3.762217   -0.891959    1.350075
     15          1           0        2.603884    0.325349    0.823246
     16          1           0        3.288163   -2.233316   -0.706110
     17          1           0        2.130646   -1.016962   -1.233591
     18          1           0        0.735391   -1.448352    0.816736
     19          1           0        1.899485   -2.671617    1.347214
     20          1           0        0.950312   -2.933144   -0.125872
     21          6           0       -4.385590    0.549615    0.241593
     22          6           0       -4.344900    1.952934   -0.364233
     23          6           0       -5.382910    2.892445    0.250298
     24          1           0       -5.390620    0.127346    0.105393
     25          1           0       -4.220768    0.620876    1.325636
     26          1           0       -4.508374    1.878919   -1.447014
     27          1           0       -3.339796    2.371837   -0.226743
     28          1           0       -5.218799    2.995931    1.327775
     29          1           0       -6.394016    2.500212    0.100572
     30          1           0       -5.336294    3.890098   -0.197337
     31          6           0       -3.353714   -0.401188   -0.362502
     32          6           0       -3.394405   -1.804507    0.243323
     33          6           0       -2.356395   -2.744019   -0.371206
     34          1           0       -3.518537   -0.472449   -1.446546
     35          1           0       -2.348685    0.021081   -0.226301
     36          1           0       -4.399508   -2.223410    0.105835
     37          1           0       -3.230931   -1.730492    1.326104
     38          1           0       -1.345289   -2.351786   -0.221482
     39          1           0       -2.520506   -2.847504   -1.448685
     40          1           0       -2.403010   -3.741672    0.076428
 ---------------------------------------------------------------------

 SCF Done:  E(RHF) =  -470.732587902     A.U. after   11 cycles
 E2 =    -0.1582745170D+01 EUMP2 =    -0.47231533307203D+03

 The electronic state is 1-A.
 Alpha  occ. eigenvalues --  -11.21634 -11.21620 -11.21597 -11.21529 -11.21433
 Alpha  occ. eigenvalues --  -11.21384 -11.21372 -11.21324 -11.21105 -11.21085
 Alpha  occ. eigenvalues --  -11.21068 -11.20874  -1.08460  -1.08396  -1.03575
 Alpha  occ. eigenvalues --   -1.03471  -0.96056  -0.95895  -0.87108  -0.86884
 Alpha  occ. eigenvalues --   -0.79683  -0.79498  -0.78274  -0.78209  -0.65114
 Alpha  occ. eigenvalues --   -0.65013  -0.61076  -0.60807  -0.59401  -0.59298
 Alpha  occ. eigenvalues --   -0.57657  -0.57515  -0.55483  -0.55077  -0.52853
 Alpha  occ. eigenvalues --   -0.52597  -0.52441  -0.52238  -0.50112  -0.49686
 Alpha  occ. eigenvalues --   -0.47947  -0.47847  -0.46744  -0.46476  -0.45826
 Alpha  occ. eigenvalues --   -0.45762  -0.45720  -0.45647  -0.43791  -0.43719
 Alpha virt. eigenvalues --    0.21830   0.23054   0.23680   0.24828   0.26309
 Alpha virt. eigenvalues --    0.26817   0.27180   0.27405   0.27742   0.29086
 Alpha virt. eigenvalues --    0.30546   0.31205   0.31725   0.31822   0.32250

 Mulliken charges:
               1
     1  C   -0.298340
     2  C   -0.299660
     3  C   -0.475726
     4  H    0.149783
     5  H    0.149642
     6  H    0.151956
     7  H    0.151878
     8  H    0.155235
     9  H    0.155234
    10  H    0.160301
    11  C   -0.298610
    12  C   -0.300009
    13  C   -0.480416
    14  H    0.149660
    15  H    0.149489
    16  H    0.152356
    17  H    0.152470
    18  H    0.155008
    19  H    0.155844
    20  H    0.165532
    21  C   -0.298244
    22  C   -0.299566
    23  C   -0.475683
    24  H    0.149769
    25  H    0.149444
    26  H    0.151900
    27  H    0.151565
    28  H    0.155162
    29  H    0.155237
    30  H    0.160158
    31  C   -0.298255
    32  C   -0.299161
    33  C   -0.484945
    34  H    0.149480
    35  H    0.148603
    36  H    0.151422
    37  H    0.151509
    38  H    0.167134
    39  H    0.153658
    40  H    0.159187
 Sum of Mulliken charges =  -0.00000

 Dipole moment (field-independent basis, Debye):
    X=              0.0613    Y=             -0.0139    Z=              0.0030  Tot=              0.0629
 Quadrupole moment (field-independent basis, Debye-Ang):
   XX=            -85.1633   YY=            -85.1968   ZZ=            -84.5366
   XY=             -0.3572   XZ=              1.2884   YZ=             -0.0416

 Normal termination of Gaussian 16 at Thu May  6 05:33:51 2021.
