 Gaussian 16, Revision A.03,
 Gaussian 16:  EM64L-G16RevA.03 25-Dec-2016

 -------------
 #p 6-31g* mp2
 -------------

 ------------------------------------------------------
 Input file generated by CHIRIPA (05-May-2021 14:57:25)
 ------------------------------------------------------
 Symbolic Z-matrix:
 Charge =  0 Multiplicity = 1

                         Standard orientation:
 ---------------------------------------------------------------------
 Center     Atomic      Atomic             Coordinates (Angstroms)
 Number     Number       Type             X           Y           Z
 ---------------------------------------------------------------------
      1          6           0        2.869847    2.510114    0.177959
      2          6           0        1.736416    1.690537    0.165746
      3          6           0        1.857175    0.315037   -0.053263
      4          6           0        3.132391   -0.209774   -0.257436
      5          6           0        4.280653    0.580635   -0.251072
      6          6           0        4.136115    1.953529   -0.030122
      7          1           0        2.766803    3.577624    0.348844
      8          1           0        0.751758    2.120039    0.327054
      9          1           0        0.996473   -0.342533   -0.067838
     10          1           0        5.248953    0.123512   -0.414934
     11          1           0        5.018109    2.587604   -0.021175
     12          7           0        3.272820   -1.664575   -0.490318
     13          8           0        4.407479   -2.102472   -0.667610
     14          8           0        2.245570   -2.339403   -0.491150
     15          6           0       -1.649662   -0.486572    2.225811
     16          6           0       -2.432887   -1.510224    1.682474
     17          6           0       -3.245371   -1.268640    0.570692
     18          6           0       -3.250355    0.014145    0.025048
     19          6           0       -2.481314    1.054805    0.543597
     20          6           0       -1.676327    0.790425    1.655643
     21          1           0       -1.021417   -0.683095    3.089572
     22          1           0       -2.414174   -2.502925    2.123199
     23          1           0       -3.861694   -2.042789    0.129949
     24          1           0       -2.521002    2.034164    0.082403
     25          1           0       -1.069110    1.587327    2.075499
     26          7           0       -4.106525    0.281967   -1.152084
     27          8           0       -4.093157    1.420726   -1.614344
     28          8           0       -4.774748   -0.651947   -1.590173
 ---------------------------------------------------------------------

 SCF Done:  E(RHF) =  -868.337529323     A.U. after   16 cycles
 E2 =    -0.2601083191D+01 EUMP2 =    -0.87093861251374D+03

 The electronic state is 1-A.
 Alpha  occ. eigenvalues --  -20.61157 -20.61138 -20.61094 -20.61082 -15.86211
 Alpha  occ. eigenvalues --  -15.86146 -11.31719 -11.31523 -11.28411 -11.28238
 Alpha  occ. eigenvalues --  -11.28111 -11.28076 -11.28055 -11.27888 -11.27461
 Alpha  occ. eigenvalues --  -11.27235 -11.27156 -11.27114  -1.60223  -1.60167
 Alpha  occ. eigenvalues --   -1.39773  -1.39719  -1.19925  -1.19715  -1.09274
 Alpha  occ. eigenvalues --   -1.09114  -1.05374  -1.05104  -0.96079  -0.95937
 Alpha  occ. eigenvalues --   -0.86731  -0.86522  -0.82944  -0.82746  -0.77993
 Alpha  occ. eigenvalues --   -0.77769  -0.72424  -0.72364  -0.71549  -0.71492
 Alpha  occ. eigenvalues --   -0.70979  -0.70820  -0.65577  -0.65473  -0.65358
 Alpha  occ. eigenvalues --   -0.65040  -0.62776  -0.62369  -0.55792  -0.55642
 Alpha  occ. eigenvalues --   -0.53651  -0.53537  -0.53416  -0.53121  -0.49196
 Alpha  occ. eigenvalues --   -0.49171  -0.49124  -0.49115  -0.45147  -0.45122
 Alpha  occ. eigenvalues --   -0.37906  -0.37715  -0.36987  -0.36673
 Alpha virt. eigenvalues --    0.04543   0.04747   0.10649   0.10895   0.15896
 Alpha virt. eigenvalues --    0.16182   0.19668   0.21864   0.25303   0.27793
 Alpha virt. eigenvalues --    0.27849   0.28356   0.30089   0.31558   0.32016

 Mulliken charges:
               1
     1  C   -0.170593
     2  C   -0.221717
     3  C   -0.174472
     4  C    0.158479
     5  C   -0.170132
     6  C   -0.218762
     7  H    0.225804
     8  H    0.217154
     9  H    0.279629
    10  H    0.276596
    11  H    0.224625
    12  N    0.488048
    13  O   -0.459434
    14  O   -0.460967
    15  C   -0.172167
    16  C   -0.216008
    17  C   -0.168058
    18  C    0.159296
    19  C   -0.174992
    20  C   -0.226765
    21  H    0.230515
    22  H    0.229958
    23  H    0.279782
    24  H    0.273771
    25  H    0.219836
    26  N    0.488305
    27  O   -0.461022
    28  O   -0.456705
 Sum of Mulliken charges =  -0.00000

 Dipole moment (field-independent basis, Debye):
    X=              2.3663    Y=              3.9082    Z=              4.9808  Tot=              6.7588
 Quadrupole moment (field-independent basis, Debye-Ang):
   XX=           -121.8488   YY=           -103.0105   ZZ=           -106.3187
   XY=             22.3572   XZ=            -11.4051   YZ=             -1.8980

 Normal termination of Gaussian 16 at Wed May  5 22:46:09 2021.
