 Gaussian 16, Revision A.03,
 Gaussian 16:  EM64L-G16RevA.03 25-Dec-2016

 -------------
 #p 6-31g* mp2
 -------------

 ------------------------------------------------------
 Input file generated by CHIRIPA (05-May-2021 14:57:25)
 ------------------------------------------------------
 Symbolic Z-matrix:
 Charge =  0 Multiplicity = 1

                         Standard orientation:
 ---------------------------------------------------------------------
 Center     Atomic      Atomic             Coordinates (Angstroms)
 Number     Number       Type             X           Y           Z
 ---------------------------------------------------------------------
      1          6           0        1.995187   -2.260697    0.793710
      2          6           0        1.717843   -1.648376   -0.432938
      3          6           0        2.337804   -0.444897   -0.781985
      4          6           0        3.233832    0.121105    0.123589
      5          6           0        3.530906   -0.464628    1.353204
      6          6           0        2.899239   -1.667914    1.681301
      7          1           0        1.509040   -3.195514    1.056721
      8          1           0        1.016179   -2.106464   -1.124218
      9          1           0        2.141403    0.050616   -1.725019
     10          1           0        4.234941    0.015994    2.021601
     11          1           0        3.116547   -2.141200    2.634623
     12          7           0        3.896353    1.395073   -0.234842
     13          8           0        4.681887    1.873479    0.580450
     14          8           0        3.617558    1.891080   -1.324286
     15          6           0       -4.517041    1.550290    1.331065
     16          6           0       -3.681967    2.131583    0.371236
     17          6           0       -2.906012    1.331604   -0.472847
     18          6           0       -2.990028   -0.052426   -0.329004
     19          6           0       -3.812441   -0.661453    0.617575
     20          6           0       -4.579502    0.158081    1.450959
     21          1           0       -5.116367    2.179328    1.982612
     22          1           0       -3.631444    3.212507    0.275868
     23          1           0       -2.251063    1.755267   -1.224493
     24          1           0       -3.841575   -1.741956    0.688875
     25          1           0       -5.227145   -0.296122    2.195476
     26          7           0       -2.173268   -0.909679   -1.216933
     27          8           0       -2.265210   -2.126492   -1.070140
     28          8           0       -1.456613   -0.348548   -2.042873
 ---------------------------------------------------------------------

 SCF Done:  E(RHF) =  -868.340995658     A.U. after   16 cycles
 E2 =    -0.2599018583D+01 EUMP2 =    -0.87094001424028D+03

 The electronic state is 1-A.
 Alpha  occ. eigenvalues --  -20.61682 -20.61668 -20.60198 -20.60187 -15.86677
 Alpha  occ. eigenvalues --  -15.85237 -11.31708 -11.30404 -11.28262 -11.28204
 Alpha  occ. eigenvalues --  -11.27921 -11.27196 -11.27145 -11.27010 -11.26804
 Alpha  occ. eigenvalues --  -11.26617 -11.26012 -11.25662  -1.60734  -1.59276
 Alpha  occ. eigenvalues --   -1.40293  -1.38833  -1.19850  -1.18546  -1.09310
 Alpha  occ. eigenvalues --   -1.07980  -1.05200  -1.03881  -0.96200  -0.94848
 Alpha  occ. eigenvalues --   -0.86615  -0.85292  -0.83044  -0.81661  -0.78127
 Alpha  occ. eigenvalues --   -0.76736  -0.72909  -0.72027  -0.71459  -0.70955
 Alpha  occ. eigenvalues --   -0.70600  -0.69644  -0.65506  -0.65201  -0.64175
 Alpha  occ. eigenvalues --   -0.63832  -0.62549  -0.61196  -0.55718  -0.54404
 Alpha  occ. eigenvalues --   -0.53548  -0.53286  -0.52280  -0.51932  -0.49681
 Alpha  occ. eigenvalues --   -0.49640  -0.48225  -0.48195  -0.45773  -0.44282
 Alpha  occ. eigenvalues --   -0.37811  -0.36786  -0.36551  -0.35489
 Alpha virt. eigenvalues --    0.04345   0.05743   0.10873   0.12137   0.15906
 Alpha virt. eigenvalues --    0.17281   0.21040   0.22461   0.26986   0.27847
 Alpha virt. eigenvalues --    0.28578   0.29172   0.30662   0.32041   0.32127

 Mulliken charges:
               1
     1  C   -0.173415
     2  C   -0.227714
     3  C   -0.172614
     4  C    0.156826
     5  C   -0.173643
     6  C   -0.219437
     7  H    0.225837
     8  H    0.246181
     9  H    0.280794
    10  H    0.271772
    11  H    0.219232
    12  N    0.487864
    13  O   -0.464148
    14  O   -0.461090
    15  C   -0.169570
    16  C   -0.218528
    17  C   -0.169678
    18  C    0.158714
    19  C   -0.171013
    20  C   -0.218722
    21  H    0.227862
    22  H    0.227050
    23  H    0.278384
    24  H    0.274100
    25  H    0.224415
    26  N    0.489372
    27  O   -0.465679
    28  O   -0.463151
 Sum of Mulliken charges =  -0.00000

 Dipole moment (field-independent basis, Debye):
    X=             -5.6237    Y=             -1.4177    Z=              4.2554  Tot=              7.1934
 Quadrupole moment (field-independent basis, Debye-Ang):
   XX=           -102.5221   YY=           -103.6017   ZZ=           -102.6110
   XY=            -22.7615   XZ=             -3.9660   YZ=             -3.4900

 Normal termination of Gaussian 16 at Fri May  7 06:35:51 2021.
