 Gaussian 16, Revision A.03,
 Gaussian 16:  EM64L-G16RevA.03 25-Dec-2016

 -------------
 #p 6-31g* mp2
 -------------

 ------------------------------------------------------
 Input file generated by CHIRIPA (05-May-2021 14:53:14)
 ------------------------------------------------------
 Symbolic Z-matrix:
 Charge =  0 Multiplicity = 1

                         Standard orientation:
 ---------------------------------------------------------------------
 Center     Atomic      Atomic             Coordinates (Angstroms)
 Number     Number       Type             X           Y           Z
 ---------------------------------------------------------------------
      1          6           0       -3.116356   -0.990620    0.132280
      2          6           0       -1.682752   -0.824128   -0.372740
      3          6           0       -0.802503   -2.035360   -0.063110
      4          1           0       -3.098373   -1.164961    1.216820
      5          1           0       -3.555492   -1.889809   -0.321607
      6          1           0       -1.246918    0.075249    0.080896
      7          1           0       -1.704162   -0.649973   -1.456173
      8          1           0       -1.211222   -2.937809   -0.529088
      9          1           0       -0.751380   -2.208467    1.016715
     10          1           0        0.218001   -1.895035   -0.432895
     11          6           0       -4.008575    0.212063   -0.169756
     12          6           0       -5.442179    0.045571    0.335264
     13          6           0       -6.322428    1.256803    0.025633
     14          1           0       -3.569439    1.111252    0.284131
     15          1           0       -4.026558    0.386404   -1.254296
     16          1           0       -5.420769   -0.128584    1.418697
     17          1           0       -5.878013   -0.853806   -0.118372
     18          1           0       -6.373551    1.429910   -1.054191
     19          1           0       -5.913709    2.159252    0.491611
     20          1           0       -7.342932    1.116477    0.395419
     21          6           0        3.061608   -2.202988    0.067418
     22          6           0        3.078577   -1.471549    1.259572
     23          6           0        2.925235   -0.082040    1.242286
     24          6           0        2.756258    0.546503    0.009536
     25          6           0        2.734936   -0.154488   -1.195223
     26          6           0        2.890144   -1.543287   -1.154021
     27          1           0        3.181453   -3.282116    0.090135
     28          1           0        3.211566   -1.981225    2.209618
     29          1           0        2.934474    0.508710    2.150222
     30          1           0        2.600555    0.381586   -2.126881
     31          1           0        2.876558   -2.108764   -2.081435
     32          7           0        2.592935    2.017137   -0.021423
     33          8           0        2.445594    2.547241   -1.120476
     34          8           0        2.615354    2.611869    1.053951
 ---------------------------------------------------------------------

 SCF Done:  E(RHF) =  -669.534617071     A.U. after   15 cycles
 E2 =    -0.2093139386D+01 EUMP2 =    -0.67162775645695D+03

 The electronic state is 1-A.
 Alpha  occ. eigenvalues --  -20.60829 -20.60824 -15.85885 -11.31286 -11.27856
 Alpha  occ. eigenvalues --  -11.27847 -11.27564 -11.26848 -11.26830 -11.21567
 Alpha  occ. eigenvalues --  -11.21503 -11.21342 -11.21241 -11.21001 -11.20939
 Alpha  occ. eigenvalues --   -1.59905  -1.39457  -1.19464  -1.08848  -1.08354
 Alpha  occ. eigenvalues --   -1.04864  -1.03464  -0.95920  -0.95669  -0.86943
 Alpha  occ. eigenvalues --   -0.86252  -0.82499  -0.79536  -0.78165  -0.77545
 Alpha  occ. eigenvalues --   -0.72100  -0.71229  -0.70547  -0.65103  -0.64989
 Alpha  occ. eigenvalues --   -0.64853  -0.62200  -0.60869  -0.59380  -0.57592
 Alpha  occ. eigenvalues --   -0.55345  -0.55219  -0.53632  -0.52942  -0.52430
 Alpha  occ. eigenvalues --   -0.51987  -0.49863  -0.48863  -0.48854  -0.47841
 Alpha  occ. eigenvalues --   -0.46571  -0.45710  -0.45632  -0.44856  -0.43727
 Alpha  occ. eigenvalues --   -0.37359  -0.36436
 Alpha virt. eigenvalues --    0.04979   0.11152   0.16451   0.21334   0.22925
 Alpha virt. eigenvalues --    0.24388   0.26699   0.27229   0.27549   0.28057
 Alpha virt. eigenvalues --    0.28324   0.30908   0.31406   0.31974   0.32344

 Mulliken charges:
               1
     1  C   -0.297988
     2  C   -0.298470
     3  C   -0.485095
     4  H    0.148772
     5  H    0.147875
     6  H    0.154052
     7  H    0.150668
     8  H    0.150047
     9  H    0.151345
    10  H    0.170038
    11  C   -0.298795
    12  C   -0.299556
    13  C   -0.475807
    14  H    0.152475
    15  H    0.149844
    16  H    0.151482
    17  H    0.150736
    18  H    0.155311
    19  H    0.156693
    20  H    0.159639
    21  C   -0.168695
    22  C   -0.215696
    23  C   -0.170949
    24  C    0.159921
    25  C   -0.169355
    26  C   -0.223921
    27  H    0.226842
    28  H    0.224042
    29  H    0.275991
    30  H    0.276317
    31  H    0.224615
    32  N    0.487911
    33  O   -0.459896
    34  O   -0.460394
 Sum of Mulliken charges =  -0.00000

 Dipole moment (field-independent basis, Debye):
    X=              0.7180    Y=             -5.1205    Z=              0.1145  Tot=              5.1719
 Quadrupole moment (field-independent basis, Debye-Ang):
   XX=            -92.8405   YY=           -101.7065   ZZ=            -88.9632
   XY=            -13.7975   XZ=              0.8985   YZ=              0.6760

 Normal termination of Gaussian 16 at Wed May  5 15:34:32 2021.
