 Gaussian 16, Revision A.03,
 Gaussian 16:  EM64L-G16RevA.03 25-Dec-2016

 -------------
 #p 6-31g* mp2
 -------------

 ------------------------------------------------------
 Input file generated by CHIRIPA (05-May-2021 14:51:08)
 ------------------------------------------------------
 Symbolic Z-matrix:
 Charge =  0 Multiplicity = 1

                         Standard orientation:
 ---------------------------------------------------------------------
 Center     Atomic      Atomic             Coordinates (Angstroms)
 Number     Number       Type             X           Y           Z
 ---------------------------------------------------------------------
      1          6           0        2.494122   -0.161433    0.499791
      2          6           0        3.323434   -1.408527    0.191599
      3          6           0        2.860956   -2.635300    0.978324
      4          1           0        2.547892    0.050030    1.576516
      5          1           0        1.438522   -0.366518    0.273863
      6          1           0        4.377349   -1.200699    0.416733
      7          1           0        3.267838   -1.616935   -0.884548
      8          1           0        1.817136   -2.870542    0.746588
      9          1           0        2.932951   -2.451941    2.055263
     10          1           0        3.467431   -3.515382    0.742734
     11          6           0        2.944380    1.073238   -0.279042
     12          6           0        2.115068    2.320332    0.029150
     13          6           0        2.577546    3.547105   -0.757576
     14          1           0        3.999980    1.278323   -0.053114
     15          1           0        2.890610    0.861775   -1.355768
     16          1           0        2.170664    2.528740    1.105297
     17          1           0        1.061153    2.112504   -0.195985
     18          1           0        2.505551    3.363746   -1.834514
     19          1           0        3.621366    3.782347   -0.525839
     20          1           0        1.971071    4.427187   -0.521985
     21          6           0       -2.709213   -1.206835   -0.249769
     22          6           0       -1.318793   -1.740842   -0.595531
     23          6           0       -1.314957   -3.244659   -0.871783
     24          1           0       -3.093112   -1.743431    0.628656
     25          1           0       -3.396454   -1.430272   -1.077520
     26          1           0       -0.634058   -1.515242    0.232031
     27          1           0       -0.938080   -1.202780   -1.473120
     28          1           0       -1.975787   -3.483817   -1.711252
     29          1           0       -1.670038   -3.798054    0.003587
     30          1           0       -0.311081   -3.605264   -1.116850
     31          6           0       -2.729289    0.295030    0.029020
     32          6           0       -4.119709    0.829037    0.374782
     33          6           0       -4.123545    2.332854    0.651034
     34          1           0       -2.042048    0.518468    0.856771
     35          1           0       -2.345391    0.831626   -0.849405
     36          1           0       -4.500422    0.290975    1.252371
     37          1           0       -4.804445    0.603436   -0.452780
     38          1           0       -3.768465    2.886249   -0.224336
     39          1           0       -3.462715    2.572013    1.490503
     40          1           0       -5.127421    2.693459    0.896101
 ---------------------------------------------------------------------

 SCF Done:  E(RHF) =  -470.733164963     A.U. after   11 cycles
 E2 =    -0.1583732384D+01 EUMP2 =    -0.47231689734650D+03

 The electronic state is 1-A.
 Alpha  occ. eigenvalues --  -11.21680 -11.21640 -11.21561 -11.21553 -11.21466
 Alpha  occ. eigenvalues --  -11.21406 -11.21339 -11.21262 -11.21148 -11.21094
 Alpha  occ. eigenvalues --  -11.21046 -11.21039  -1.08500  -1.08374  -1.03600
 Alpha  occ. eigenvalues --   -1.03483  -0.96038  -0.95938  -0.87060  -0.86949
 Alpha  occ. eigenvalues --   -0.79695  -0.79532  -0.78396  -0.78109  -0.65175
 Alpha  occ. eigenvalues --   -0.64973  -0.61063  -0.60839  -0.59425  -0.59277
 Alpha  occ. eigenvalues --   -0.57652  -0.57545  -0.55335  -0.55222  -0.52733
 Alpha  occ. eigenvalues --   -0.52638  -0.52503  -0.52327  -0.49998  -0.49873
 Alpha  occ. eigenvalues --   -0.48068  -0.47827  -0.46829  -0.46515  -0.46167
 Alpha  occ. eigenvalues --   -0.45793  -0.45711  -0.45151  -0.43841  -0.43736
 Alpha virt. eigenvalues --    0.20605   0.22788   0.23356   0.25005   0.25181
 Alpha virt. eigenvalues --    0.26560   0.26835   0.27254   0.28642   0.29885
 Alpha virt. eigenvalues --    0.30764   0.31075   0.31620   0.31808   0.32089

 Mulliken charges:
               1
     1  C   -0.307461
     2  C   -0.298711
     3  C   -0.480695
     4  H    0.148475
     5  H    0.159498
     6  H    0.151763
     7  H    0.151490
     8  H    0.159600
     9  H    0.154882
    10  H    0.160183
    11  C   -0.297450
    12  C   -0.300554
    13  C   -0.475645
    14  H    0.149191
    15  H    0.149248
    16  H    0.151546
    17  H    0.153149
    18  H    0.154925
    19  H    0.155067
    20  H    0.160194
    21  C   -0.297456
    22  C   -0.308001
    23  C   -0.476993
    24  H    0.150005
    25  H    0.149783
    26  H    0.159287
    27  H    0.151501
    28  H    0.155665
    29  H    0.155741
    30  H    0.161594
    31  C   -0.299548
    32  C   -0.299649
    33  C   -0.475816
    34  H    0.150514
    35  H    0.149361
    36  H    0.152168
    37  H    0.152059
    38  H    0.155187
    39  H    0.155515
    40  H    0.160389
 Sum of Mulliken charges =  -0.00000

 Dipole moment (field-independent basis, Debye):
    X=             -0.0604    Y=             -0.0158    Z=              0.0013  Tot=              0.0625
 Quadrupole moment (field-independent basis, Debye-Ang):
   XX=            -84.5036   YY=            -86.8134   ZZ=            -83.5127
   XY=              0.1136   XZ=              0.7760   YZ=              0.2591

 Normal termination of Gaussian 16 at Wed May  5 19:41:55 2021.
