 Gaussian 16, Revision A.03,
 Gaussian 16:  EM64L-G16RevA.03 25-Dec-2016

 -------------
 #p 6-31g* mp2
 -------------

 ------------------------------------------------------
 Input file generated by CHIRIPA (05-May-2021 14:51:12)
 ------------------------------------------------------
 Symbolic Z-matrix:
 Charge =  0 Multiplicity = 1

                         Standard orientation:
 ---------------------------------------------------------------------
 Center     Atomic      Atomic             Coordinates (Angstroms)
 Number     Number       Type             X           Y           Z
 ---------------------------------------------------------------------
      1          6           0        3.229643   -0.013798    0.114920
      2          6           0        3.440679    1.241922   -0.731612
      3          6           0        4.768342    1.227474   -1.489830
      4          1           0        4.059699   -0.111365    0.827964
      5          1           0        3.271448   -0.897859   -0.536297
      6          1           0        3.397109    2.123441   -0.079200
      7          1           0        2.609924    1.336615   -1.442594
      8          1           0        4.817792    0.366030   -2.163676
      9          1           0        5.609449    1.157327   -0.792535
     10          1           0        4.898674    2.134394   -2.088470
     11          6           0        1.906747   -0.014116    0.878906
     12          6           0        1.695711   -1.269835    1.725438
     13          6           0        0.368047   -1.255388    2.483656
     14          1           0        1.864941    0.869945    1.530124
     15          1           0        1.076690    0.083452    0.165862
     16          1           0        2.526466   -1.364528    2.436421
     17          1           0        1.739280   -2.151354    1.073026
     18          1           0       -0.473060   -1.185240    1.786362
     19          1           0        0.318598   -0.393944    3.157503
     20          1           0        0.237715   -2.162308    3.082297
     21          6           0       -2.435878    0.759974   -0.400052
     22          6           0       -3.598149    1.501035    0.261720
     23          6           0       -3.318398    2.992533    0.448723
     24          1           0       -1.531208    0.891235    0.209282
     25          1           0       -2.225059    1.219577   -1.375611
     26          1           0       -3.807617    1.039295    1.235134
     27          1           0       -4.500201    1.367836   -0.349160
     28          1           0       -3.130674    3.473298   -0.516796
     29          1           0       -2.434154    3.142889    1.076499
     30          1           0       -4.162249    3.502843    0.923443
     31          6           0       -2.700511   -0.732061   -0.593775
     32          6           0       -1.538241   -1.473122   -1.255547
     33          6           0       -1.817991   -2.964619   -1.442549
     34          1           0       -2.911330   -1.191663    0.381784
     35          1           0       -3.605181   -0.863321   -1.203108
     36          1           0       -0.636187   -1.339922   -0.644667
     37          1           0       -1.328773   -1.011382   -2.228960
     38          1           0       -2.702236   -3.114976   -2.070326
     39          1           0       -2.005715   -3.445384   -0.477031
     40          1           0       -0.974140   -3.474930   -1.917270
 ---------------------------------------------------------------------

 SCF Done:  E(RHF) =  -470.732439858     A.U. after   11 cycles
 E2 =    -0.1584955140D+01 EUMP2 =    -0.47231739499794D+03

 The electronic state is 1-A.
 Alpha  occ. eigenvalues --  -11.21653 -11.21633 -11.21598 -11.21596 -11.21428
 Alpha  occ. eigenvalues --  -11.21416 -11.21359 -11.21356 -11.21129 -11.21111
 Alpha  occ. eigenvalues --  -11.21069 -11.21058  -1.08516  -1.08409  -1.03602
 Alpha  occ. eigenvalues --   -1.03516  -0.96015  -0.95996  -0.87036  -0.87011
 Alpha  occ. eigenvalues --   -0.79652  -0.79603  -0.78425  -0.78132  -0.65457
 Alpha  occ. eigenvalues --   -0.64819  -0.61229  -0.60677  -0.59404  -0.59333
 Alpha  occ. eigenvalues --   -0.57620  -0.57610  -0.55334  -0.55259  -0.52713
 Alpha  occ. eigenvalues --   -0.52687  -0.52445  -0.52417  -0.50014  -0.49895
 Alpha  occ. eigenvalues --   -0.48042  -0.47893  -0.46848  -0.46594  -0.46271
 Alpha  occ. eigenvalues --   -0.45771  -0.45750  -0.45030  -0.43811  -0.43800
 Alpha virt. eigenvalues --    0.19977   0.22780   0.24032   0.24472   0.25575
 Alpha virt. eigenvalues --    0.26334   0.26919   0.27918   0.28437   0.29938
 Alpha virt. eigenvalues --    0.30823   0.31513   0.31593   0.31761   0.32132

 Mulliken charges:
               1
     1  C   -0.297716
     2  C   -0.299863
     3  C   -0.475742
     4  H    0.149713
     5  H    0.149547
     6  H    0.151893
     7  H    0.152578
     8  H    0.155199
     9  H    0.155124
    10  H    0.160295
    11  C   -0.307791
    12  C   -0.300133
    13  C   -0.482975
    14  H    0.149341
    15  H    0.158183
    16  H    0.152756
    17  H    0.152202
    18  H    0.161625
    19  H    0.155226
    20  H    0.160675
    21  C   -0.304324
    22  C   -0.299434
    23  C   -0.475782
    24  H    0.155381
    25  H    0.149221
    26  H    0.152309
    27  H    0.151892
    28  H    0.155070
    29  H    0.155562
    30  H    0.160212
    31  C   -0.299764
    32  C   -0.309642
    33  C   -0.475290
    34  H    0.150208
    35  H    0.150527
    36  H    0.160763
    37  H    0.151858
    38  H    0.155538
    39  H    0.155645
    40  H    0.159910
 Sum of Mulliken charges =  -0.00000

 Dipole moment (field-independent basis, Debye):
    X=              0.0003    Y=              0.0038    Z=             -0.0003  Tot=              0.0038
 Quadrupole moment (field-independent basis, Debye-Ang):
   XX=            -85.2717   YY=            -85.7585   ZZ=            -83.7446
   XY=             -0.0496   XZ=              1.2650   YZ=              0.0457

 Normal termination of Gaussian 16 at Wed May  5 21:32:17 2021.
