 Gaussian 16, Revision A.03,
 Gaussian 16:  EM64L-G16RevA.03 25-Dec-2016

 -------------
 #p 6-31g* mp2
 -------------

 ------------------------------------------------------
 Input file generated by CHIRIPA (05-May-2021 14:55:25)
 ------------------------------------------------------
 Symbolic Z-matrix:
 Charge =  0 Multiplicity = 1

                         Standard orientation:
 ---------------------------------------------------------------------
 Center     Atomic      Atomic             Coordinates (Angstroms)
 Number     Number       Type             X           Y           Z
 ---------------------------------------------------------------------
      1          6           0        1.534308   -1.847054    1.833019
      2          6           0        2.342539   -0.740627    2.114270
      3          6           0        2.671351    0.172565    1.108034
      4          6           0        2.172427   -0.052410   -0.174054
      5          6           0        1.364936   -1.145196   -0.485610
      6          6           0        1.048942   -2.045458    0.536263
      7          1           0        1.283858   -2.551422    2.620761
      8          1           0        2.720900   -0.584019    3.120432
      9          1           0        3.295088    1.037573    1.298117
     10          1           0        1.002720   -1.274705   -1.498252
     11          1           0        0.421054   -2.903839    0.314942
     12          7           0        2.513741    0.907501   -1.247589
     13          8           0        2.061564    0.686835   -2.368963
     14          8           0        3.226976    1.862369   -0.947323
     15          6           0       -2.560780   -0.473800    0.090802
     16          6           0       -3.096418   -1.347638   -1.043872
     17          6           0       -2.792654   -2.832283   -0.840525
     18          1           0       -1.475145   -0.619116    0.175790
     19          1           0       -2.996678   -0.811369    1.041293
     20          1           0       -2.660708   -1.007635   -1.992118
     21          1           0       -4.180877   -1.200080   -1.126294
     22          1           0       -3.241223   -3.193264    0.090645
     23          1           0       -1.712417   -2.999726   -0.780098
     24          1           0       -3.184450   -3.438578   -1.663180
     25          6           0       -2.856626    1.012974   -0.098166
     26          6           0       -2.320987    1.886812    1.036506
     27          6           0       -2.624753    3.371457    0.833160
     28          1           0       -2.420728    1.350543   -1.048659
     29          1           0       -3.942262    1.158290   -0.183155
     30          1           0       -1.236529    1.739254    1.118929
     31          1           0       -2.756699    1.546809    1.984752
     32          1           0       -3.704989    3.538900    0.772731
     33          1           0       -2.176183    3.732438   -0.098012
     34          1           0       -2.232956    3.977752    1.655816
 ---------------------------------------------------------------------

 SCF Done:  E(RHF) =  -669.534601889     A.U. after   15 cycles
 E2 =    -0.2093950312D+01 EUMP2 =    -0.67162855220178D+03

 The electronic state is 1-A.
 Alpha  occ. eigenvalues --  -20.60857 -20.60851 -15.85911 -11.31300 -11.27855
 Alpha  occ. eigenvalues --  -11.27851 -11.27574 -11.26865 -11.26837 -11.21955
 Alpha  occ. eigenvalues --  -11.21783 -11.21608 -11.21498 -11.21390 -11.20975
 Alpha  occ. eigenvalues --   -1.59932  -1.39485  -1.19472  -1.08853  -1.08592
 Alpha  occ. eigenvalues --   -1.04882  -1.03750  -0.96207  -0.95685  -0.87231
 Alpha  occ. eigenvalues --   -0.86261  -0.82527  -0.79820  -0.78385  -0.77560
 Alpha  occ. eigenvalues --   -0.72126  -0.71258  -0.70556  -0.65296  -0.65086
 Alpha  occ. eigenvalues --   -0.64869  -0.62266  -0.61116  -0.59583  -0.57810
 Alpha  occ. eigenvalues --   -0.55567  -0.55327  -0.53265  -0.53019  -0.52897
 Alpha  occ. eigenvalues --   -0.52563  -0.50156  -0.48887  -0.48881  -0.48127
 Alpha  occ. eigenvalues --   -0.46845  -0.45915  -0.45810  -0.44884  -0.43959
 Alpha  occ. eigenvalues --   -0.37434  -0.36367
 Alpha virt. eigenvalues --    0.04945   0.11136   0.16338   0.19940   0.22906
 Alpha virt. eigenvalues --    0.23961   0.25718   0.26631   0.27574   0.28286
 Alpha virt. eigenvalues --    0.28783   0.30217   0.31372   0.31658   0.32582

 Mulliken charges:
               1
     1  C   -0.170910
     2  C   -0.218078
     3  C   -0.171464
     4  C    0.159555
     5  C   -0.174489
     6  C   -0.219814
     7  H    0.226760
     8  H    0.224062
     9  H    0.276073
    10  H    0.276208
    11  H    0.230221
    12  N    0.488025
    13  O   -0.460469
    14  O   -0.459950
    15  C   -0.307451
    16  C   -0.300897
    17  C   -0.476651
    18  H    0.157264
    19  H    0.146039
    20  H    0.155093
    21  H    0.154573
    22  H    0.155807
    23  H    0.142325
    24  H    0.164230
    25  C   -0.299084
    26  C   -0.299713
    27  C   -0.476279
    28  H    0.154419
    29  H    0.149281
    30  H    0.152224
    31  H    0.149221
    32  H    0.154486
    33  H    0.159607
    34  H    0.159775
 Sum of Mulliken charges =  -0.00000

 Dipole moment (field-independent basis, Debye):
    X=             -1.1589    Y=             -3.3198    Z=              3.7734  Tot=              5.1578
 Quadrupole moment (field-independent basis, Debye-Ang):
   XX=            -98.2960   YY=            -94.6830   ZZ=            -94.0023
   XY=             -5.5076   XZ=             10.3552   YZ=              2.1601

 Normal termination of Gaussian 16 at Thu May  6 17:44:41 2021.
