 Gaussian 16, Revision A.03,
 Gaussian 16:  EM64L-G16RevA.03 25-Dec-2016

 -------------
 #p 6-31g* mp2
 -------------

 ------------------------------------------------------
 Input file generated by CHIRIPA (05-May-2021 14:51:08)
 ------------------------------------------------------
 Symbolic Z-matrix:
 Charge =  0 Multiplicity = 1

                         Standard orientation:
 ---------------------------------------------------------------------
 Center     Atomic      Atomic             Coordinates (Angstroms)
 Number     Number       Type             X           Y           Z
 ---------------------------------------------------------------------
      1          6           0       -4.852902   -0.207557   -0.288868
      2          6           0       -5.775334   -0.980752    0.654145
      3          6           0       -6.810428   -1.823903   -0.091154
      4          1           0       -5.459970    0.441298   -0.934933
      5          1           0       -4.339880   -0.917458   -0.952377
      6          1           0       -6.285422   -0.269715    1.316604
      7          1           0       -5.165985   -1.627699    1.298171
      8          1           0       -6.316981   -2.555333   -0.739322
      9          1           0       -7.442779   -1.189633   -0.720785
     10          1           0       -7.459274   -2.368181    0.602113
     11          6           0       -3.812660    0.640041    0.441340
     12          6           0       -2.890228    1.413237   -0.501672
     13          6           0       -1.855134    2.256388    0.243627
     14          1           0       -4.325682    1.349942    1.104849
     15          1           0       -3.205592   -0.008813    1.087406
     16          1           0       -3.499577    2.060184   -1.145698
     17          1           0       -2.380140    0.702200   -1.164131
     18          1           0       -1.222783    1.622117    0.873257
     19          1           0       -2.348581    2.987817    0.891795
     20          1           0       -1.206288    2.800666   -0.449641
     21          6           0        4.987986   -0.577292   -0.230445
     22          6           0        6.179383   -0.035803    0.560346
     23          6           0        7.482965   -0.768228    0.240940
     24          1           0        4.870335   -1.648420   -0.016463
     25          1           0        5.202131   -0.494899   -1.305037
     26          1           0        5.962484   -0.117917    1.633112
     27          1           0        6.294095    1.034203    0.344605
     28          1           0        7.726298   -0.675604   -0.822456
     29          1           0        7.392802   -1.834270    0.473372
     30          1           0        8.321555   -0.365090    0.817226
     31          6           0        3.677575    0.144807    0.077972
     32          6           0        2.486179   -0.396681   -0.712819
     33          6           0        1.182597    0.335743   -0.393412
     34          1           0        3.463431    0.062415    1.152565
     35          1           0        3.795227    1.215936   -0.136009
     36          1           0        2.371467   -1.466687   -0.497078
     37          1           0        2.703078   -0.314567   -1.785586
     38          1           0        1.272760    1.401785   -0.625846
     39          1           0        0.939264    0.243120    0.669984
     40          1           0        0.344006   -0.067395   -0.969699
 ---------------------------------------------------------------------

 SCF Done:  E(RHF) =  -470.732768335     A.U. after   11 cycles
 E2 =    -0.1582910733D+01 EUMP2 =    -0.47231567906735D+03

 The electronic state is 1-A.
 Alpha  occ. eigenvalues --  -11.21603 -11.21588 -11.21575 -11.21516 -11.21407
 Alpha  occ. eigenvalues --  -11.21360 -11.21348 -11.21297 -11.21073 -11.21063
 Alpha  occ. eigenvalues --  -11.21052 -11.20886  -1.08434  -1.08373  -1.03557
 Alpha  occ. eigenvalues --   -1.03439  -0.96050  -0.95846  -0.87095  -0.86837
 Alpha  occ. eigenvalues --   -0.79652  -0.79477  -0.78247  -0.78189  -0.65064
 Alpha  occ. eigenvalues --   -0.65009  -0.60949  -0.60876  -0.59366  -0.59252
 Alpha  occ. eigenvalues --   -0.57618  -0.57511  -0.55304  -0.55204  -0.52730
 Alpha  occ. eigenvalues --   -0.52591  -0.52399  -0.52282  -0.49949  -0.49811
 Alpha  occ. eigenvalues --   -0.47924  -0.47835  -0.46642  -0.46522  -0.45799
 Alpha  occ. eigenvalues --   -0.45729  -0.45702  -0.45620  -0.43772  -0.43714
 Alpha virt. eigenvalues --    0.21591   0.22983   0.23578   0.24914   0.26204
 Alpha virt. eigenvalues --    0.26489   0.26704   0.27439   0.27770   0.29323
 Alpha virt. eigenvalues --    0.29544   0.30087   0.31457   0.32312   0.32394

 Mulliken charges:
               1
     1  C   -0.298199
     2  C   -0.299595
     3  C   -0.475669
     4  H    0.149573
     5  H    0.149210
     6  H    0.151893
     7  H    0.151822
     8  H    0.155092
     9  H    0.155147
    10  H    0.160143
    11  C   -0.298301
    12  C   -0.301638
    13  C   -0.476581
    14  H    0.149409
    15  H    0.149509
    16  H    0.151402
    17  H    0.152738
    18  H    0.160567
    19  H    0.153336
    20  H    0.159775
    21  C   -0.298208
    22  C   -0.299626
    23  C   -0.475703
    24  H    0.149581
    25  H    0.149521
    26  H    0.151922
    27  H    0.151979
    28  H    0.155180
    29  H    0.155151
    30  H    0.160271
    31  C   -0.298372
    32  C   -0.301323
    33  C   -0.475494
    34  H    0.149430
    35  H    0.149732
    36  H    0.151464
    37  H    0.151750
    38  H    0.157269
    39  H    0.154327
    40  H    0.161516
 Sum of Mulliken charges =  -0.00000

 Dipole moment (field-independent basis, Debye):
    X=              0.0300    Y=              0.0069    Z=              0.0037  Tot=              0.0310
 Quadrupole moment (field-independent basis, Debye-Ang):
   XX=            -86.2222   YY=            -84.3921   ZZ=            -84.4160
   XY=             -0.4102   XZ=             -0.3441   YZ=             -0.8393

 Normal termination of Gaussian 16 at Thu May  6 00:29:38 2021.
