 Gaussian 16, Revision A.03,
 Gaussian 16:  EM64L-G16RevA.03 25-Dec-2016

 -------------
 #p 6-31g* mp2
 -------------

 ------------------------------------------------------
 Input file generated by CHIRIPA (05-May-2021 14:51:09)
 ------------------------------------------------------
 Symbolic Z-matrix:
 Charge =  0 Multiplicity = 1

                         Standard orientation:
 ---------------------------------------------------------------------
 Center     Atomic      Atomic             Coordinates (Angstroms)
 Number     Number       Type             X           Y           Z
 ---------------------------------------------------------------------
      1          6           0       -3.078530    0.682255    0.514287
      2          6           0       -1.871030    0.657484    1.452005
      3          6           0       -1.222867    2.032349    1.617619
      4          1           0       -2.764462    1.061827   -0.467666
      5          1           0       -3.820430    1.394124    0.901871
      6          1           0       -1.132224   -0.055152    1.063506
      7          1           0       -2.187969    0.277746    2.431783
      8          1           0       -1.941046    2.750003    2.027244
      9          1           0       -0.879302    2.415213    0.651193
     10          1           0       -0.361766    1.991635    2.291939
     11          6           0       -3.737281   -0.684826    0.338609
     12          6           0       -4.944781   -0.660056   -0.599109
     13          6           0       -5.592944   -2.034920   -0.764723
     14          1           0       -2.995381   -1.396695   -0.048975
     15          1           0       -4.051350   -1.064399    1.320562
     16          1           0       -4.627842   -0.280318   -1.578887
     17          1           0       -5.683587    0.052580   -0.210610
     18          1           0       -5.936509   -2.417785    0.201703
     19          1           0       -4.874765   -2.752574   -1.174348
     20          1           0       -6.454045   -1.994206   -1.439043
     21          6           0        3.125002    0.695710   -0.571958
     22          6           0        1.795584    0.662942   -1.326648
     23          6           0        1.242309    2.059787   -1.610388
     24          1           0        2.988895    1.236932    0.374350
     25          1           0        3.856998    1.269074   -1.157475
     26          1           0        1.066711    0.088638   -0.740531
     27          1           0        1.934826    0.121568   -2.271181
     28          1           0        1.948161    2.638186   -2.215223
     29          1           0        1.075114    2.605069   -0.675876
     30          1           0        0.291602    2.012933   -2.150594
     31          6           0        3.690809   -0.693138   -0.280938
     32          6           0        5.020228   -0.660371    0.473753
     33          6           0        5.573502   -2.057214    0.757493
     34          1           0        2.958813   -1.266503    0.304579
     35          1           0        3.826917   -1.234361   -1.227245
     36          1           0        4.880986   -0.118998    1.418285
     37          1           0        5.749101   -0.086066   -0.112365
     38          1           0        5.740696   -2.602497   -0.177020
     39          1           0        4.867649   -2.635615    1.362328
     40          1           0        6.524209   -2.010362    1.297698
 ---------------------------------------------------------------------

 SCF Done:  E(RHF) =  -470.733076403     A.U. after   11 cycles
 E2 =    -0.1583179632D+01 EUMP2 =    -0.47231625603521D+03

 The electronic state is 1-A.
 Alpha  occ. eigenvalues --  -11.21640 -11.21622 -11.21613 -11.21606 -11.21423
 Alpha  occ. eigenvalues --  -11.21413 -11.21364 -11.21353 -11.21091 -11.21080
 Alpha  occ. eigenvalues --  -11.21073 -11.21038  -1.08461  -1.08427  -1.03588
 Alpha  occ. eigenvalues --   -1.03502  -0.96047  -0.95942  -0.87071  -0.86955
 Alpha  occ. eigenvalues --   -0.79678  -0.79544  -0.78281  -0.78230  -0.65205
 Alpha  occ. eigenvalues --   -0.64966  -0.61231  -0.60676  -0.59385  -0.59336
 Alpha  occ. eigenvalues --   -0.57631  -0.57584  -0.55576  -0.54996  -0.52708
 Alpha  occ. eigenvalues --   -0.52684  -0.52473  -0.52352  -0.50211  -0.49664
 Alpha  occ. eigenvalues --   -0.47993  -0.47842  -0.46879  -0.46408  -0.45857
 Alpha  occ. eigenvalues --   -0.45789  -0.45738  -0.45588  -0.43808  -0.43791
 Alpha virt. eigenvalues --    0.19987   0.23216   0.23666   0.25325   0.25819
 Alpha virt. eigenvalues --    0.26445   0.26552   0.27929   0.28244   0.29167
 Alpha virt. eigenvalues --    0.30479   0.31100   0.31309   0.31732   0.32287

 Mulliken charges:
               1
     1  C   -0.298628
     2  C   -0.301608
     3  C   -0.481992
     4  H    0.150082
     5  H    0.149685
     6  H    0.153216
     7  H    0.151955
     8  H    0.155173
     9  H    0.163236
    10  H    0.158764
    11  C   -0.298361
    12  C   -0.299656
    13  C   -0.475728
    14  H    0.149485
    15  H    0.149639
    16  H    0.151963
    17  H    0.151959
    18  H    0.155166
    19  H    0.155236
    20  H    0.160280
    21  C   -0.298454
    22  C   -0.302683
    23  C   -0.479803
    24  H    0.150315
    25  H    0.149658
    26  H    0.154402
    27  H    0.152037
    28  H    0.155686
    29  H    0.159979
    30  H    0.159037
    31  C   -0.298367
    32  C   -0.299675
    33  C   -0.475736
    34  H    0.149395
    35  H    0.149615
    36  H    0.152031
    37  H    0.151980
    38  H    0.155165
    39  H    0.155234
    40  H    0.160316
 Sum of Mulliken charges =  -0.00000

 Dipole moment (field-independent basis, Debye):
    X=              0.0091    Y=              0.0149    Z=             -0.0075  Tot=              0.0190
 Quadrupole moment (field-independent basis, Debye-Ang):
   XX=            -84.7245   YY=            -86.4611   ZZ=            -83.5450
   XY=             -0.1386   XZ=             -1.2092   YZ=              0.1845

 Normal termination of Gaussian 16 at Wed May  5 18:08:52 2021.
