 Gaussian 16, Revision A.03,
 Gaussian 16:  EM64L-G16RevA.03 25-Dec-2016

 -------------
 #p 6-31g* mp2
 -------------

 ------------------------------------------------------
 Input file generated by CHIRIPA (05-May-2021 14:55:25)
 ------------------------------------------------------
 Symbolic Z-matrix:
 Charge =  0 Multiplicity = 1

                         Standard orientation:
 ---------------------------------------------------------------------
 Center     Atomic      Atomic             Coordinates (Angstroms)
 Number     Number       Type             X           Y           Z
 ---------------------------------------------------------------------
      1          6           0       -1.319382   -2.223074    1.566610
      2          6           0       -0.949026   -2.286951    0.219288
      3          6           0       -1.294904   -1.257972   -0.661688
      4          6           0       -2.014676   -0.175046   -0.159205
      5          6           0       -2.398234   -0.082456    1.177807
      6          6           0       -2.041531   -1.122970    2.040734
      7          1           0       -1.046491   -3.026889    2.243963
      8          1           0       -0.388170   -3.140092   -0.151707
      9          1           0       -1.021038   -1.281882   -1.709468
     10          1           0       -2.957053    0.780797    1.518296
     11          1           0       -2.330501   -1.070684    3.086586
     12          7           0       -2.386571    0.920394   -1.082300
     13          8           0       -3.020919    1.863646   -0.614844
     14          8           0       -2.036673    0.815005   -2.255800
     15          6           0        2.412440   -0.115216   -0.491341
     16          6           0        3.184046   -1.379446   -0.111433
     17          6           0        2.998228   -2.511567   -1.122159
     18          1           0        1.344634   -0.357812   -0.580127
     19          1           0        2.740150    0.221369   -1.484674
     20          1           0        2.855969   -1.712761    0.881484
     21          1           0        4.250114   -1.133772   -0.023353
     22          1           0        3.343395   -2.202833   -2.114200
     23          1           0        1.941327   -2.785112   -1.204222
     24          1           0        3.558445   -3.405593   -0.831067
     25          6           0        2.588220    1.025520    0.509433
     26          6           0        1.816614    2.289750    0.129525
     27          6           0        2.002432    3.421871    1.140251
     28          1           0        2.260510    0.688935    1.502767
     29          1           0        3.656027    1.268115    0.598219
     30          1           0        0.750546    2.044076    0.041445
     31          1           0        2.144691    2.623065   -0.863391
     32          1           0        3.059333    3.695416    1.222314
     33          1           0        1.657266    3.113137    2.132292
     34          1           0        1.442215    4.315897    0.849160
 ---------------------------------------------------------------------

 SCF Done:  E(RHF) =  -669.534588204     A.U. after   15 cycles
 E2 =    -0.2094741690D+01 EUMP2 =    -0.67162932989429D+03

 The electronic state is 1-A.
 Alpha  occ. eigenvalues --  -20.60851 -20.60844 -15.85911 -11.31318 -11.27892
 Alpha  occ. eigenvalues --  -11.27876 -11.27631 -11.26897 -11.26886 -11.21922
 Alpha  occ. eigenvalues --  -11.21650 -11.21434 -11.21386 -11.21329 -11.20889
 Alpha  occ. eigenvalues --   -1.59928  -1.39479  -1.19506  -1.08880  -1.08496
 Alpha  occ. eigenvalues --   -1.04915  -1.03640  -0.96103  -0.95708  -0.87129
 Alpha  occ. eigenvalues --   -0.86295  -0.82541  -0.79710  -0.78289  -0.77571
 Alpha  occ. eigenvalues --   -0.72122  -0.71260  -0.70594  -0.65212  -0.65111
 Alpha  occ. eigenvalues --   -0.64894  -0.62274  -0.61029  -0.59482  -0.57693
 Alpha  occ. eigenvalues --   -0.55479  -0.55357  -0.53271  -0.53007  -0.52795
 Alpha  occ. eigenvalues --   -0.52496  -0.50067  -0.48886  -0.48874  -0.48024
 Alpha  occ. eigenvalues --   -0.46753  -0.45824  -0.45730  -0.44862  -0.43857
 Alpha  occ. eigenvalues --   -0.37465  -0.36401
 Alpha virt. eigenvalues --    0.04922   0.11051   0.16307   0.20155   0.22943
 Alpha virt. eigenvalues --    0.23958   0.25696   0.26824   0.27262   0.28165
 Alpha virt. eigenvalues --    0.28836   0.30006   0.31417   0.31840   0.32230

 Mulliken charges:
               1
     1  C   -0.171440
     2  C   -0.217039
     3  C   -0.177179
     4  C    0.161127
     5  C   -0.171608
     6  C   -0.218367
     7  H    0.226575
     8  H    0.227330
     9  H    0.277641
    10  H    0.276394
    11  H    0.224101
    12  N    0.488678
    13  O   -0.460294
    14  O   -0.459668
    15  C   -0.305743
    16  C   -0.298549
    17  C   -0.476250
    18  H    0.156121
    19  H    0.151509
    20  H    0.148123
    21  H    0.154007
    22  H    0.159979
    23  H    0.143240
    24  H    0.160387
    25  C   -0.297623
    26  C   -0.298990
    27  C   -0.475910
    28  H    0.146891
    29  H    0.148945
    30  H    0.151289
    31  H    0.155607
    32  H    0.153983
    33  H    0.152181
    34  H    0.164550
 Sum of Mulliken charges =  -0.00000

 Dipole moment (field-independent basis, Debye):
    X=              1.2358    Y=             -3.7790    Z=              3.2266  Tot=              5.1204
 Quadrupole moment (field-independent basis, Debye-Ang):
   XX=            -99.0058   YY=            -93.4815   ZZ=            -93.3438
   XY=              6.7596   XZ=             -9.4269   YZ=              1.1364

 Normal termination of Gaussian 16 at Wed May  5 20:50:58 2021.
