 Gaussian 16, Revision A.03,
 Gaussian 16:  EM64L-G16RevA.03 25-Dec-2016

 -------------
 #p 6-31g* mp2
 -------------

 ------------------------------------------------------
 Input file generated by CHIRIPA (05-May-2021 14:57:23)
 ------------------------------------------------------
 Symbolic Z-matrix:
 Charge =  0 Multiplicity = 1

                         Standard orientation:
 ---------------------------------------------------------------------
 Center     Atomic      Atomic             Coordinates (Angstroms)
 Number     Number       Type             X           Y           Z
 ---------------------------------------------------------------------
      1          6           0        1.503981    0.425378    1.446038
      2          6           0        2.034946   -0.868298    1.414419
      3          6           0        3.193679   -1.142494    0.681821
      4          6           0        3.798382   -0.094533   -0.010569
      5          6           0        3.293612    1.204834    0.001393
      6          6           0        2.133898    1.455998    0.740668
      7          1           0        0.603467    0.629434    2.017732
      8          1           0        1.547862   -1.670645    1.961259
      9          1           0        3.626127   -2.134798    0.640100
     10          1           0        3.801479    1.984062   -0.553848
     11          1           0        1.723786    2.461650    0.763416
     12          7           0        5.025600   -0.372621   -0.789672
     13          8           0        5.539502    0.568018   -1.391121
     14          8           0        5.450355   -1.525960   -0.784132
     15          6           0       -4.475169   -2.309374   -0.298610
     16          6           0       -3.378278   -2.032353    0.523952
     17          6           0       -2.882758   -0.729516    0.631770
     18          6           0       -3.511138    0.276672   -0.100360
     19          6           0       -4.605681    0.032361   -0.928356
     20          6           0       -5.084296   -1.277952   -1.020866
     21          1           0       -4.853534   -3.324353   -0.376420
     22          1           0       -2.903234   -2.831385    1.086024
     23          1           0       -2.035066   -0.487091    1.261110
     24          1           0       -5.058284    0.849775   -1.476446
     25          1           0       -5.936312   -1.490159   -1.660461
     26          7           0       -2.995502    1.659883    0.005679
     27          8           0       -3.566789    2.528691   -0.649638
     28          8           0       -2.029822    1.849045    0.742102
 ---------------------------------------------------------------------

 SCF Done:  E(RHF) =  -868.339110493     A.U. after   16 cycles
 E2 =    -0.2599212182D+01 EUMP2 =    -0.87093832267486D+03

 The electronic state is 1-A.
 Alpha  occ. eigenvalues --  -20.61718 -20.61662 -20.60483 -20.60469 -15.86736
 Alpha  occ. eigenvalues --  -15.85529 -11.31934 -11.30807 -11.28560 -11.28435
 Alpha  occ. eigenvalues --  -11.28160 -11.27483 -11.27429 -11.27409 -11.27301
 Alpha  occ. eigenvalues --  -11.27003 -11.26451 -11.26191  -1.60749  -1.59557
 Alpha  occ. eigenvalues --   -1.40315  -1.39113  -1.20083  -1.18961  -1.09499
 Alpha  occ. eigenvalues --   -1.08355  -1.05471  -1.04352  -0.96371  -0.95207
 Alpha  occ. eigenvalues --   -0.86874  -0.85741  -0.83221  -0.82047  -0.78298
 Alpha  occ. eigenvalues --   -0.77123  -0.72980  -0.72052  -0.71748  -0.71194
 Alpha  occ. eigenvalues --   -0.70880  -0.70012  -0.65744  -0.65474  -0.64604
 Alpha  occ. eigenvalues --   -0.64339  -0.62838  -0.61699  -0.55957  -0.54790
 Alpha  occ. eigenvalues --   -0.53790  -0.53563  -0.52684  -0.52429  -0.49731
 Alpha  occ. eigenvalues --   -0.49683  -0.48510  -0.48497  -0.45754  -0.44539
 Alpha  occ. eigenvalues --   -0.38031  -0.37066  -0.36903  -0.35961
 Alpha virt. eigenvalues --    0.04243   0.05402   0.10598   0.11683   0.15783
 Alpha virt. eigenvalues --    0.16858   0.19673   0.21975   0.25640   0.27016
 Alpha virt. eigenvalues --    0.27790   0.29017   0.30538   0.31139   0.32749

 Mulliken charges:
               1
     1  C   -0.173561
     2  C   -0.221030
     3  C   -0.171589
     4  C    0.157935
     5  C   -0.172038
     6  C   -0.218146
     7  H    0.235240
     8  H    0.215021
     9  H    0.272699
    10  H    0.275626
    11  H    0.234335
    12  N    0.488154
    13  O   -0.460356
    14  O   -0.462802
    15  C   -0.169609
    16  C   -0.218282
    17  C   -0.168069
    18  C    0.158821
    19  C   -0.169764
    20  C   -0.218156
    21  H    0.228329
    22  H    0.223057
    23  H    0.267151
    24  H    0.277456
    25  H    0.226318
    26  N    0.491079
    27  O   -0.454977
    28  O   -0.472841
 Sum of Mulliken charges =  -0.00000

 Dipole moment (field-independent basis, Debye):
    X=             -6.5020    Y=             -3.7338    Z=              2.2424  Tot=              7.8259
 Quadrupole moment (field-independent basis, Debye-Ang):
   XX=           -122.9588   YY=           -102.8521   ZZ=           -103.7065
   XY=             20.5863   XZ=             15.0064   YZ=             -2.4253

 Normal termination of Gaussian 16 at Thu May  6 00:14:28 2021.
