 Gaussian 16, Revision A.03,
 Gaussian 16:  EM64L-G16RevA.03 25-Dec-2016

 -------------
 #p 6-31g* mp2
 -------------

 ------------------------------------------------------
 Input file generated by CHIRIPA (05-May-2021 14:53:14)
 ------------------------------------------------------
 Symbolic Z-matrix:
 Charge =  0 Multiplicity = 1

                         Standard orientation:
 ---------------------------------------------------------------------
 Center     Atomic      Atomic             Coordinates (Angstroms)
 Number     Number       Type             X           Y           Z
 ---------------------------------------------------------------------
      1          6           0       -3.005267   -0.735874   -0.856852
      2          6           0       -1.666087   -1.305173   -0.387299
      3          6           0       -0.967940   -2.137838   -1.462964
      4          1           0       -3.659980   -1.562465   -1.165142
      5          1           0       -2.840052   -0.118050   -1.750380
      6          1           0       -1.833588   -1.920619    0.505890
      7          1           0       -1.014554   -0.477143   -0.079911
      8          1           0       -0.771976   -1.531162   -2.352988
      9          1           0       -1.595664   -2.982838   -1.763858
     10          1           0       -0.012590   -2.535069   -1.106067
     11          6           0       -3.715271    0.098911    0.207458
     12          6           0       -5.054451    0.668211   -0.262095
     13          6           0       -5.752598    1.500876    0.813570
     14          1           0       -3.880486   -0.518913    1.100986
     15          1           0       -3.060557    0.925502    0.515748
     16          1           0       -5.705984   -0.159819   -0.569483
     17          1           0       -4.886950    1.283656   -1.155284
     18          1           0       -5.124873    2.345876    1.114465
     19          1           0       -5.948561    0.894199    1.703594
     20          1           0       -6.707947    1.898107    0.456673
     21          6           0        2.194268   -2.082876    1.115896
     22          6           0        3.233880   -1.853004    0.208767
     23          6           0        3.481776   -0.565183   -0.275599
     24          6           0        2.666872    0.474232    0.170312
     25          6           0        1.623437    0.277142    1.073467
     26          6           0        1.393775   -1.018945    1.544596
     27          1           0        2.008779   -3.086497    1.487022
     28          1           0        3.857159   -2.677361   -0.125904
     29          1           0        4.279866   -0.359044   -0.978435
     30          1           0        1.019035    1.118984    1.388774
     31          1           0        0.585692   -1.194512    2.249026
     32          7           0        2.919656    1.841967   -0.335457
     33          8           0        2.187446    2.740738    0.072850
     34          8           0        3.845212    1.989327   -1.130610
 ---------------------------------------------------------------------

 SCF Done:  E(RHF) =  -669.534719903     A.U. after   15 cycles
 E2 =    -0.2093699178D+01 EUMP2 =    -0.67162841908119D+03

 The electronic state is 1-A.
 Alpha  occ. eigenvalues --  -20.60827 -20.60821 -15.85880 -11.31265 -11.27801
 Alpha  occ. eigenvalues --  -11.27798 -11.27552 -11.26855 -11.26820 -11.21901
 Alpha  occ. eigenvalues --  -11.21749 -11.21637 -11.21570 -11.21298 -11.21185
 Alpha  occ. eigenvalues --   -1.59902  -1.39455  -1.19435  -1.08835  -1.08654
 Alpha  occ. eigenvalues --   -1.04843  -1.03737  -0.96181  -0.95659  -0.87200
 Alpha  occ. eigenvalues --   -0.86229  -0.82494  -0.79831  -0.78501  -0.77518
 Alpha  occ. eigenvalues --   -0.72098  -0.71225  -0.70537  -0.65303  -0.65075
 Alpha  occ. eigenvalues --   -0.64828  -0.62181  -0.61147  -0.59600  -0.57848
 Alpha  occ. eigenvalues --   -0.55471  -0.55333  -0.53287  -0.52924  -0.52757
 Alpha  occ. eigenvalues --   -0.52517  -0.50123  -0.48858  -0.48852  -0.48148
 Alpha  occ. eigenvalues --   -0.46864  -0.46031  -0.45950  -0.44855  -0.44006
 Alpha  occ. eigenvalues --   -0.37387  -0.36328
 Alpha virt. eigenvalues --    0.04964   0.11147   0.16411   0.20854   0.22803
 Alpha virt. eigenvalues --    0.24176   0.26021   0.26126   0.27552   0.28242
 Alpha virt. eigenvalues --    0.28789   0.30373   0.31302   0.31670   0.32149

 Mulliken charges:
               1
     1  C   -0.298200
     2  C   -0.301121
     3  C   -0.478319
     4  H    0.149357
     5  H    0.153021
     6  H    0.142465
     7  H    0.154659
     8  H    0.158353
     9  H    0.153736
    10  H    0.159449
    11  C   -0.298555
    12  C   -0.299801
    13  C   -0.476118
    14  H    0.146376
    15  H    0.149336
    16  H    0.151875
    17  H    0.154356
    18  H    0.156501
    19  H    0.153886
    20  H    0.161356
    21  C   -0.173389
    22  C   -0.218065
    23  C   -0.171187
    24  C    0.159157
    25  C   -0.173507
    26  C   -0.211001
    27  H    0.226280
    28  H    0.224059
    29  H    0.275844
    30  H    0.275691
    31  H    0.225986
    32  N    0.488048
    33  O   -0.460541
    34  O   -0.459989
 Sum of Mulliken charges =  -0.00000

 Dipole moment (field-independent basis, Debye):
    X=             -0.8273    Y=             -4.7662    Z=              1.7674  Tot=              5.1502
 Quadrupole moment (field-independent basis, Debye-Ang):
   XX=            -97.0109   YY=            -99.1613   ZZ=            -93.4516
   XY=            -14.4307   XZ=              2.6457   YZ=              0.2850

 Normal termination of Gaussian 16 at Thu May  6 20:20:13 2021.
