 Gaussian 16, Revision A.03,
 Gaussian 16:  EM64L-G16RevA.03 25-Dec-2016

 -------------
 #p 6-31g* mp2
 -------------

 ------------------------------------------------------
 Input file generated by CHIRIPA (05-May-2021 14:57:26)
 ------------------------------------------------------
 Symbolic Z-matrix:
 Charge =  0 Multiplicity = 1

                         Standard orientation:
 ---------------------------------------------------------------------
 Center     Atomic      Atomic             Coordinates (Angstroms)
 Number     Number       Type             X           Y           Z
 ---------------------------------------------------------------------
      1          6           0        4.516181    0.924116   -0.259041
      2          6           0        4.125259    0.601047    1.044541
      3          6           0        3.029947   -0.238010    1.269979
      4          6           0        2.345173   -0.738506    0.163688
      5          6           0        2.710204   -0.435031   -1.147016
      6          6           0        3.808653    0.405960   -1.348738
      7          1           0        5.368264    1.576667   -0.424955
      8          1           0        4.672870    1.001997    1.892719
      9          1           0        2.705730   -0.504361    2.268657
     10          1           0        2.144676   -0.850073   -1.972447
     11          1           0        4.109987    0.655157   -2.362219
     12          7           0        1.183954   -1.627802    0.389796
     13          8           0        0.597250   -2.055775   -0.601796
     14          8           0        0.882483   -1.880020    1.554329
     15          6           0       -0.661690    2.279482   -0.181182
     16          6           0       -1.623687    2.334582    0.832744
     17          6           0       -2.666901    1.404726    0.872981
     18          6           0       -2.717811    0.428794   -0.121129
     19          6           0       -1.774471    0.347775   -1.144279
     20          6           0       -0.740013    1.288003   -1.164723
     21          1           0        0.145303    3.005846   -0.204751
     22          1           0       -1.565368    3.103478    1.597887
     23          1           0       -3.424991    1.424333    1.646502
     24          1           0       -1.859042   -0.430301   -1.893188
     25          1           0        0.005688    1.242795   -1.953349
     26          7           0       -3.817580   -0.561093   -0.089009
     27          8           0       -3.840112   -1.411095   -0.976492
     28          8           0       -4.636221   -0.468222    0.823043
 ---------------------------------------------------------------------

 SCF Done:  E(RHF) =  -868.337142205     A.U. after   16 cycles
 E2 =    -0.2602880164D+01 EUMP2 =    -0.87094002236929D+03

 The electronic state is 1-A.
 Alpha  occ. eigenvalues --  -20.61233 -20.61216 -20.59955 -20.59922 -15.86261
 Alpha  occ. eigenvalues --  -15.85004 -11.31808 -11.30476 -11.28431 -11.28351
 Alpha  occ. eigenvalues --  -11.28140 -11.27468 -11.27410 -11.27162 -11.27081
 Alpha  occ. eigenvalues --  -11.27021 -11.26211 -11.26198  -1.60274  -1.59007
 Alpha  occ. eigenvalues --   -1.39834  -1.38559  -1.19994  -1.18727  -1.09343
 Alpha  occ. eigenvalues --   -1.08117  -1.05429  -1.04161  -0.96156  -0.94914
 Alpha  occ. eigenvalues --   -0.86809  -0.85559  -0.82994  -0.81756  -0.78024
 Alpha  occ. eigenvalues --   -0.76748  -0.72495  -0.71606  -0.71235  -0.71089
 Alpha  occ. eigenvalues --   -0.70311  -0.69866  -0.65641  -0.65421  -0.64394
 Alpha  occ. eigenvalues --   -0.64211  -0.62769  -0.61495  -0.55897  -0.54725
 Alpha  occ. eigenvalues --   -0.53768  -0.53510  -0.52474  -0.52260  -0.49256
 Alpha  occ. eigenvalues --   -0.49237  -0.48006  -0.47965  -0.45223  -0.43939
 Alpha  occ. eigenvalues --   -0.38043  -0.37082  -0.36665  -0.35677
 Alpha virt. eigenvalues --    0.04459   0.05848   0.10442   0.12019   0.15964
 Alpha virt. eigenvalues --    0.17231   0.20495   0.21925   0.26036   0.27216
 Alpha virt. eigenvalues --    0.28470   0.28860   0.30450   0.31093   0.32497

 Mulliken charges:
               1
     1  C   -0.172323
     2  C   -0.219275
     3  C   -0.171378
     4  C    0.163961
     5  C   -0.176881
     6  C   -0.221085
     7  H    0.226919
     8  H    0.225134
     9  H    0.277861
    10  H    0.272795
    11  H    0.223899
    12  N    0.490107
    13  O   -0.461224
    14  O   -0.455620
    15  C   -0.172072
    16  C   -0.219972
    17  C   -0.168308
    18  C    0.158426
    19  C   -0.155082
    20  C   -0.226614
    21  H    0.220524
    22  H    0.219664
    23  H    0.274800
    24  H    0.281079
    25  H    0.215277
    26  N    0.489463
    27  O   -0.456649
    28  O   -0.463428
 Sum of Mulliken charges =  -0.00000

 Dipole moment (field-independent basis, Debye):
    X=              7.9495    Y=              6.3193    Z=             -0.8159  Tot=             10.1879
 Quadrupole moment (field-independent basis, Debye-Ang):
   XX=           -107.0336   YY=           -107.1930   ZZ=            -97.0056
   XY=             -3.9328   XZ=             -1.9570   YZ=              3.2033

 Normal termination of Gaussian 16 at Wed May  5 16:31:11 2021.
