 Gaussian 16, Revision A.03,
 Gaussian 16:  EM64L-G16RevA.03 25-Dec-2016

 -------------
 #p 6-31g* mp2
 -------------

 ------------------------------------------------------
 Input file generated by CHIRIPA (05-May-2021 14:55:19)
 ------------------------------------------------------
 Symbolic Z-matrix:
 Charge =  0 Multiplicity = 1

                         Standard orientation:
 ---------------------------------------------------------------------
 Center     Atomic      Atomic             Coordinates (Angstroms)
 Number     Number       Type             X           Y           Z
 ---------------------------------------------------------------------
      1          6           0       -2.991247    2.303984   -1.165520
      2          6           0       -3.121071    1.032065   -1.732874
      3          6           0       -2.858257   -0.113365   -0.975598
      4          6           0       -2.465919    0.050650    0.351979
      5          6           0       -2.327606    1.304278    0.945759
      6          6           0       -2.595627    2.435798    0.169631
      7          1           0       -3.197430    3.188379   -1.761113
      8          1           0       -3.428146    0.926673   -2.769523
      9          1           0       -2.950851   -1.110056   -1.389665
     10          1           0       -2.019717    1.377485    1.981743
     11          1           0       -2.493974    3.422328    0.612882
     12          7           0       -2.184934   -1.154603    1.163651
     13          8           0       -1.840787   -0.983214    2.331053
     14          8           0       -2.314165   -2.247849    0.617070
     15          6           0        2.737749   -0.893784   -0.121924
     16          6           0        2.134140   -1.539440   -1.369630
     17          6           0        1.180193   -2.687532   -1.038475
     18          1           0        3.270766   -1.659579    0.458073
     19          1           0        1.926308   -0.523924    0.520074
     20          1           0        2.946522   -1.906739   -2.009741
     21          1           0        1.602661   -0.771980   -1.946823
     22          1           0        0.350114   -2.332273   -0.419313
     23          1           0        1.701612   -3.473479   -0.482588
     24          1           0        0.760203   -3.134657   -1.944867
     25          6           0        3.693556    0.255602   -0.436682
     26          6           0        4.297165    0.901258    0.811024
     27          6           0        5.251112    2.049350    0.479870
     28          1           0        4.504998   -0.114258   -1.078679
     29          1           0        3.160540    1.021397   -1.016679
     30          1           0        4.828644    0.133798    1.388217
     31          1           0        3.484783    1.268557    1.451136
     32          1           0        4.729694    2.835298   -0.076017
     33          1           0        6.081191    1.694091   -0.139293
     34          1           0        5.671103    2.496476    1.386262
 ---------------------------------------------------------------------

 SCF Done:  E(RHF) =  -669.536028368     A.U. after   15 cycles
 E2 =    -0.2091559067D+01 EUMP2 =    -0.67162758743535D+03

 The electronic state is 1-A.
 Alpha  occ. eigenvalues --  -20.60957 -20.60945 -15.85968 -11.31297 -11.27862
 Alpha  occ. eigenvalues --  -11.27852 -11.27596 -11.26866 -11.26855 -11.21418
 Alpha  occ. eigenvalues --  -11.21173 -11.21156 -11.20985 -11.20978 -11.20303
 Alpha  occ. eigenvalues --   -1.60012  -1.39566  -1.19465  -1.08870  -1.08120
 Alpha  occ. eigenvalues --   -1.04860  -1.03186  -0.95713  -0.95611  -0.86621
 Alpha  occ. eigenvalues --   -0.86260  -0.82542  -0.79251  -0.77920  -0.77595
 Alpha  occ. eigenvalues --   -0.72191  -0.71337  -0.70571  -0.65119  -0.64861
 Alpha  occ. eigenvalues --   -0.64758  -0.62205  -0.60588  -0.59010  -0.57226
 Alpha  occ. eigenvalues --   -0.55365  -0.54901  -0.53194  -0.52950  -0.52307
 Alpha  occ. eigenvalues --   -0.52023  -0.49564  -0.48960  -0.48947  -0.47566
 Alpha  occ. eigenvalues --   -0.46331  -0.45471  -0.45416  -0.44828  -0.43446
 Alpha  occ. eigenvalues --   -0.37446  -0.36460
 Alpha virt. eigenvalues --    0.04917   0.11176   0.16386   0.21314   0.23080
 Alpha virt. eigenvalues --    0.24535   0.26866   0.27230   0.27698   0.28050
 Alpha virt. eigenvalues --    0.28574   0.30820   0.31735   0.32075   0.32375

 Mulliken charges:
               1
     1  C   -0.170597
     2  C   -0.218631
     3  C   -0.170936
     4  C    0.157478
     5  C   -0.171182
     6  C   -0.218630
     7  H    0.226057
     8  H    0.224003
     9  H    0.276594
    10  H    0.275791
    11  H    0.223842
    12  N    0.486783
    13  O   -0.458446
    14  O   -0.456944
    15  C   -0.297626
    16  C   -0.300411
    17  C   -0.478770
    18  H    0.151768
    19  H    0.150217
    20  H    0.149513
    21  H    0.146292
    22  H    0.165838
    23  H    0.156637
    24  H    0.155797
    25  C   -0.297705
    26  C   -0.299260
    27  C   -0.475369
    28  H    0.148849
    29  H    0.146422
    30  H    0.153389
    31  H    0.151461
    32  H    0.152872
    33  H    0.155123
    34  H    0.159782
 Sum of Mulliken charges =  -0.00000

 Dipole moment (field-independent basis, Debye):
    X=             -1.1403    Y=              4.1970    Z=             -2.7684  Tot=              5.1555
 Quadrupole moment (field-independent basis, Debye-Ang):
   XX=            -90.5090   YY=            -93.2310   ZZ=            -94.0807
   XY=            -11.2070   XZ=              8.0774   YZ=              3.8459

 Normal termination of Gaussian 16 at Thu May  6 17:22:38 2021.
