 Gaussian 16, Revision A.03,
 Gaussian 16:  EM64L-G16RevA.03 25-Dec-2016

 -------------
 #p 6-31g* mp2
 -------------

 ------------------------------------------------------
 Input file generated by CHIRIPA (05-May-2021 14:55:25)
 ------------------------------------------------------
 Symbolic Z-matrix:
 Charge =  0 Multiplicity = 1

                         Standard orientation:
 ---------------------------------------------------------------------
 Center     Atomic      Atomic             Coordinates (Angstroms)
 Number     Number       Type             X           Y           Z
 ---------------------------------------------------------------------
      1          6           0       -3.234531    2.055395    0.617094
      2          6           0       -2.065933    1.768695   -0.096139
      3          6           0       -1.763935    0.454580   -0.465529
      4          6           0       -2.656854   -0.552892   -0.103610
      5          6           0       -3.829112   -0.299111    0.606810
      6          6           0       -4.110846    1.022399    0.965678
      7          1           0       -3.461259    3.079103    0.899958
      8          1           0       -1.383541    2.568924   -0.368206
      9          1           0       -0.866265    0.204509   -1.017860
     10          1           0       -4.490033   -1.117995    0.863775
     11          1           0       -5.019130    1.242107    1.519567
     12          7           0       -2.347869   -1.948001   -0.489097
     13          8           0       -3.150843   -2.817708   -0.158219
     14          8           0       -1.308563   -2.145363   -1.114819
     15          6           0        3.500683   -0.297502    0.328529
     16          6           0        4.888534   -0.927968    0.208663
     17          6           0        4.942047   -2.350131    0.767574
     18          1           0        3.198548   -0.289515    1.384747
     19          1           0        2.772333   -0.927886   -0.200165
     20          1           0        5.614276   -0.295857    0.736253
     21          1           0        5.187482   -0.934281   -0.847370
     22          1           0        4.239979   -2.999949    0.235186
     23          1           0        4.669198   -2.357898    1.827807
     24          1           0        5.943242   -2.781738    0.671746
     25          6           0        3.431230    1.124284   -0.225933
     26          6           0        2.043379    1.754749   -0.106066
     27          6           0        1.989865    3.176913   -0.664977
     28          1           0        4.159579    1.754668    0.302762
     29          1           0        3.733365    1.116296   -1.282150
     30          1           0        1.744431    1.761063    0.949967
     31          1           0        1.317636    1.122639   -0.633656
     32          1           0        2.262715    3.184680   -1.725211
     33          1           0        2.691934    3.826731   -0.132590
     34          1           0        0.988670    3.608520   -0.569149
 ---------------------------------------------------------------------

 SCF Done:  E(RHF) =  -669.535199483     A.U. after   15 cycles
 E2 =    -0.2092120718D+01 EUMP2 =    -0.67162732020046D+03

 The electronic state is 1-A.
 Alpha  occ. eigenvalues --  -20.60756 -20.60751 -15.85807 -11.31143 -11.27719
 Alpha  occ. eigenvalues --  -11.27695 -11.27458 -11.26734 -11.26702 -11.22253
 Alpha  occ. eigenvalues --  -11.21888 -11.21685 -11.21538 -11.21378 -11.20870
 Alpha  occ. eigenvalues --   -1.59830  -1.39384  -1.19319  -1.08722  -1.08669
 Alpha  occ. eigenvalues --   -1.04723  -1.03807  -0.96245  -0.95560  -0.87263
 Alpha  occ. eigenvalues --   -0.86120  -0.82396  -0.79921  -0.78413  -0.77434
 Alpha  occ. eigenvalues --   -0.72028  -0.71151  -0.70443  -0.65314  -0.64970
 Alpha  occ. eigenvalues --   -0.64735  -0.62164  -0.61161  -0.59659  -0.57836
 Alpha  occ. eigenvalues --   -0.55504  -0.55221  -0.53059  -0.53045  -0.52899
 Alpha  occ. eigenvalues --   -0.52523  -0.50163  -0.48787  -0.48781  -0.48197
 Alpha  occ. eigenvalues --   -0.46932  -0.45953  -0.45825  -0.44795  -0.44039
 Alpha  occ. eigenvalues --   -0.37303  -0.36305
 Alpha virt. eigenvalues --    0.05078   0.11314   0.16539   0.19303   0.22978
 Alpha virt. eigenvalues --    0.23804   0.24884   0.26107   0.26874   0.28462
 Alpha virt. eigenvalues --    0.29438   0.29835   0.31360   0.31628   0.32592

 Mulliken charges:
               1
     1  C   -0.172014
     2  C   -0.223300
     3  C   -0.176303
     4  C    0.159714
     5  C   -0.170872
     6  C   -0.218603
     7  H    0.225720
     8  H    0.230129
     9  H    0.279838
    10  H    0.275387
    11  H    0.223227
    12  N    0.488083
    13  O   -0.460421
    14  O   -0.461150
    15  C   -0.301149
    16  C   -0.299938
    17  C   -0.476631
    18  H    0.149668
    19  H    0.157485
    20  H    0.150441
    21  H    0.152502
    22  H    0.160341
    23  H    0.154951
    24  H    0.159910
    25  C   -0.298089
    26  C   -0.304714
    27  C   -0.478125
    28  H    0.150270
    29  H    0.151383
    30  H    0.154755
    31  H    0.147997
    32  H    0.159261
    33  H    0.160190
    34  H    0.150058
 Sum of Mulliken charges =  -0.00000

 Dipole moment (field-independent basis, Debye):
    X=             -0.9418    Y=              4.8372    Z=              1.3774  Tot=              5.1169
 Quadrupole moment (field-independent basis, Debye-Ang):
   XX=            -85.1768   YY=           -101.2815   ZZ=            -94.0789
   XY=            -10.8636   XZ=             -5.6562   YZ=             -1.2464

 Normal termination of Gaussian 16 at Thu May  6 07:58:26 2021.
