 Gaussian 16, Revision A.03,
 Gaussian 16:  EM64L-G16RevA.03 25-Dec-2016

 -------------
 #p 6-31g* mp2
 -------------

 ------------------------------------------------------
 Input file generated by CHIRIPA (05-May-2021 14:57:23)
 ------------------------------------------------------
 Symbolic Z-matrix:
 Charge =  0 Multiplicity = 1

                         Standard orientation:
 ---------------------------------------------------------------------
 Center     Atomic      Atomic             Coordinates (Angstroms)
 Number     Number       Type             X           Y           Z
 ---------------------------------------------------------------------
      1          6           0        2.101509   -2.353318    0.343096
      2          6           0        3.255680   -2.353572   -0.447100
      3          6           0        3.990452   -1.178492   -0.631077
      4          6           0        3.540312   -0.015933   -0.007282
      5          6           0        2.394430    0.016369    0.785941
      6          6           0        1.675319   -1.170434    0.956014
      7          1           0        1.536803   -3.270702    0.480613
      8          1           0        3.589025   -3.270737   -0.924314
      9          1           0        4.887544   -1.150409   -1.237587
     10          1           0        2.087003    0.946217    1.248856
     11          1           0        0.779349   -1.167273    1.570239
     12          7           0        4.309892    1.234277   -0.194690
     13          8           0        3.892325    2.245347    0.365677
     14          8           0        5.316085    1.179448   -0.898399
     15          6           0       -2.914695    2.692778    0.087342
     16          6           0       -4.099601    2.243763   -0.505029
     17          6           0       -4.386338    0.877076   -0.572068
     18          6           0       -3.461696   -0.016884   -0.034332
     19          6           0       -2.272548    0.399429    0.562241
     20          6           0       -2.006551    1.770803    0.618151
     21          1           0       -2.700006    3.756275    0.135096
     22          1           0       -4.806713    2.957504   -0.918083
     23          1           0       -5.296069    0.502065   -1.025033
     24          1           0       -1.586996   -0.336063    0.965341
     25          1           0       -1.085542    2.116643    1.078784
     26          7           0       -3.754273   -1.466217   -0.099412
     27          8           0       -2.923342   -2.233535    0.381640
     28          8           0       -4.808988   -1.807441   -0.630241
 ---------------------------------------------------------------------

 SCF Done:  E(RHF) =  -868.338089205     A.U. after   16 cycles
 E2 =    -0.2599530519D+01 EUMP2 =    -0.87093761972377D+03

 The electronic state is 1-A.
 Alpha  occ. eigenvalues --  -20.61357 -20.61319 -20.61067 -20.61045 -15.86392
 Alpha  occ. eigenvalues --  -15.86114 -11.31670 -11.31434 -11.28313 -11.28180
 Alpha  occ. eigenvalues --  -11.28102 -11.27970 -11.27888 -11.27637 -11.27236
 Alpha  occ. eigenvalues --  -11.27158 -11.27051 -11.26911  -1.60411  -1.60134
 Alpha  occ. eigenvalues --   -1.39972  -1.39691  -1.19822  -1.19598  -1.09216
 Alpha  occ. eigenvalues --   -1.08970  -1.05230  -1.05015  -0.96077  -0.95819
 Alpha  occ. eigenvalues --   -0.86626  -0.86391  -0.82929  -0.82674  -0.78019
 Alpha  occ. eigenvalues --   -0.77739  -0.72619  -0.72332  -0.71727  -0.71457
 Alpha  occ. eigenvalues --   -0.70927  -0.70646  -0.65479  -0.65302  -0.65246
 Alpha  occ. eigenvalues --   -0.64957  -0.62709  -0.62269  -0.55690  -0.55407
 Alpha  occ. eigenvalues --   -0.53537  -0.53425  -0.53298  -0.53011  -0.49384
 Alpha  occ. eigenvalues --   -0.49352  -0.49096  -0.49079  -0.45398  -0.45109
 Alpha  occ. eigenvalues --   -0.37760  -0.37512  -0.36851  -0.36591
 Alpha virt. eigenvalues --    0.04546   0.04816   0.10770   0.11057   0.16056
 Alpha virt. eigenvalues --    0.16264   0.18525   0.22285   0.24879   0.25663
 Alpha virt. eigenvalues --    0.28323   0.29229   0.30611   0.31229   0.32562

 Mulliken charges:
               1
     1  C   -0.168963
     2  C   -0.218771
     3  C   -0.169887
     4  C    0.158818
     5  C   -0.172517
     6  C   -0.221613
     7  H    0.235036
     8  H    0.226161
     9  H    0.276536
    10  H    0.268424
    11  H    0.222338
    12  N    0.488422
    13  O   -0.463852
    14  O   -0.458681
    15  C   -0.169768
    16  C   -0.218370
    17  C   -0.169794
    18  C    0.158913
    19  C   -0.172680
    20  C   -0.218934
    21  H    0.229813
    22  H    0.225860
    23  H    0.276799
    24  H    0.269652
    25  H    0.222877
    26  N    0.488172
    27  O   -0.466720
    28  O   -0.457272
 Sum of Mulliken charges =  -0.00000

 Dipole moment (field-independent basis, Debye):
    X=             -1.7401    Y=              0.6457    Z=              0.7344  Tot=              1.9960
 Quadrupole moment (field-independent basis, Debye-Ang):
   XX=           -125.0076   YY=           -103.7199   ZZ=           -103.4440
   XY=            -37.2098   XZ=              1.7103   YZ=              0.9405

 Normal termination of Gaussian 16 at Fri May  7 11:01:14 2021.
