 Gaussian 16, Revision A.03,
 Gaussian 16:  EM64L-G16RevA.03 25-Dec-2016

 -------------
 #p 6-31g* mp2
 -------------

 ------------------------------------------------------
 Input file generated by CHIRIPA (05-May-2021 14:55:20)
 ------------------------------------------------------
 Symbolic Z-matrix:
 Charge =  0 Multiplicity = 1

                         Standard orientation:
 ---------------------------------------------------------------------
 Center     Atomic      Atomic             Coordinates (Angstroms)
 Number     Number       Type             X           Y           Z
 ---------------------------------------------------------------------
      1          6           0        3.450737    2.578506   -0.227181
      2          6           0        3.849266    1.664208   -1.207872
      3          6           0        3.664606    0.291745   -1.016052
      4          6           0        3.075570   -0.133473    0.173703
      5          6           0        2.667948    0.752704    1.169607
      6          6           0        2.862387    2.120644    0.956342
      7          1           0        3.597984    3.642912   -0.384522
      8          1           0        4.306450    2.016927   -2.127990
      9          1           0        3.963819   -0.437923   -1.758665
     10          1           0        2.214981    0.370922    2.076515
     11          1           0        2.551908    2.828410    1.719699
     12          7           0        2.874902   -1.584043    0.388126
     13          8           0        2.353617   -1.933185    1.445008
     14          8           0        3.242704   -2.344392   -0.504750
     15          6           0       -4.494469    0.283231    0.200692
     16          6           0       -5.919877    0.108360   -0.324301
     17          6           0       -6.939578    0.951798    0.441608
     18          1           0       -4.467471    0.015832    1.265921
     19          1           0       -4.215505    1.344171    0.137581
     20          1           0       -6.195568   -0.952145   -0.261506
     21          1           0       -5.943445    0.376023   -1.388451
     22          1           0       -6.691897    2.015729    0.368778
     23          1           0       -6.945453    0.680016    1.502127
     24          1           0       -7.951848    0.811528    0.049825
     25          6           0       -3.463655   -0.553565   -0.554902
     26          6           0       -2.038248   -0.378693   -0.029910
     27          6           0       -1.018547   -1.222131   -0.795819
     28          1           0       -3.742619   -1.614504   -0.491792
     29          1           0       -3.490653   -0.286166   -1.620132
     30          1           0       -2.014679   -0.646357    1.034241
     31          1           0       -1.762557    0.681811   -0.092705
     32          1           0       -1.012672   -0.950350   -1.856338
     33          1           0       -1.266228   -2.286063   -0.722989
     34          1           0       -0.006277   -1.081862   -0.404035
 ---------------------------------------------------------------------

 SCF Done:  E(RHF) =  -669.535602810     A.U. after   15 cycles
 E2 =    -0.2091506775D+01 EUMP2 =    -0.67162710958537D+03

 The electronic state is 1-A.
 Alpha  occ. eigenvalues --  -20.60812 -20.60806 -15.85852 -11.31219 -11.27788
 Alpha  occ. eigenvalues --  -11.27782 -11.27530 -11.26801 -11.26792 -11.21497
 Alpha  occ. eigenvalues --  -11.21332 -11.21259 -11.21154 -11.21007 -11.20642
 Alpha  occ. eigenvalues --   -1.59885  -1.39437  -1.19393  -1.08792  -1.08247
 Alpha  occ. eigenvalues --   -1.04791  -1.03320  -0.95761  -0.95625  -0.86777
 Alpha  occ. eigenvalues --   -0.86191  -0.82453  -0.79390  -0.78064  -0.77501
 Alpha  occ. eigenvalues --   -0.72074  -0.71231  -0.70498  -0.65045  -0.64877
 Alpha  occ. eigenvalues --   -0.64794  -0.62138  -0.60711  -0.59142  -0.57379
 Alpha  occ. eigenvalues --   -0.55295  -0.55040  -0.53135  -0.52884  -0.52441
 Alpha  occ. eigenvalues --   -0.52182  -0.49695  -0.48834  -0.48831  -0.47709
 Alpha  occ. eigenvalues --   -0.46425  -0.45603  -0.45529  -0.44833  -0.43578
 Alpha  occ. eigenvalues --   -0.37366  -0.36391
 Alpha virt. eigenvalues --    0.05027   0.11240   0.16503   0.21392   0.23025
 Alpha virt. eigenvalues --    0.24399   0.26825   0.27282   0.27631   0.27921
 Alpha virt. eigenvalues --    0.28376   0.30582   0.31632   0.31717   0.32025

 Mulliken charges:
               1
     1  C   -0.170699
     2  C   -0.218576
     3  C   -0.170816
     4  C    0.155576
     5  C   -0.171824
     6  C   -0.218336
     7  H    0.225691
     8  H    0.223571
     9  H    0.275983
    10  H    0.276036
    11  H    0.223672
    12  N    0.490390
    13  O   -0.459691
    14  O   -0.458724
    15  C   -0.297923
    16  C   -0.299523
    17  C   -0.475553
    18  H    0.149885
    19  H    0.147205
    20  H    0.152849
    21  H    0.151414
    22  H    0.153980
    23  H    0.155266
    24  H    0.160076
    25  C   -0.298327
    26  C   -0.300124
    27  C   -0.472936
    28  H    0.151414
    29  H    0.148488
    30  H    0.154065
    31  H    0.146888
    32  H    0.151713
    33  H    0.161513
    34  H    0.157378
 Sum of Mulliken charges =  -0.00000

 Dipole moment (field-independent basis, Debye):
    X=              0.7745    Y=              5.0441    Z=             -0.7500  Tot=              5.1580
 Quadrupole moment (field-independent basis, Debye-Ang):
   XX=            -91.1474   YY=            -96.0846   ZZ=            -90.9880
   XY=             16.1832   XZ=             -4.1559   YZ=              1.2102

 Normal termination of Gaussian 16 at Thu May  6 20:41:45 2021.
