 Gaussian 16, Revision A.03,
 Gaussian 16:  EM64L-G16RevA.03 25-Dec-2016

 -------------
 #p 6-31g* mp2
 -------------

 ------------------------------------------------------
 Input file generated by CHIRIPA (05-May-2021 14:57:25)
 ------------------------------------------------------
 Symbolic Z-matrix:
 Charge =  0 Multiplicity = 1

                         Standard orientation:
 ---------------------------------------------------------------------
 Center     Atomic      Atomic             Coordinates (Angstroms)
 Number     Number       Type             X           Y           Z
 ---------------------------------------------------------------------
      1          6           0       -1.508327   -1.625939    0.835376
      2          6           0       -2.105966   -0.769803    1.766171
      3          6           0       -3.176875    0.047954    1.393376
      4          6           0       -3.626719   -0.016193    0.075493
      5          6           0       -3.052201   -0.858742   -0.874944
      6          6           0       -1.982516   -1.667603   -0.479892
      7          1           0       -0.676894   -2.257737    1.133616
      8          1           0       -1.739795   -0.735353    2.788314
      9          1           0       -3.658011    0.719957    2.093617
     10          1           0       -3.439246   -0.871023   -1.886608
     11          1           0       -1.520317   -2.331523   -1.204893
     12          7           0       -4.759794    0.844821   -0.330950
     13          8           0       -5.137511    0.769683   -1.498135
     14          8           0       -5.248728    1.578517    0.525362
     15          6           0        2.959003   -2.311451   -0.331992
     16          6           0        1.956125   -1.379062   -0.617312
     17          6           0        2.211364   -0.008271   -0.515655
     18          6           0        3.486473    0.396845   -0.124158
     19          6           0        4.506520   -0.507652    0.166839
     20          6           0        4.228761   -1.873542    0.058485
     21          1           0        2.751980   -3.374411   -0.413563
     22          1           0        0.969089   -1.716264   -0.920789
     23          1           0        1.453372    0.735141   -0.730606
     24          1           0        5.480685   -0.141123    0.466967
     25          1           0        5.009538   -2.595386    0.280691
     26          7           0        3.768603    1.845446   -0.012993
     27          8           0        4.900218    2.176697    0.333936
     28          8           0        2.852781    2.622179   -0.274895
 ---------------------------------------------------------------------

 SCF Done:  E(RHF) =  -868.336204277     A.U. after   16 cycles
 E2 =    -0.2601262916D+01 EUMP2 =    -0.87093746719324D+03

 The electronic state is 1-A.
 Alpha  occ. eigenvalues --  -20.61206 -20.61200 -20.61150 -20.61140 -15.86265
 Alpha  occ. eigenvalues --  -15.86211 -11.31779 -11.31761 -11.28425 -11.28374
 Alpha  occ. eigenvalues --  -11.28362 -11.28332 -11.28207 -11.28206 -11.27547
 Alpha  occ. eigenvalues --  -11.27464 -11.27405 -11.27357  -1.60280  -1.60219
 Alpha  occ. eigenvalues --   -1.39828  -1.39767  -1.20002  -1.19969  -1.09399
 Alpha  occ. eigenvalues --   -1.09329  -1.05444  -1.05380  -0.96166  -0.96148
 Alpha  occ. eigenvalues --   -0.86915  -0.86728  -0.83009  -0.82952  -0.78050
 Alpha  occ. eigenvalues --   -0.77932  -0.72480  -0.72427  -0.71608  -0.71544
 Alpha  occ. eigenvalues --   -0.71140  -0.71081  -0.65809  -0.65638  -0.65578
 Alpha  occ. eigenvalues --   -0.65169  -0.62866  -0.62609  -0.55984  -0.55914
 Alpha  occ. eigenvalues --   -0.53880  -0.53705  -0.53542  -0.53333  -0.49255
 Alpha  occ. eigenvalues --   -0.49223  -0.49199  -0.49166  -0.45199  -0.45131
 Alpha  occ. eigenvalues --   -0.38124  -0.37931  -0.37017  -0.36939
 Alpha virt. eigenvalues --    0.04406   0.04692   0.10379   0.10590   0.15710
 Alpha virt. eigenvalues --    0.16270   0.19213   0.21844   0.25228   0.27126
 Alpha virt. eigenvalues --    0.27697   0.28719   0.29597   0.31143   0.31661

 Mulliken charges:
               1
     1  C   -0.170668
     2  C   -0.218523
     3  C   -0.168386
     4  C    0.158843
     5  C   -0.169704
     6  C   -0.227315
     7  H    0.224561
     8  H    0.227338
     9  H    0.279340
    10  H    0.277825
    11  H    0.217439
    12  N    0.488198
    13  O   -0.459063
    14  O   -0.457436
    15  C   -0.174375
    16  C   -0.223930
    17  C   -0.172359
    18  C    0.158691
    19  C   -0.170164
    20  C   -0.218241
    21  H    0.224015
    22  H    0.220181
    23  H    0.280018
    24  H    0.277676
    25  H    0.225130
    26  N    0.487840
    27  O   -0.459079
    28  O   -0.457854
 Sum of Mulliken charges =  -0.00000

 Dipole moment (field-independent basis, Debye):
    X=              2.9023    Y=             -7.8857    Z=              1.1640  Tot=              8.4830
 Quadrupole moment (field-independent basis, Debye-Ang):
   XX=           -135.7091   YY=           -109.4434   ZZ=           -100.4889
   XY=             -8.6193   XZ=             -5.0992   YZ=              1.7768

 Normal termination of Gaussian 16 at Thu May  6 11:26:15 2021.
