 Gaussian 16, Revision A.03,
 Gaussian 16:  EM64L-G16RevA.03 25-Dec-2016

 -------------
 #p 6-31g* mp2
 -------------

 ------------------------------------------------------
 Input file generated by CHIRIPA (05-May-2021 14:51:12)
 ------------------------------------------------------
 Symbolic Z-matrix:
 Charge =  0 Multiplicity = 1

                         Standard orientation:
 ---------------------------------------------------------------------
 Center     Atomic      Atomic             Coordinates (Angstroms)
 Number     Number       Type             X           Y           Z
 ---------------------------------------------------------------------
      1          6           0        3.974569    0.099710    0.519660
      2          6           0        2.622759   -0.553304    0.229545
      3          6           0        1.479521    0.074710    1.027292
      4          1           0        4.189238    0.021626    1.594260
      5          1           0        3.912381    1.172560    0.290488
      6          1           0        2.687885   -1.624862    0.457885
      7          1           0        2.411371   -0.473826   -0.844520
      8          1           0        1.385788    1.139973    0.792705
      9          1           0        1.663873   -0.017603    2.102510
     10          1           0        0.522443   -0.407219    0.804571
     11          6           0        5.127385   -0.517245   -0.270346
     12          6           0        6.479195    0.135769    0.019770
     13          6           0        7.622433   -0.492246   -0.777977
     14          1           0        5.189573   -1.590096   -0.041173
     15          1           0        4.912716   -0.439161   -1.344946
     16          1           0        6.690583    0.056290    1.093834
     17          1           0        6.414069    1.207326   -0.208570
     18          1           0        7.438081   -0.399933   -1.853195
     19          1           0        7.716166   -1.557509   -0.543391
     20          1           0        8.579511   -0.010317   -0.555256
     21          6           0       -4.985832   -0.384959    0.079845
     22          6           0       -6.428808   -0.278491   -0.414595
     23          6           0       -7.286315   -1.473705    0.002465
     24          1           0       -4.539622   -1.311136   -0.307502
     25          1           0       -4.986430   -0.472571    1.175162
     26          1           0       -6.425422   -0.189715   -1.508544
     27          1           0       -6.871574    0.647636   -0.026183
     28          1           0       -7.319475   -1.562130    1.093191
     29          1           0       -6.870788   -2.404238   -0.397592
     30          1           0       -8.313963   -1.376984   -0.361465
     31          6           0       -4.116122    0.802495   -0.329160
     32          6           0       -2.673146    0.696026    0.165281
     33          6           0       -1.815639    1.891240   -0.251779
     34          1           0       -4.115524    0.890106   -1.424476
     35          1           0       -4.562333    1.728672    0.058187
     36          1           0       -2.230380   -0.230099   -0.223131
     37          1           0       -2.676532    0.607251    1.259229
     38          1           0       -2.231166    2.821774    0.148278
     39          1           0       -1.782479    1.979665   -1.342505
     40          1           0       -0.787991    1.794520    0.112151
 ---------------------------------------------------------------------

 SCF Done:  E(RHF) =  -470.732809829     A.U. after   11 cycles
 E2 =    -0.1582776992D+01 EUMP2 =    -0.47231558682119D+03

 The electronic state is 1-A.
 Alpha  occ. eigenvalues --  -11.21622 -11.21608 -11.21580 -11.21551 -11.21417
 Alpha  occ. eigenvalues --  -11.21371 -11.21358 -11.21311 -11.21089 -11.21076
 Alpha  occ. eigenvalues --  -11.21055 -11.20905  -1.08446  -1.08389  -1.03565
 Alpha  occ. eigenvalues --   -1.03465  -0.96047  -0.95883  -0.87076  -0.86892
 Alpha  occ. eigenvalues --   -0.79623  -0.79541  -0.78257  -0.78207  -0.65079
 Alpha  occ. eigenvalues --   -0.65022  -0.60990  -0.60877  -0.59550  -0.59150
 Alpha  occ. eigenvalues --   -0.57648  -0.57511  -0.55300  -0.55206  -0.52889
 Alpha  occ. eigenvalues --   -0.52535  -0.52412  -0.52227  -0.49912  -0.49865
 Alpha  occ. eigenvalues --   -0.47985  -0.47804  -0.46627  -0.46583  -0.45802
 Alpha  occ. eigenvalues --   -0.45747  -0.45715  -0.45674  -0.43815  -0.43677
 Alpha virt. eigenvalues --    0.21994   0.23028   0.23459   0.25055   0.26452
 Alpha virt. eigenvalues --    0.26542   0.26917   0.27210   0.27728   0.28884
 Alpha virt. eigenvalues --    0.29670   0.30971   0.31510   0.31784   0.32559

 Mulliken charges:
               1
     1  C   -0.298730
     2  C   -0.299606
     3  C   -0.481992
     4  H    0.149704
     5  H    0.149848
     6  H    0.152025
     7  H    0.152259
     8  H    0.157055
     9  H    0.155534
    10  H    0.165288
    11  C   -0.298299
    12  C   -0.299670
    13  C   -0.475717
    14  H    0.149540
    15  H    0.149702
    16  H    0.151953
    17  H    0.151991
    18  H    0.155199
    19  H    0.155179
    20  H    0.160290
    21  C   -0.298246
    22  C   -0.299602
    23  C   -0.475677
    24  H    0.149421
    25  H    0.149485
    26  H    0.151866
    27  H    0.151928
    28  H    0.155156
    29  H    0.155110
    30  H    0.160179
    31  C   -0.298416
    32  C   -0.299354
    33  C   -0.483594
    34  H    0.149382
    35  H    0.149694
    36  H    0.151079
    37  H    0.152115
    38  H    0.154173
    39  H    0.153864
    40  H    0.169885
 Sum of Mulliken charges =  -0.00000

 Dipole moment (field-independent basis, Debye):
    X=              0.0442    Y=             -0.0101    Z=              0.0178  Tot=              0.0487
 Quadrupole moment (field-independent basis, Debye-Ang):
   XX=            -86.2542   YY=            -84.9017   ZZ=            -83.7615
   XY=             -0.4688   XZ=              0.5000   YZ=             -0.0628

 Normal termination of Gaussian 16 at Wed May  5 19:54:15 2021.
