 Gaussian 16, Revision A.03,
 Gaussian 16:  EM64L-G16RevA.03 25-Dec-2016

 -------------
 #p 6-31g* mp2
 -------------

 ------------------------------------------------------
 Input file generated by CHIRIPA (05-May-2021 14:57:24)
 ------------------------------------------------------
 Symbolic Z-matrix:
 Charge =  0 Multiplicity = 1

                         Standard orientation:
 ---------------------------------------------------------------------
 Center     Atomic      Atomic             Coordinates (Angstroms)
 Number     Number       Type             X           Y           Z
 ---------------------------------------------------------------------
      1          6           0        0.834206   -2.082743   -0.582713
      2          6           0        1.808392   -2.249396    0.407090
      3          6           0        2.759196   -1.251872    0.642604
      4          6           0        2.706273   -0.095259   -0.133755
      5          6           0        1.748101    0.100294   -1.127211
      6          6           0        0.807218   -0.910497   -1.345360
      7          1           0        0.099452   -2.862796   -0.758921
      8          1           0        1.831760   -3.158730    1.000900
      9          1           0        3.524348   -1.354848    1.402444
     10          1           0        1.750178    1.017801   -1.703054
     11          1           0        0.051802   -0.778342   -2.114728
     12          7           0        3.707595    0.967797    0.106381
     13          8           0        3.639550    1.977457   -0.591182
     14          8           0        4.541516    0.771232    0.987615
     15          6           0       -2.574687   -2.252322    0.192329
     16          6           0       -2.371610   -1.545971    1.382434
     17          6           0       -2.351160   -0.148069    1.383753
     18          6           0       -2.538010    0.514357    0.171497
     19          6           0       -2.742595   -0.161061   -1.030688
     20          6           0       -2.759206   -1.558835   -1.008317
     21          1           0       -2.589082   -3.338195    0.200505
     22          1           0       -2.228033   -2.081904    2.316353
     23          1           0       -2.195935    0.423767    2.290576
     24          1           0       -2.882788    0.400971   -1.946047
     25          1           0       -2.917126   -2.104775   -1.934090
     26          7           0       -2.518392    1.994185    0.160354
     27          8           0       -2.685484    2.554325   -0.920832
     28          8           0       -2.336296    2.565914    1.233016
 ---------------------------------------------------------------------

 SCF Done:  E(RHF) =  -868.334412223     A.U. after   16 cycles
 E2 =    -0.2605136804D+01 EUMP2 =    -0.87093954902758D+03

 The electronic state is 1-A.
 Alpha  occ. eigenvalues --  -20.61362 -20.61338 -20.60679 -20.60658 -15.86415
 Alpha  occ. eigenvalues --  -15.85731 -11.32032 -11.31184 -11.28672 -11.28582
 Alpha  occ. eigenvalues --  -11.28458 -11.27821 -11.27752 -11.27745 -11.27663
 Alpha  occ. eigenvalues --  -11.27588 -11.26878 -11.26779  -1.60422  -1.59746
 Alpha  occ. eigenvalues --   -1.39970  -1.39296  -1.20252  -1.19392  -1.09624
 Alpha  occ. eigenvalues --   -1.08774  -1.05692  -1.04816  -0.96407  -0.95592
 Alpha  occ. eigenvalues --   -0.87079  -0.86224  -0.83227  -0.82427  -0.78207
 Alpha  occ. eigenvalues --   -0.77449  -0.72628  -0.71950  -0.71751  -0.71422
 Alpha  occ. eigenvalues --   -0.71071  -0.70545  -0.65903  -0.65688  -0.65055
 Alpha  occ. eigenvalues --   -0.64879  -0.63014  -0.62182  -0.56236  -0.55452
 Alpha  occ. eigenvalues --   -0.54307  -0.53773  -0.52972  -0.52690  -0.49406
 Alpha  occ. eigenvalues --   -0.49368  -0.48719  -0.48695  -0.45320  -0.44683
 Alpha  occ. eigenvalues --   -0.38462  -0.37397  -0.37118  -0.36270
 Alpha virt. eigenvalues --    0.04230   0.05143   0.10244   0.11221   0.15563
 Alpha virt. eigenvalues --    0.16617   0.19625   0.21964   0.25684   0.26290
 Alpha virt. eigenvalues --    0.27908   0.29122   0.29935   0.31118   0.32373

 Mulliken charges:
               1
     1  C   -0.161680
     2  C   -0.221984
     3  C   -0.171043
     4  C    0.158558
     5  C   -0.172390
     6  C   -0.215335
     7  H    0.215065
     8  H    0.218747
     9  H    0.275160
    10  H    0.279308
    11  H    0.218502
    12  N    0.488208
    13  O   -0.457415
    14  O   -0.461455
    15  C   -0.178155
    16  C   -0.213483
    17  C   -0.166856
    18  C    0.164355
    19  C   -0.175393
    20  C   -0.225062
    21  H    0.224085
    22  H    0.225609
    23  H    0.280158
    24  H    0.276534
    25  H    0.223178
    26  N    0.487628
    27  O   -0.459837
    28  O   -0.455008
 Sum of Mulliken charges =  -0.00000

 Dipole moment (field-independent basis, Debye):
    X=             -3.7409    Y=             -8.6555    Z=             -0.6324  Tot=              9.4505
 Quadrupole moment (field-independent basis, Debye-Ang):
   XX=           -123.9581   YY=           -109.4092   ZZ=            -97.3862
   XY=              2.0882   XZ=              0.2485   YZ=             -2.7105

 Normal termination of Gaussian 16 at Fri May  7 06:33:15 2021.
