 Gaussian 16, Revision A.03,
 Gaussian 16:  EM64L-G16RevA.03 25-Dec-2016

 -------------
 #p 6-31g* mp2
 -------------

 ------------------------------------------------------
 Input file generated by CHIRIPA (05-May-2021 14:55:25)
 ------------------------------------------------------
 Symbolic Z-matrix:
 Charge =  0 Multiplicity = 1

                         Standard orientation:
 ---------------------------------------------------------------------
 Center     Atomic      Atomic             Coordinates (Angstroms)
 Number     Number       Type             X           Y           Z
 ---------------------------------------------------------------------
      1          6           0        4.372787    0.060408   -1.664961
      2          6           0        3.155800   -0.591017   -1.891034
      3          6           0        2.202133   -0.687144   -0.873279
      4          6           0        2.499811   -0.117959    0.363939
      5          6           0        3.703178    0.537476    0.620069
      6          6           0        4.642117    0.621586   -0.412339
      7          1           0        5.107898    0.130414   -2.461269
      8          1           0        2.943922   -1.027767   -2.862838
      9          1           0        1.251912   -1.185805   -1.021043
     10          1           0        3.885797    0.963036    1.599337
     11          1           0        5.586399    1.128084   -0.233910
     12          7           0        1.498002   -0.213363    1.449147
     13          8           0        1.784395    0.296373    2.530250
     14          8           0        0.445360   -0.796071    1.198081
     15          6           0       -3.119372    0.797236   -0.003941
     16          6           0       -3.750313    2.008725   -0.691102
     17          6           0       -3.156242    3.334531   -0.214536
     18          1           0       -3.251199    0.890184    1.082764
     19          1           0       -2.036261    0.802348   -0.188979
     20          1           0       -4.832108    2.000569   -0.505979
     21          1           0       -3.617137    1.912787   -1.776310
     22          1           0       -2.080280    3.368360   -0.413938
     23          1           0       -3.302153    3.456640    0.863610
     24          1           0       -3.621671    4.187260   -0.718608
     25          6           0       -3.702825   -0.535513   -0.469872
     26          6           0       -3.071884   -1.747002    0.217289
     27          6           0       -3.665955   -3.072808   -0.259276
     28          1           0       -4.785936   -0.540626   -0.284833
     29          1           0       -3.570998   -0.628462   -1.556577
     30          1           0       -3.205061   -1.651064    1.302497
     31          1           0       -1.990090   -1.738847    0.032167
     32          1           0       -3.520043   -3.194918   -1.337423
     33          1           0       -4.741917   -3.106638   -0.059875
     34          1           0       -3.200526   -3.925538    0.244795
 ---------------------------------------------------------------------

 SCF Done:  E(RHF) =  -669.535917583     A.U. after   15 cycles
 E2 =    -0.2091501334D+01 EUMP2 =    -0.67162741891698D+03

 The electronic state is 1-A.
 Alpha  occ. eigenvalues --  -20.60940 -20.60935 -15.85972 -11.31307 -11.27879
 Alpha  occ. eigenvalues --  -11.27865 -11.27607 -11.26882 -11.26871 -11.20960
 Alpha  occ. eigenvalues --  -11.20563 -11.20524 -11.20448 -11.20432 -11.20300
 Alpha  occ. eigenvalues --   -1.59999  -1.39556  -1.19477  -1.08877  -1.07578
 Alpha  occ. eigenvalues --   -1.04876  -1.02740  -0.95718  -0.95226  -0.86276
 Alpha  occ. eigenvalues --   -0.86245  -0.82556  -0.78777  -0.77641  -0.77299
 Alpha  occ. eigenvalues --   -0.72193  -0.71310  -0.70585  -0.65135  -0.64878
 Alpha  occ. eigenvalues --   -0.64221  -0.62225  -0.60151  -0.58584  -0.56808
 Alpha  occ. eigenvalues --   -0.55377  -0.54538  -0.53206  -0.52968  -0.51941
 Alpha  occ. eigenvalues --   -0.51638  -0.49194  -0.48958  -0.48950  -0.47089
 Alpha  occ. eigenvalues --   -0.45806  -0.45142  -0.44879  -0.44607  -0.42980
 Alpha  occ. eigenvalues --   -0.37454  -0.36478
 Alpha virt. eigenvalues --    0.04912   0.11173   0.16393   0.21002   0.23436
 Alpha virt. eigenvalues --    0.24853   0.26253   0.27467   0.27833   0.28614
 Alpha virt. eigenvalues --    0.29077   0.30873   0.31743   0.32306   0.32612

 Mulliken charges:
               1
     1  C   -0.170617
     2  C   -0.218590
     3  C   -0.170926
     4  C    0.157789
     5  C   -0.170847
     6  C   -0.218494
     7  H    0.226077
     8  H    0.223931
     9  H    0.275387
    10  H    0.275960
    11  H    0.223923
    12  N    0.494615
    13  O   -0.458801
    14  O   -0.465984
    15  C   -0.297453
    16  C   -0.299269
    17  C   -0.474445
    18  H    0.153994
    19  H    0.153831
    20  H    0.150102
    21  H    0.147303
    22  H    0.153217
    23  H    0.157134
    24  H    0.156841
    25  C   -0.298548
    26  C   -0.303452
    27  C   -0.475692
    28  H    0.146025
    29  H    0.142426
    30  H    0.156453
    31  H    0.167499
    32  H    0.148679
    33  H    0.152245
    34  H    0.159685
 Sum of Mulliken charges =  -0.00000

 Dipole moment (field-independent basis, Debye):
    X=              3.7933    Y=              0.3287    Z=             -3.6435  Tot=              5.2700
 Quadrupole moment (field-independent basis, Debye-Ang):
   XX=            -76.0198   YY=            -95.9180   ZZ=            -95.6323
   XY=              1.8253   XZ=             -7.5259   YZ=              2.1438

 Normal termination of Gaussian 16 at Thu May  6 01:39:44 2021.
