 Gaussian 16, Revision A.03,
 Gaussian 16:  EM64L-G16RevA.03 25-Dec-2016

 -------------
 #p 6-31g* mp2
 -------------

 ------------------------------------------------------
 Input file generated by CHIRIPA (05-May-2021 14:55:23)
 ------------------------------------------------------
 Symbolic Z-matrix:
 Charge =  0 Multiplicity = 1

                         Standard orientation:
 ---------------------------------------------------------------------
 Center     Atomic      Atomic             Coordinates (Angstroms)
 Number     Number       Type             X           Y           Z
 ---------------------------------------------------------------------
      1          6           0        2.207920    2.247276    0.214945
      2          6           0        2.748012    1.769565   -0.983644
      3          6           0        3.177578    0.443411   -1.090109
      4          6           0        3.051736   -0.381196    0.026796
      5          6           0        2.517861    0.065212    1.234682
      6          6           0        2.094768    1.395077    1.318337
      7          1           0        1.876737    3.278906    0.288790
      8          1           0        2.837099    2.429132   -1.842178
      9          1           0        3.599433    0.047511   -2.005926
     10          1           0        2.441827   -0.616116    2.073389
     11          1           0        1.675717    1.763341    2.250444
     12          7           0        3.503072   -1.787100   -0.073840
     13          8           0        3.381421   -2.493454    0.924610
     14          8           0        3.969934   -2.156074   -1.149263
     15          6           0       -4.078271   -0.501879    0.121806
     16          6           0       -5.517892   -0.732802   -0.338792
     17          6           0       -6.038419   -2.124125    0.023237
     18          1           0       -3.429270   -1.266070   -0.327363
     19          1           0       -4.021555   -0.643924    1.209924
     20          1           0       -5.572153   -0.589006   -1.425528
     21          1           0       -6.163512    0.032144    0.111374
     22          1           0       -6.013179   -2.274834    1.107327
     23          1           0       -5.418460   -2.899515   -0.438307
     24          1           0       -7.069240   -2.267758   -0.315344
     25          6           0       -3.543745    0.884562   -0.232864
     26          6           0       -2.104123    1.115485    0.227734
     27          6           0       -1.583597    2.506809   -0.134295
     28          1           0       -3.600460    1.026608   -1.320982
     29          1           0       -4.192745    1.648754    0.216305
     30          1           0       -1.458504    0.350540   -0.222432
     31          1           0       -2.049863    0.971690    1.314470
     32          1           0       -2.203555    3.282198    0.327249
     33          1           0       -1.608837    2.657518   -1.218385
     34          1           0       -0.552776    2.650442    0.204287
 ---------------------------------------------------------------------

 SCF Done:  E(RHF) =  -669.534849197     A.U. after   15 cycles
 E2 =    -0.2092284095D+01 EUMP2 =    -0.67162713329172D+03

 The electronic state is 1-A.
 Alpha  occ. eigenvalues --  -20.60795 -20.60790 -15.85850 -11.31227 -11.27807
 Alpha  occ. eigenvalues --  -11.27803 -11.27546 -11.26824 -11.26807 -11.21992
 Alpha  occ. eigenvalues --  -11.21742 -11.21677 -11.21604 -11.21551 -11.21147
 Alpha  occ. eigenvalues --   -1.59871  -1.39424  -1.19413  -1.08819  -1.08682
 Alpha  occ. eigenvalues --   -1.04813  -1.03811  -0.96283  -0.95635  -0.87300
 Alpha  occ. eigenvalues --   -0.86212  -0.82468  -0.79879  -0.78481  -0.77505
 Alpha  occ. eigenvalues --   -0.72069  -0.71195  -0.70549  -0.65315  -0.65067
 Alpha  occ. eigenvalues --   -0.64817  -0.62158  -0.61205  -0.59709  -0.57907
 Alpha  occ. eigenvalues --   -0.55557  -0.55341  -0.53395  -0.52904  -0.52836
 Alpha  occ. eigenvalues --   -0.52542  -0.50208  -0.48828  -0.48822  -0.48196
 Alpha  occ. eigenvalues --   -0.46902  -0.46029  -0.45941  -0.44827  -0.44081
 Alpha  occ. eigenvalues --   -0.37316  -0.36411
 Alpha virt. eigenvalues --    0.04998   0.11177   0.16421   0.20914   0.22707
 Alpha virt. eigenvalues --    0.24204   0.26376   0.26874   0.27163   0.27544
 Alpha virt. eigenvalues --    0.28456   0.30572   0.31132   0.31718   0.32252

 Mulliken charges:
               1
     1  C   -0.170295
     2  C   -0.219291
     3  C   -0.171147
     4  C    0.158264
     5  C   -0.170651
     6  C   -0.216822
     7  H    0.227002
     8  H    0.223978
     9  H    0.275786
    10  H    0.275961
    11  H    0.224260
    12  N    0.488066
    13  O   -0.460253
    14  O   -0.460422
    15  C   -0.298799
    16  C   -0.299850
    17  C   -0.475981
    18  H    0.151926
    19  H    0.149393
    20  H    0.152170
    21  H    0.151441
    22  H    0.155350
    23  H    0.156694
    24  H    0.160608
    25  C   -0.298660
    26  C   -0.298173
    27  C   -0.479327
    28  H    0.150011
    29  H    0.149143
    30  H    0.156241
    31  H    0.149130
    32  H    0.153985
    33  H    0.155196
    34  H    0.155065
 Sum of Mulliken charges =  -0.00000

 Dipole moment (field-independent basis, Debye):
    X=             -1.5809    Y=              4.8858    Z=              0.3306  Tot=              5.1459
 Quadrupole moment (field-independent basis, Debye-Ang):
   XX=           -104.9040   YY=           -100.0748   ZZ=            -89.5061
   XY=             15.7327   XZ=             -0.6114   YZ=             -0.3757

 Normal termination of Gaussian 16 at Thu May  6 19:17:08 2021.
