 Gaussian 16, Revision A.03,
 Gaussian 16:  EM64L-G16RevA.03 25-Dec-2016

 -------------
 #p 6-31g* mp2
 -------------

 ------------------------------------------------------
 Input file generated by CHIRIPA (05-May-2021 14:55:20)
 ------------------------------------------------------
 Symbolic Z-matrix:
 Charge =  0 Multiplicity = 1

                         Standard orientation:
 ---------------------------------------------------------------------
 Center     Atomic      Atomic             Coordinates (Angstroms)
 Number     Number       Type             X           Y           Z
 ---------------------------------------------------------------------
      1          6           0        5.169262   -0.727267   -1.094333
      2          6           0        5.005180   -1.115400    0.239440
      3          6           0        3.839808   -0.784115    0.937083
      4          6           0        2.854425   -0.060648    0.267078
      5          6           0        2.988396    0.340470   -1.061246
      6          6           0        4.162122   -0.001850   -1.739283
      7          1           0        6.077795   -0.988904   -1.628664
      8          1           0        5.785668   -1.678836    0.742852
      9          1           0        3.686744   -1.071878    1.970128
     10          1           0        2.192771    0.901434   -1.536344
     11          1           0        4.286821    0.300912   -2.775058
     12          7           0        1.616277    0.295910    0.995263
     13          8           0        0.763010    0.933873    0.382421
     14          8           0        1.522527   -0.069334    2.165069
     15          6           0       -4.331778   -0.384815    0.158936
     16          6           0       -4.689229   -1.558385   -0.753724
     17          6           0       -5.523424   -2.625805   -0.044832
     18          1           0       -3.781944   -0.761871    1.032122
     19          1           0       -5.256861    0.066799    0.543202
     20          1           0       -3.763779   -2.006787   -1.137252
     21          1           0       -5.238110   -1.178467   -1.624935
     22          1           0       -6.462165   -2.199449    0.323388
     23          1           0       -4.979457   -3.032474    0.813842
     24          1           0       -5.767666   -3.455446   -0.715579
     25          6           0       -3.497950    0.690513   -0.535420
     26          6           0       -3.140498    1.864083    0.377240
     27          6           0       -2.306304    2.931503   -0.331652
     28          1           0       -2.572866    0.238899   -0.919685
     29          1           0       -4.047785    1.067569   -1.408606
     30          1           0       -2.591617    1.484166    1.248451
     31          1           0       -4.065949    2.312485    0.760768
     32          1           0       -2.850271    3.338173   -1.190325
     33          1           0       -1.367563    2.505147   -0.699872
     34          1           0       -2.062061    3.761144    0.339096
 ---------------------------------------------------------------------

 SCF Done:  E(RHF) =  -669.536250393     A.U. after   15 cycles
 E2 =    -0.2091026658D+01 EUMP2 =    -0.67162727705062D+03

 The electronic state is 1-A.
 Alpha  occ. eigenvalues --  -20.60997 -20.60992 -15.86036 -11.31332 -11.27894
 Alpha  occ. eigenvalues --  -11.27890 -11.27626 -11.26896 -11.26886 -11.20867
 Alpha  occ. eigenvalues --  -11.20459 -11.20416 -11.20221 -11.20149 -11.19578
 Alpha  occ. eigenvalues --   -1.60059  -1.39616  -1.19499  -1.08907  -1.07364
 Alpha  occ. eigenvalues --   -1.04892  -1.02442  -0.95755  -0.94912  -0.86294
 Alpha  occ. eigenvalues --   -0.85942  -0.82590  -0.78559  -0.77646  -0.77142
 Alpha  occ. eigenvalues --   -0.72268  -0.71372  -0.70608  -0.65159  -0.64895
 Alpha  occ. eigenvalues --   -0.63975  -0.62240  -0.59804  -0.58334  -0.56521
 Alpha  occ. eigenvalues --   -0.55397  -0.54177  -0.53225  -0.52983  -0.51637
 Alpha  occ. eigenvalues --   -0.51352  -0.49046  -0.49012  -0.48805  -0.46867
 Alpha  occ. eigenvalues --   -0.45577  -0.45035  -0.44692  -0.44554  -0.42717
 Alpha  occ. eigenvalues --   -0.37477  -0.36493
 Alpha virt. eigenvalues --    0.04884   0.11163   0.16385   0.21234   0.23872
 Alpha virt. eigenvalues --    0.25305   0.27127   0.27535   0.28145   0.28557
 Alpha virt. eigenvalues --    0.29135   0.30774   0.31960   0.32695   0.32778

 Mulliken charges:
               1
     1  C   -0.170547
     2  C   -0.218560
     3  C   -0.170660
     4  C    0.157417
     5  C   -0.170476
     6  C   -0.218513
     7  H    0.226163
     8  H    0.223950
     9  H    0.275903
    10  H    0.275448
    11  H    0.224065
    12  N    0.495362
    13  O   -0.467536
    14  O   -0.459055
    15  C   -0.298524
    16  C   -0.298627
    17  C   -0.475189
    18  H    0.153285
    19  H    0.146665
    20  H    0.150493
    21  H    0.149337
    22  H    0.154109
    23  H    0.155468
    24  H    0.157076
    25  C   -0.298437
    26  C   -0.298126
    27  C   -0.478702
    28  H    0.153721
    29  H    0.143293
    30  H    0.165237
    31  H    0.144120
    32  H    0.144108
    33  H    0.171248
    34  H    0.156484
 Sum of Mulliken charges =  -0.00000

 Dipole moment (field-independent basis, Debye):
    X=              4.7282    Y=             -1.2990    Z=             -2.4606  Tot=              5.4861
 Quadrupole moment (field-independent basis, Debye-Ang):
   XX=            -70.6505   YY=            -95.3939   ZZ=            -93.1047
   XY=             -5.6836   XZ=             -4.6213   YZ=             -2.1017

 Normal termination of Gaussian 16 at Thu May  6 10:51:09 2021.
