 Gaussian 16, Revision A.03,
 Gaussian 16:  EM64L-G16RevA.03 25-Dec-2016

 -------------
 #p 6-31g* mp2
 -------------

 ------------------------------------------------------
 Input file generated by CHIRIPA (05-May-2021 14:55:20)
 ------------------------------------------------------
 Symbolic Z-matrix:
 Charge =  0 Multiplicity = 1

                         Standard orientation:
 ---------------------------------------------------------------------
 Center     Atomic      Atomic             Coordinates (Angstroms)
 Number     Number       Type             X           Y           Z
 ---------------------------------------------------------------------
      1          6           0       -0.799472    2.504441   -0.617705
      2          6           0       -1.818868    2.022440   -1.445369
      3          6           0       -2.630000    0.962590   -1.029038
      4          6           0       -2.392823    0.405768    0.226743
      5          6           0       -1.385170    0.863772    1.074186
      6          6           0       -0.586253    1.924591    0.637218
      7          1           0       -0.174109    3.328135   -0.949136
      8          1           0       -1.986745    2.470827   -2.420465
      9          1           0       -3.426239    0.569830   -1.649651
     10          1           0       -1.241935    0.396433    2.040879
     11          1           0        0.204684    2.296864    1.282104
     12          7           0       -3.245066   -0.716761    0.678417
     13          8           0       -3.015756   -1.190128    1.789262
     14          8           0       -4.126229   -1.101976   -0.086958
     15          6           0        2.567174   -1.420085   -0.402106
     16          6           0        1.065777   -1.318812   -0.673279
     17          6           0        0.448271   -2.655068   -1.086682
     18          1           0        3.071516   -1.795625   -1.302969
     19          1           0        2.740789   -2.164991    0.386797
     20          1           0        0.894938   -0.573317   -1.460468
     21          1           0        0.564974   -0.943288    0.228272
     22          1           0        0.589412   -3.404197   -0.300880
     23          1           0        0.921252   -3.032124   -1.999216
     24          1           0       -0.625545   -2.559757   -1.275615
     25          6           0        3.198874   -0.092297    0.012215
     26          6           0        4.700271   -0.193569    0.283388
     27          6           0        5.317777    1.142685    0.696791
     28          1           0        3.025258    0.652608   -0.776689
     29          1           0        2.694532    0.283243    0.913078
     30          1           0        5.201073   -0.569094   -0.618164
     31          1           0        4.871109   -0.939065    1.070577
     32          1           0        4.844796    1.519742    1.609325
     33          1           0        5.176635    1.891815   -0.089011
     34          1           0        6.391593    1.047375    0.885724
 ---------------------------------------------------------------------

 SCF Done:  E(RHF) =  -669.534516752     A.U. after   15 cycles
 E2 =    -0.2094250631D+01 EUMP2 =    -0.67162876738308D+03

 The electronic state is 1-A.
 Alpha  occ. eigenvalues --  -20.60804 -20.60799 -15.85859 -11.31214 -11.27805
 Alpha  occ. eigenvalues --  -11.27770 -11.27534 -11.26816 -11.26778 -11.21966
 Alpha  occ. eigenvalues --  -11.21799 -11.21550 -11.21524 -11.21488 -11.20916
 Alpha  occ. eigenvalues --   -1.59880  -1.39434  -1.19402  -1.08790  -1.08670
 Alpha  occ. eigenvalues --   -1.04813  -1.03705  -0.96175  -0.95628  -0.87183
 Alpha  occ. eigenvalues --   -0.86203  -0.82461  -0.79793  -0.78493  -0.77506
 Alpha  occ. eigenvalues --   -0.72075  -0.71207  -0.70512  -0.65315  -0.65052
 Alpha  occ. eigenvalues --   -0.64806  -0.62156  -0.61113  -0.59572  -0.57803
 Alpha  occ. eigenvalues --   -0.55474  -0.55302  -0.53246  -0.52902  -0.52763
 Alpha  occ. eigenvalues --   -0.52583  -0.50117  -0.48834  -0.48831  -0.48070
 Alpha  occ. eigenvalues --   -0.46851  -0.46001  -0.45952  -0.44832  -0.43974
 Alpha  occ. eigenvalues --   -0.37352  -0.36282
 Alpha virt. eigenvalues --    0.05006   0.11155   0.16443   0.20872   0.22757
 Alpha virt. eigenvalues --    0.23979   0.25659   0.26716   0.27486   0.28266
 Alpha virt. eigenvalues --    0.28696   0.30418   0.31275   0.31559   0.31778

 Mulliken charges:
               1
     1  C   -0.170974
     2  C   -0.218320
     3  C   -0.171747
     4  C    0.164139
     5  C   -0.177095
     6  C   -0.212059
     7  H    0.225926
     8  H    0.223565
     9  H    0.275774
    10  H    0.275283
    11  H    0.224294
    12  N    0.487958
    13  O   -0.460664
    14  O   -0.460603
    15  C   -0.298402
    16  C   -0.302713
    17  C   -0.476398
    18  H    0.149682
    19  H    0.151037
    20  H    0.149814
    21  H    0.154689
    22  H    0.158330
    23  H    0.153578
    24  H    0.162183
    25  C   -0.296168
    26  C   -0.299687
    27  C   -0.475514
    28  H    0.145857
    29  H    0.142771
    30  H    0.153530
    31  H    0.153931
    32  H    0.152576
    33  H    0.153057
    34  H    0.162371
 Sum of Mulliken charges =  -0.00000

 Dipole moment (field-independent basis, Debye):
    X=              2.9542    Y=              3.9364    Z=             -1.5973  Tot=              5.1744
 Quadrupole moment (field-independent basis, Debye-Ang):
   XX=           -108.8200   YY=            -92.8573   ZZ=            -91.1732
   XY=             -9.0301   XZ=              6.7063   YZ=             -0.5627

 Normal termination of Gaussian 16 at Thu May  6 12:28:29 2021.
