 Gaussian 16, Revision A.03,
 Gaussian 16:  EM64L-G16RevA.03 25-Dec-2016

 -------------
 #p 6-31g* mp2
 -------------

 ------------------------------------------------------
 Input file generated by CHIRIPA (05-May-2021 14:53:17)
 ------------------------------------------------------
 Symbolic Z-matrix:
 Charge =  0 Multiplicity = 1

                         Standard orientation:
 ---------------------------------------------------------------------
 Center     Atomic      Atomic             Coordinates (Angstroms)
 Number     Number       Type             X           Y           Z
 ---------------------------------------------------------------------
      1          6           0        5.611700    0.074435    0.291402
      2          6           0        6.679856   -0.266405   -0.748240
      3          6           0        8.051403    0.311492   -0.397968
      4          1           0        5.537513    1.166347    0.387156
      5          1           0        5.930600   -0.304404    1.272309
      6          1           0        6.358394    0.111751   -1.727155
      7          1           0        6.751374   -1.357630   -0.841669
      8          1           0        8.397502   -0.075010    0.566102
      9          1           0        8.002289    1.402720   -0.324415
     10          1           0        8.799881    0.055797   -1.154447
     11          6           0        4.235136   -0.496326   -0.044802
     12          6           0        3.166980   -0.155486    0.994840
     13          6           0        1.795433   -0.733383    0.644568
     14          1           0        3.916236   -0.117487   -1.025709
     15          1           0        4.309323   -1.588238   -0.140556
     16          1           0        3.095462    0.935739    1.088269
     17          1           0        3.488442   -0.533642    1.973755
     18          1           0        1.844547   -1.824611    0.571015
     19          1           0        1.449334   -0.346881   -0.319502
     20          1           0        1.046955   -0.477688    1.401047
     21          6           0       -6.006681   -1.138669   -0.108999
     22          6           0       -4.782873   -1.811153   -0.190108
     23          6           0       -3.579716   -1.099167   -0.183925
     24          6           0       -3.637574    0.290816   -0.095103
     25          6           0       -4.841029    0.989563   -0.013001
     26          6           0       -6.031809    0.257082   -0.020860
     27          1           0       -6.936515   -1.699717   -0.114453
     28          1           0       -4.760323   -2.895053   -0.258651
     29          1           0       -2.618294   -1.594428   -0.245578
     30          1           0       -4.831520    2.070669    0.054346
     31          1           0       -6.980768    0.782000    0.042250
     32          7           0       -2.370397    1.055412   -0.087671
     33          8           0       -2.448376    2.279464   -0.008589
     34          8           0       -1.323200    0.416173   -0.161067
 ---------------------------------------------------------------------

 SCF Done:  E(RHF) =  -669.535497797     A.U. after   15 cycles
 E2 =    -0.2090911581D+01 EUMP2 =    -0.67162640937805D+03

 The electronic state is 1-A.
 Alpha  occ. eigenvalues --  -20.60857 -20.60850 -15.85893 -11.31243 -11.27812
 Alpha  occ. eigenvalues --  -11.27804 -11.27555 -11.26825 -11.26815 -11.21026
 Alpha  occ. eigenvalues --  -11.20670 -11.20589 -11.20505 -11.20434 -11.19505
 Alpha  occ. eigenvalues --   -1.59928  -1.39483  -1.19416  -1.08817  -1.07602
 Alpha  occ. eigenvalues --   -1.04816  -1.02620  -0.95662  -0.95042  -0.86218
 Alpha  occ. eigenvalues --   -0.86062  -0.82487  -0.78720  -0.77544  -0.77377
 Alpha  occ. eigenvalues --   -0.72123  -0.71246  -0.70524  -0.65073  -0.64819
 Alpha  occ. eigenvalues --   -0.64237  -0.62162  -0.60013  -0.58468  -0.56656
 Alpha  occ. eigenvalues --   -0.55321  -0.54332  -0.53148  -0.52907  -0.51710
 Alpha  occ. eigenvalues --   -0.51483  -0.49128  -0.48877  -0.48732  -0.47020
 Alpha  occ. eigenvalues --   -0.45755  -0.44939  -0.44882  -0.44836  -0.42852
 Alpha  occ. eigenvalues --   -0.37398  -0.36419
 Alpha virt. eigenvalues --    0.04978   0.11235   0.16460   0.21350   0.23648
 Alpha virt. eigenvalues --    0.25269   0.27263   0.27441   0.28045   0.28290
 Alpha virt. eigenvalues --    0.29108   0.30912   0.32232   0.32339   0.32686

 Mulliken charges:
               1
     1  C   -0.297619
     2  C   -0.299011
     3  C   -0.475263
     4  H    0.149909
     5  H    0.147572
     6  H    0.151699
     7  H    0.150263
     8  H    0.154124
     9  H    0.155069
    10  H    0.158384
    11  C   -0.297701
    12  C   -0.300679
    13  C   -0.472252
    14  H    0.150206
    15  H    0.145991
    16  H    0.154162
    17  H    0.145702
    18  H    0.141554
    19  H    0.169504
    20  H    0.165410
    21  C   -0.170702
    22  C   -0.218573
    23  C   -0.171014
    24  C    0.157406
    25  C   -0.170718
    26  C   -0.218608
    27  H    0.225792
    28  H    0.223737
    29  H    0.276460
    30  H    0.275690
    31  H    0.223598
    32  N    0.493287
    33  O   -0.460030
    34  O   -0.463349
 Sum of Mulliken charges =  -0.00000

 Dipole moment (field-independent basis, Debye):
    X=             -4.7695    Y=             -2.6018    Z=             -0.0722  Tot=              5.4335
 Quadrupole moment (field-independent basis, Debye-Ang):
   XX=            -63.7487   YY=            -92.4083   ZZ=            -95.5306
   XY=              5.9045   XZ=              0.1781   YZ=              0.1906

 Normal termination of Gaussian 16 at Thu May  6 15:38:09 2021.
