 Gaussian 16, Revision A.03,
 Gaussian 16:  EM64L-G16RevA.03 25-Dec-2016

 -------------
 #p 6-31g* mp2
 -------------

 ------------------------------------------------------
 Input file generated by CHIRIPA (05-May-2021 14:57:25)
 ------------------------------------------------------
 Symbolic Z-matrix:
 Charge =  0 Multiplicity = 1

                         Standard orientation:
 ---------------------------------------------------------------------
 Center     Atomic      Atomic             Coordinates (Angstroms)
 Number     Number       Type             X           Y           Z
 ---------------------------------------------------------------------
      1          6           0        2.440723    1.802924    0.509687
      2          6           0        2.225587    0.498590    0.966798
      3          6           0        3.158200   -0.509027    0.703190
      4          6           0        4.300047   -0.175644   -0.023673
      5          6           0        4.542807    1.114488   -0.492627
      6          6           0        3.596609    2.106175   -0.217286
      7          1           0        1.710971    2.579478    0.719021
      8          1           0        1.328817    0.260192    1.531612
      9          1           0        3.016720   -1.527100    1.045139
     10          1           0        5.446293    1.321684   -1.053164
     11          1           0        3.766314    3.118268   -0.573536
     12          7           0        5.294553   -1.233931   -0.308954
     13          8           0        6.292467   -0.914511   -0.951431
     14          8           0        5.057302   -2.362798    0.115321
     15          6           0       -2.501829    1.907541    0.223454
     16          6           0       -2.177184    0.639049    0.715443
     17          6           0       -3.075022   -0.424541    0.584249
     18          6           0       -4.294140   -0.183070   -0.047204
     19          6           0       -4.646574    1.069329   -0.547779
     20          6           0       -3.733316    2.118262   -0.405478
     21          1           0       -1.798377    2.728070    0.329683
     22          1           0       -1.221520    0.472484    1.204327
     23          1           0       -2.849267   -1.416652    0.955959
     24          1           0       -5.606872    1.204645   -1.030413
     25          1           0       -3.988120    3.102333   -0.788524
     26          7           0       -5.252802   -1.301286   -0.191972
     27          8           0       -6.320392   -1.062611   -0.752260
     28          8           0       -4.918460   -2.395246    0.257587
 ---------------------------------------------------------------------

 SCF Done:  E(RHF) =  -868.336010196     A.U. after   16 cycles
 E2 =    -0.2599853311D+01 EUMP2 =    -0.87093586350727D+03

 The electronic state is 1-A.
 Alpha  occ. eigenvalues --  -20.61257 -20.61251 -20.61228 -20.61222 -15.86318
 Alpha  occ. eigenvalues --  -15.86289 -11.31853 -11.31806 -11.28480 -11.28433
 Alpha  occ. eigenvalues --  -11.28429 -11.28376 -11.28337 -11.28267 -11.27641
 Alpha  occ. eigenvalues --  -11.27584 -11.27494 -11.27435  -1.60328  -1.60300
 Alpha  occ. eigenvalues --   -1.39877  -1.39849  -1.20066  -1.20013  -1.09451
 Alpha  occ. eigenvalues --   -1.09395  -1.05504  -1.05444  -0.96246  -0.96196
 Alpha  occ. eigenvalues --   -0.86941  -0.86823  -0.83085  -0.83022  -0.78103
 Alpha  occ. eigenvalues --   -0.78012  -0.72535  -0.72505  -0.71653  -0.71625
 Alpha  occ. eigenvalues --   -0.71241  -0.71137  -0.65776  -0.65713  -0.65677
 Alpha  occ. eigenvalues --   -0.65314  -0.62944  -0.62690  -0.56119  -0.55949
 Alpha  occ. eigenvalues --   -0.53828  -0.53751  -0.53742  -0.53419  -0.49314
 Alpha  occ. eigenvalues --   -0.49276  -0.49271  -0.49248  -0.45244  -0.45220
 Alpha  occ. eigenvalues --   -0.38095  -0.38003  -0.37103  -0.37023
 Alpha virt. eigenvalues --    0.04470   0.04522   0.10418   0.10684   0.15874
 Alpha virt. eigenvalues --    0.15983   0.17319   0.22217   0.23859   0.25496
 Alpha virt. eigenvalues --    0.27886   0.28849   0.30054   0.31453   0.32384

 Mulliken charges:
               1
     1  C   -0.170690
     2  C   -0.220485
     3  C   -0.169668
     4  C    0.159515
     5  C   -0.169481
     6  C   -0.217921
     7  H    0.218864
     8  H    0.218183
     9  H    0.278168
    10  H    0.278136
    11  H    0.224958
    12  N    0.487929
    13  O   -0.458462
    14  O   -0.458313
    15  C   -0.171015
    16  C   -0.218360
    17  C   -0.170821
    18  C    0.159449
    19  C   -0.169692
    20  C   -0.217963
    21  H    0.219921
    22  H    0.216751
    23  H    0.277295
    24  H    0.277927
    25  H    0.225036
    26  N    0.488013
    27  O   -0.458566
    28  O   -0.458709
 Sum of Mulliken charges =  -0.00000

 Dipole moment (field-independent basis, Debye):
    X=             -0.0991    Y=              7.5804    Z=              1.3761  Tot=              7.7049
 Quadrupole moment (field-independent basis, Debye-Ang):
   XX=           -159.0937   YY=           -104.1489   ZZ=           -104.0904
   XY=             -1.0184   XZ=              2.1839   YZ=             -4.2781

 Normal termination of Gaussian 16 at Fri May  7 11:08:59 2021.
