 Gaussian 16, Revision A.03,
 Gaussian 16:  EM64L-G16RevA.03 25-Dec-2016

 -------------
 #p 6-31g* mp2
 -------------

 ------------------------------------------------------
 Input file generated by CHIRIPA (05-May-2021 14:51:14)
 ------------------------------------------------------
 Symbolic Z-matrix:
 Charge =  0 Multiplicity = 1

                         Standard orientation:
 ---------------------------------------------------------------------
 Center     Atomic      Atomic             Coordinates (Angstroms)
 Number     Number       Type             X           Y           Z
 ---------------------------------------------------------------------
      1          6           0        2.792924    1.456574    0.211320
      2          6           0        1.549446    1.968161   -0.516708
      3          6           0        1.166655    3.390122   -0.105255
      4          1           0        2.615740    1.491101    1.294998
      5          1           0        3.632646    2.136110    0.010090
      6          1           0        0.712664    1.287102   -0.315286
      7          1           0        1.729540    1.932232   -1.598785
      8          1           0        1.982930    4.086790   -0.321935
      9          1           0        0.960276    3.437995    0.968857
     10          1           0        0.275170    3.735897   -0.637752
     11          6           0        3.188171    0.036380   -0.189376
     12          6           0        4.431650   -0.475207    0.538652
     13          6           0        4.814440   -1.897167    0.127199
     14          1           0        2.348450   -0.643156    0.011854
     15          1           0        3.365355    0.001853   -1.273054
     16          1           0        4.251556   -0.439277    1.620729
     17          1           0        5.268432    0.205853    0.337230
     18          1           0        5.020820   -1.945040   -0.946913
     19          1           0        3.998166   -2.593836    0.343879
     20          1           0        5.705926   -2.242943    0.659696
     21          6           0       -3.376774   -0.093840    0.080274
     22          6           0       -4.893305   -0.286261    0.113315
     23          6           0       -5.652158    1.028429    0.296419
     24          1           0       -3.054606    0.390399    1.012296
     25          1           0       -3.119367    0.595859   -0.735477
     26          1           0       -5.147657   -0.976475    0.927887
     27          1           0       -5.211876   -0.770273   -0.818812
     28          1           0       -5.427482    1.720119   -0.521924
     29          1           0       -5.362897    1.512744    1.234699
     30          1           0       -6.734554    0.867664    0.317236
     31          6           0       -2.604321   -1.399115   -0.102218
     32          6           0       -1.087790   -1.206693   -0.135260
     33          6           0       -0.328938   -2.521384   -0.318363
     34          1           0       -2.861729   -2.088814    0.713534
     35          1           0       -2.926490   -1.883354   -1.034240
     36          1           0       -0.769218   -0.722682    0.796868
     37          1           0       -0.833440   -0.516479   -0.949831
     38          1           0       -0.618199   -3.005698   -1.256643
     39          1           0       -0.553614   -3.213073    0.499980
     40          1           0        0.753458   -2.360618   -0.339181
 ---------------------------------------------------------------------

 SCF Done:  E(RHF) =  -470.732623504     A.U. after   11 cycles
 E2 =    -0.1584152784D+01 EUMP2 =    -0.47231677628863D+03

 The electronic state is 1-A.
 Alpha  occ. eigenvalues --  -11.21661 -11.21629 -11.21587 -11.21473 -11.21449
 Alpha  occ. eigenvalues --  -11.21389 -11.21363 -11.21303 -11.21109 -11.21090
 Alpha  occ. eigenvalues --  -11.21070 -11.21012  -1.08490  -1.08382  -1.03583
 Alpha  occ. eigenvalues --   -1.03485  -0.96029  -0.95938  -0.87055  -0.86946
 Alpha  occ. eigenvalues --   -0.79740  -0.79478  -0.78381  -0.78127  -0.65106
 Alpha  occ. eigenvalues --   -0.65050  -0.60984  -0.60882  -0.59410  -0.59315
 Alpha  occ. eigenvalues --   -0.57697  -0.57514  -0.55305  -0.55234  -0.52762
 Alpha  occ. eigenvalues --   -0.52623  -0.52521  -0.52296  -0.49964  -0.49900
 Alpha  occ. eigenvalues --   -0.48226  -0.47685  -0.46716  -0.46555  -0.45962
 Alpha  occ. eigenvalues --   -0.45779  -0.45706  -0.45352  -0.43807  -0.43740
 Alpha virt. eigenvalues --    0.20938   0.23043   0.23604   0.24200   0.25952
 Alpha virt. eigenvalues --    0.26408   0.27107   0.27441   0.27796   0.29470
 Alpha virt. eigenvalues --    0.30434   0.31199   0.31701   0.31942   0.32632

 Mulliken charges:
               1
     1  C   -0.296848
     2  C   -0.309303
     3  C   -0.474985
     4  H    0.148860
     5  H    0.149269
     6  H    0.163346
     7  H    0.150498
     8  H    0.154733
     9  H    0.154677
    10  H    0.159799
    11  C   -0.307579
    12  C   -0.299047
    13  C   -0.476552
    14  H    0.158501
    15  H    0.149264
    16  H    0.151713
    17  H    0.152057
    18  H    0.155255
    19  H    0.155314
    20  H    0.160428
    21  C   -0.298600
    22  C   -0.299641
    23  C   -0.475732
    24  H    0.149544
    25  H    0.149655
    26  H    0.151986
    27  H    0.152048
    28  H    0.155276
    29  H    0.155253
    30  H    0.160355
    31  C   -0.297595
    32  C   -0.304288
    33  C   -0.482001
    34  H    0.149584
    35  H    0.149946
    36  H    0.151618
    37  H    0.156736
    38  H    0.155907
    39  H    0.155179
    40  H    0.165373
 Sum of Mulliken charges =  -0.00000

 Dipole moment (field-independent basis, Debye):
    X=             -0.0431    Y=             -0.0301    Z=             -0.0089  Tot=              0.0533
 Quadrupole moment (field-independent basis, Debye-Ang):
   XX=            -85.1342   YY=            -86.5486   ZZ=            -83.2229
   XY=              1.1633   XZ=             -0.2154   YZ=             -0.6838

 Normal termination of Gaussian 16 at Wed May  5 23:14:52 2021.
