 Gaussian 16, Revision A.03,
 Gaussian 16:  EM64L-G16RevA.03 25-Dec-2016

 -------------
 #p 6-31g* mp2
 -------------

 ------------------------------------------------------
 Input file generated by CHIRIPA (05-May-2021 14:53:18)
 ------------------------------------------------------
 Symbolic Z-matrix:
 Charge =  0 Multiplicity = 1

                         Standard orientation:
 ---------------------------------------------------------------------
 Center     Atomic      Atomic             Coordinates (Angstroms)
 Number     Number       Type             X           Y           Z
 ---------------------------------------------------------------------
      1          6           0       -3.439214   -1.116195   -0.246350
      2          6           0       -2.275504   -1.689831    0.562789
      3          6           0       -1.806512   -3.048736    0.042001
      4          1           0       -4.276709   -1.826941   -0.226662
      5          1           0       -3.134197   -1.021590   -1.297735
      6          1           0       -2.582165   -1.782031    1.612586
      7          1           0       -1.440751   -0.977551    0.541331
      8          1           0       -1.474350   -2.968925   -0.998143
      9          1           0       -2.622249   -3.777975    0.079199
     10          1           0       -0.974054   -3.440361    0.634879
     11          6           0       -3.919261    0.242012    0.262135
     12          6           0       -5.082970    0.815648   -0.547004
     13          6           0       -5.551963    2.174553   -0.026216
     14          1           0       -4.224278    0.147407    1.313520
     15          1           0       -3.081766    0.952758    0.242447
     16          1           0       -5.917723    0.103369   -0.525546
     17          1           0       -4.776310    0.907848   -1.596801
     18          1           0       -4.736226    2.903792   -0.063414
     19          1           0       -5.884124    2.094742    1.013928
     20          1           0       -6.384420    2.566178   -0.619094
     21          6           0        2.443047    2.823703    0.129535
     22          6           0        3.745464    2.348680   -0.056435
     23          6           0        3.996193    0.975433   -0.133095
     24          6           0        2.916106    0.101505   -0.019285
     25          6           0        1.607269    0.543913    0.166487
     26          6           0        1.379980    1.921393    0.240207
     27          1           0        2.257380    3.892118    0.187943
     28          1           0        4.572991    3.047107   -0.142712
     29          1           0        4.994592    0.580449   -0.276637
     30          1           0        0.802744   -0.176741    0.249039
     31          1           0        0.367470    2.287446    0.384678
     32          7           0        3.169134   -1.354530   -0.098885
     33          8           0        2.200358   -2.103839    0.004297
     34          8           0        4.331441   -1.718893   -0.262950
 ---------------------------------------------------------------------

 SCF Done:  E(RHF) =  -669.535558667     A.U. after   15 cycles
 E2 =    -0.2091586407D+01 EUMP2 =    -0.67162714507430D+03

 The electronic state is 1-A.
 Alpha  occ. eigenvalues --  -20.60783 -20.60777 -15.85832 -11.31187 -11.27760
 Alpha  occ. eigenvalues --  -11.27743 -11.27507 -11.26777 -11.26767 -11.21903
 Alpha  occ. eigenvalues --  -11.21745 -11.21736 -11.21537 -11.21410 -11.20652
 Alpha  occ. eigenvalues --   -1.59855  -1.39408  -1.19363  -1.08761  -1.08652
 Alpha  occ. eigenvalues --   -1.04767  -1.03655  -0.96063  -0.95596  -0.87071
 Alpha  occ. eigenvalues --   -0.86167  -0.82429  -0.79739  -0.78482  -0.77474
 Alpha  occ. eigenvalues --   -0.72052  -0.71177  -0.70482  -0.65312  -0.65016
 Alpha  occ. eigenvalues --   -0.64769  -0.62153  -0.61031  -0.59443  -0.57673
 Alpha  occ. eigenvalues --   -0.55376  -0.55256  -0.53096  -0.52870  -0.52703
 Alpha  occ. eigenvalues --   -0.52478  -0.50010  -0.48810  -0.48805  -0.48029
 Alpha  occ. eigenvalues --   -0.46796  -0.46025  -0.45926  -0.44815  -0.43905
 Alpha  occ. eigenvalues --   -0.37347  -0.36369
 Alpha virt. eigenvalues --    0.05057   0.11284   0.16550   0.19422   0.22925
 Alpha virt. eigenvalues --    0.23671   0.25096   0.26928   0.27088   0.28299
 Alpha virt. eigenvalues --    0.29371   0.30586   0.31450   0.31594   0.32292

 Mulliken charges:
               1
     1  C   -0.298294
     2  C   -0.302704
     3  C   -0.475976
     4  H    0.152359
     5  H    0.150176
     6  H    0.153224
     7  H    0.140786
     8  H    0.158296
     9  H    0.152768
    10  H    0.174332
    11  C   -0.296006
    12  C   -0.299879
    13  C   -0.475299
    14  H    0.150818
    15  H    0.139889
    16  H    0.154170
    17  H    0.152316
    18  H    0.151709
    19  H    0.155921
    20  H    0.161561
    21  C   -0.170574
    22  C   -0.219141
    23  C   -0.169799
    24  C    0.158610
    25  C   -0.182963
    26  C   -0.223203
    27  H    0.225704
    28  H    0.223499
    29  H    0.275641
    30  H    0.292770
    31  H    0.223523
    32  N    0.486996
    33  O   -0.461019
    34  O   -0.460211
 Sum of Mulliken charges =  -0.00000

 Dipole moment (field-independent basis, Debye):
    X=             -0.9190    Y=              4.9622    Z=              0.2688  Tot=              5.0537
 Quadrupole moment (field-independent basis, Debye-Ang):
   XX=            -94.6934   YY=            -94.4130   ZZ=            -95.2739
   XY=             17.0305   XZ=             -0.1217   YZ=             -0.7805

 Normal termination of Gaussian 16 at Wed May  5 20:26:03 2021.
