 Gaussian 16, Revision A.03,
 Gaussian 16:  EM64L-G16RevA.03 25-Dec-2016

 -------------
 #p 6-31g* mp2
 -------------

 ------------------------------------------------------
 Input file generated by CHIRIPA (05-May-2021 14:53:12)
 ------------------------------------------------------
 Symbolic Z-matrix:
 Charge =  0 Multiplicity = 1

                         Standard orientation:
 ---------------------------------------------------------------------
 Center     Atomic      Atomic             Coordinates (Angstroms)
 Number     Number       Type             X           Y           Z
 ---------------------------------------------------------------------
      1          6           0       -2.444405    1.094955    0.136859
      2          6           0       -2.350383    2.432574   -0.597934
      3          6           0       -1.783199    3.549820    0.278340
      4          1           0       -3.072904    1.217614    1.029544
      5          1           0       -1.445313    0.810119    0.494740
      6          1           0       -3.349120    2.714124   -0.955523
      7          1           0       -1.722191    2.306669   -1.489079
      8          1           0       -0.776304    3.294596    0.624207
      9          1           0       -2.412477    3.704366    1.160794
     10          1           0       -1.724729    4.497084   -0.266760
     11          6           0       -3.009597   -0.031847   -0.726046
     12          6           0       -3.103619   -1.369466    0.008747
     13          6           0       -3.670803   -2.486713   -0.867526
     14          1           0       -4.008689    0.252988   -1.083927
     15          1           0       -2.381098   -0.154507   -1.618731
     16          1           0       -3.731811   -1.243562    0.899892
     17          1           0       -2.104882   -1.651017    0.366336
     18          1           0       -3.041525   -2.641258   -1.749981
     19          1           0       -4.677698   -2.231488   -1.213394
     20          1           0       -3.729273   -3.433976   -0.322427
     21          6           0        0.378282   -1.335991    1.794775
     22          6           0        1.073611   -0.169781    2.130919
     23          6           0        2.046545    0.349399    1.271616
     24          6           0        2.299864   -0.326265    0.078889
     25          6           0        1.623991   -1.490187   -0.284111
     26          6           0        0.655202   -1.991317    0.590456
     27          1           0       -0.375907   -1.732291    2.468230
     28          1           0        0.860640    0.341257    3.065546
     29          1           0        2.599758    1.250475    1.507060
     30          1           0        1.858300   -1.977449   -1.222778
     31          1           0        0.116763   -2.897195    0.326803
     32          7           0        3.327672    0.213812   -0.838896
     33          8           0        3.532265   -0.400163   -1.883794
     34          8           0        3.909212    1.240873   -0.495979
 ---------------------------------------------------------------------

 SCF Done:  E(RHF) =  -669.534282213     A.U. after   15 cycles
 E2 =    -0.2094881586D+01 EUMP2 =    -0.67162916379911D+03

 The electronic state is 1-A.
 Alpha  occ. eigenvalues --  -20.60872 -20.60867 -15.85928 -11.31337 -11.27921
 Alpha  occ. eigenvalues --  -11.27906 -11.27635 -11.26920 -11.26905 -11.22145
 Alpha  occ. eigenvalues --  -11.21773 -11.21751 -11.21688 -11.21578 -11.21263
 Alpha  occ. eigenvalues --   -1.59948  -1.39500  -1.19528  -1.08951  -1.08744
 Alpha  occ. eigenvalues --   -1.04934  -1.03913  -0.96352  -0.95734  -0.87375
 Alpha  occ. eigenvalues --   -0.86328  -0.82557  -0.80006  -0.78599  -0.77597
 Alpha  occ. eigenvalues --   -0.72146  -0.71273  -0.70616  -0.65507  -0.65161
 Alpha  occ. eigenvalues --   -0.64889  -0.62292  -0.61290  -0.59740  -0.57968
 Alpha  occ. eigenvalues --   -0.55645  -0.55411  -0.53370  -0.53017  -0.53006
 Alpha  occ. eigenvalues --   -0.52780  -0.50306  -0.48909  -0.48898  -0.48322
 Alpha  occ. eigenvalues --   -0.47054  -0.46124  -0.45998  -0.44896  -0.44137
 Alpha  occ. eigenvalues --   -0.37363  -0.36502
 Alpha virt. eigenvalues --    0.04906   0.10963   0.16344   0.20635   0.22887
 Alpha virt. eigenvalues --    0.23708   0.26316   0.26888   0.27192   0.27826
 Alpha virt. eigenvalues --    0.28512   0.30712   0.31170   0.31527   0.31905

 Mulliken charges:
               1
     1  C   -0.306448
     2  C   -0.299689
     3  C   -0.475541
     4  H    0.145369
     5  H    0.157628
     6  H    0.151932
     7  H    0.155016
     8  H    0.153506
     9  H    0.152934
    10  H    0.162984
    11  C   -0.296303
    12  C   -0.306797
    13  C   -0.476318
    14  H    0.150630
    15  H    0.151326
    16  H    0.149750
    17  H    0.150096
    18  H    0.155143
    19  H    0.159075
    20  H    0.156771
    21  C   -0.168485
    22  C   -0.219286
    23  C   -0.171620
    24  C    0.158491
    25  C   -0.172504
    26  C   -0.218355
    27  H    0.228529
    28  H    0.225180
    29  H    0.276516
    30  H    0.276311
    31  H    0.226008
    32  N    0.488080
    33  O   -0.460024
    34  O   -0.459906
 Sum of Mulliken charges =  -0.00000

 Dipole moment (field-independent basis, Debye):
    X=             -3.5034    Y=             -1.8760    Z=              3.2218  Tot=              5.1160
 Quadrupole moment (field-independent basis, Debye-Ang):
   XX=           -111.5741   YY=            -91.8628   ZZ=            -92.6265
   XY=             -3.1610   XZ=              7.5506   YZ=              1.0360

 Normal termination of Gaussian 16 at Thu May  6 05:43:02 2021.
