 Gaussian 16, Revision A.03,
 Gaussian 16:  EM64L-G16RevA.03 25-Dec-2016

 -------------
 #p 6-31g* mp2
 -------------

 ------------------------------------------------------
 Input file generated by CHIRIPA (05-May-2021 14:57:24)
 ------------------------------------------------------
 Symbolic Z-matrix:
 Charge =  0 Multiplicity = 1

                         Standard orientation:
 ---------------------------------------------------------------------
 Center     Atomic      Atomic             Coordinates (Angstroms)
 Number     Number       Type             X           Y           Z
 ---------------------------------------------------------------------
      1          6           0        1.578844   -0.937598    0.908058
      2          6           0        2.546766   -1.864741    0.507992
      3          6           0        3.793474   -1.434298    0.044327
      4          6           0        4.039625   -0.063119   -0.006344
      5          6           0        3.095849    0.885201    0.385150
      6          6           0        1.855986    0.431999    0.845471
      7          1           0        0.613029   -1.280816    1.266946
      8          1           0        2.334306   -2.929000    0.555517
      9          1           0        4.560975   -2.130369   -0.271658
     10          1           0        3.336851    1.939659    0.326385
     11          1           0        1.106189    1.154304    1.155511
     12          7           0        5.355836    0.404618   -0.495436
     13          8           0        5.548032    1.618072   -0.530461
     14          8           0        6.170362   -0.451080   -0.834499
     15          6           0       -3.256441    2.586401    0.173561
     16          6           0       -2.322037    1.611228    0.537498
     17          6           0       -2.624975    0.252891    0.404469
     18          6           0       -3.877441   -0.096281   -0.098223
     19          6           0       -4.829618    0.851774   -0.469490
     20          6           0       -4.505048    2.204235   -0.327887
     21          1           0       -3.012710    3.639307    0.280232
     22          1           0       -1.351571    1.905102    0.927214
     23          1           0       -1.920303   -0.522819    0.678565
     24          1           0       -5.788794    0.528040   -0.854973
     25          1           0       -5.232681    2.959390   -0.611326
     26          7           0       -4.209598   -1.531181   -0.243593
     27          8           0       -5.319972   -1.812812   -0.689004
     28          8           0       -3.353279   -2.347056    0.090627
 ---------------------------------------------------------------------

 SCF Done:  E(RHF) =  -868.336599073     A.U. after   16 cycles
 E2 =    -0.2600188700D+01 EUMP2 =    -0.87093678777315D+03

 The electronic state is 1-A.
 Alpha  occ. eigenvalues --  -20.61525 -20.61497 -20.61060 -20.61048 -15.86571
 Alpha  occ. eigenvalues --  -15.86115 -11.31992 -11.31562 -11.28692 -11.28506
 Alpha  occ. eigenvalues --  -11.28291 -11.28209 -11.28095 -11.27962 -11.27702
 Alpha  occ. eigenvalues --  -11.27509 -11.27345 -11.27099  -1.60583  -1.60130
 Alpha  occ. eigenvalues --   -1.40139  -1.39681  -1.20168  -1.19756  -1.09540
 Alpha  occ. eigenvalues --   -1.09146  -1.05603  -1.05178  -0.96372  -0.95960
 Alpha  occ. eigenvalues --   -0.86996  -0.86585  -0.83222  -0.82796  -0.78282
 Alpha  occ. eigenvalues --   -0.77816  -0.72791  -0.72332  -0.71903  -0.71453
 Alpha  occ. eigenvalues --   -0.71308  -0.70856  -0.65833  -0.65695  -0.65420
 Alpha  occ. eigenvalues --   -0.65186  -0.62997  -0.62484  -0.56074  -0.55716
 Alpha  occ. eigenvalues --   -0.53891  -0.53752  -0.53485  -0.53227  -0.49556
 Alpha  occ. eigenvalues --   -0.49536  -0.49098  -0.49080  -0.45533  -0.45068
 Alpha  occ. eigenvalues --   -0.38115  -0.37750  -0.37189  -0.36765
 Alpha virt. eigenvalues --    0.04302   0.04723   0.10462   0.10848   0.15786
 Alpha virt. eigenvalues --    0.16133   0.17021   0.22348   0.23701   0.24896
 Alpha virt. eigenvalues --    0.27910   0.28839   0.30667   0.31419   0.33469

 Mulliken charges:
               1
     1  C   -0.174793
     2  C   -0.218019
     3  C   -0.169775
     4  C    0.159190
     5  C   -0.170843
     6  C   -0.221070
     7  H    0.228468
     8  H    0.229623
     9  H    0.277946
    10  H    0.275389
    11  H    0.215664
    12  N    0.488030
    13  O   -0.460611
    14  O   -0.458418
    15  C   -0.170385
    16  C   -0.220479
    17  C   -0.173286
    18  C    0.159387
    19  C   -0.168951
    20  C   -0.218126
    21  H    0.228783
    22  H    0.218768
    23  H    0.270467
    24  H    0.278290
    25  H    0.226863
    26  N    0.488137
    27  O   -0.456558
    28  O   -0.463691
 Sum of Mulliken charges =  -0.00000

 Dipole moment (field-independent basis, Debye):
    X=             -3.5555    Y=              3.3373    Z=              2.1035  Tot=              5.3107
 Quadrupole moment (field-independent basis, Debye-Ang):
   XX=           -145.6846   YY=           -100.8997   ZZ=           -105.9093
   XY=            -29.8279   XZ=              6.7464   YZ=             -0.5067

 Normal termination of Gaussian 16 at Thu May  6 14:38:13 2021.
