 Gaussian 16, Revision A.03,
 Gaussian 16:  EM64L-G16RevA.03 25-Dec-2016

 -------------
 #p 6-31g* mp2
 -------------

 ------------------------------------------------------
 Input file generated by CHIRIPA (05-May-2021 14:53:16)
 ------------------------------------------------------
 Symbolic Z-matrix:
 Charge =  0 Multiplicity = 1

                         Standard orientation:
 ---------------------------------------------------------------------
 Center     Atomic      Atomic             Coordinates (Angstroms)
 Number     Number       Type             X           Y           Z
 ---------------------------------------------------------------------
      1          6           0       -4.043768   -0.706324   -0.209848
      2          6           0       -3.123615   -1.656121    0.557738
      3          6           0       -3.271524   -3.111227    0.112109
      4          1           0       -5.085743   -1.027998   -0.076586
      5          1           0       -3.827142   -0.785582   -1.284179
      6          1           0       -3.340961   -1.574077    1.630419
      7          1           0       -2.083724   -1.332035    0.422789
      8          1           0       -3.034709   -3.214271   -0.951799
      9          1           0       -4.299090   -3.457688    0.262692
     10          1           0       -2.604681   -3.772858    0.673736
     11          6           0       -3.907426    0.751960    0.224374
     12          6           0       -4.827579    1.701757   -0.543212
     13          6           0       -4.679669    3.156863   -0.097584
     14          1           0       -4.124052    0.831218    1.298705
     15          1           0       -2.865451    1.073634    0.091112
     16          1           0       -5.867470    1.377672   -0.408263
     17          1           0       -4.610232    1.619714   -1.615893
     18          1           0       -3.652104    3.503324   -0.248166
     19          1           0       -4.916485    3.259907    0.966325
     20          1           0       -5.346512    3.818494   -0.659211
     21          6           0        4.893079    1.760924    0.084258
     22          6           0        5.231591    0.444605   -0.246251
     23          6           0        4.249629   -0.549128   -0.299108
     24          6           0        2.933161   -0.189789   -0.014368
     25          6           0        2.564423    1.112828    0.318063
     26          6           0        3.562920    2.090253    0.364865
     27          1           0        5.662314    2.526545    0.122968
     28          1           0        6.263796    0.185956   -0.464651
     29          1           0        4.483926   -1.575998   -0.552209
     30          1           0        1.526892    1.340237    0.530743
     31          1           0        3.297116    3.111704    0.621834
     32          7           0        1.884849   -1.233178   -0.067121
     33          8           0        0.732280   -0.890914    0.187984
     34          8           0        2.235600   -2.373493   -0.362576
 ---------------------------------------------------------------------

 SCF Done:  E(RHF) =  -669.536214853     A.U. after   15 cycles
 E2 =    -0.2090919240D+01 EUMP2 =    -0.67162713409299D+03

 The electronic state is 1-A.
 Alpha  occ. eigenvalues --  -20.60982 -20.60977 -15.86023 -11.31324 -11.27885
 Alpha  occ. eigenvalues --  -11.27881 -11.27618 -11.26888 -11.26878 -11.21052
 Alpha  occ. eigenvalues --  -11.20715 -11.20613 -11.20357 -11.20087 -11.19750
 Alpha  occ. eigenvalues --   -1.60044  -1.39601  -1.19490  -1.08897  -1.07521
 Alpha  occ. eigenvalues --   -1.04883  -1.02586  -0.95742  -0.95089  -0.86285
 Alpha  occ. eigenvalues --   -0.86115  -0.82579  -0.78701  -0.77637  -0.77253
 Alpha  occ. eigenvalues --   -0.72247  -0.71359  -0.70598  -0.65148  -0.64886
 Alpha  occ. eigenvalues --   -0.64150  -0.62231  -0.59973  -0.58501  -0.56661
 Alpha  occ. eigenvalues --   -0.55388  -0.54393  -0.53216  -0.52975  -0.51792
 Alpha  occ. eigenvalues --   -0.51512  -0.49112  -0.48994  -0.48968  -0.47000
 Alpha  occ. eigenvalues --   -0.45728  -0.45020  -0.44824  -0.44625  -0.42852
 Alpha  occ. eigenvalues --   -0.37468  -0.36484
 Alpha virt. eigenvalues --    0.04902   0.11171   0.16406   0.21269   0.23670
 Alpha virt. eigenvalues --    0.25269   0.27088   0.27413   0.27983   0.28648
 Alpha virt. eigenvalues --    0.28923   0.30921   0.32216   0.32367   0.32646

 Mulliken charges:
               1
     1  C   -0.297046
     2  C   -0.312542
     3  C   -0.473348
     4  H    0.144903
     5  H    0.148395
     6  H    0.144924
     7  H    0.182902
     8  H    0.154865
     9  H    0.147348
    10  H    0.162991
    11  C   -0.297503
    12  C   -0.298898
    13  C   -0.474648
    14  H    0.147109
    15  H    0.150476
    16  H    0.150973
    17  H    0.151141
    18  H    0.151906
    19  H    0.154118
    20  H    0.158262
    21  C   -0.170550
    22  C   -0.218612
    23  C   -0.170352
    24  C    0.157283
    25  C   -0.170760
    26  C   -0.218530
    27  H    0.226126
    28  H    0.223917
    29  H    0.275952
    30  H    0.275546
    31  H    0.224023
    32  N    0.494830
    33  O   -0.466577
    34  O   -0.458624
 Sum of Mulliken charges =  -0.00000

 Dipole moment (field-independent basis, Debye):
    X=              4.0558    Y=              3.6201    Z=              0.1757  Tot=              5.4393
 Quadrupole moment (field-independent basis, Debye-Ang):
   XX=            -71.6979   YY=            -95.7159   ZZ=            -94.9794
   XY=              7.7008   XZ=             -0.9871   YZ=              0.6646

 Normal termination of Gaussian 16 at Thu May  6 02:44:14 2021.
