 Gaussian 16, Revision A.03,
 Gaussian 16:  EM64L-G16RevA.03 25-Dec-2016

 -------------
 #p 6-31g* mp2
 -------------

 ------------------------------------------------------
 Input file generated by CHIRIPA (05-May-2021 14:51:07)
 ------------------------------------------------------
 Symbolic Z-matrix:
 Charge =  0 Multiplicity = 1

                         Standard orientation:
 ---------------------------------------------------------------------
 Center     Atomic      Atomic             Coordinates (Angstroms)
 Number     Number       Type             X           Y           Z
 ---------------------------------------------------------------------
      1          6           0       -1.380640   -1.595746    0.408522
      2          6           0       -0.747261   -2.754202   -0.362707
      3          6           0        0.422074   -3.393887    0.386461
      4          1           0       -0.613612   -0.835842    0.611399
      5          1           0       -1.725673   -1.960325    1.385983
      6          1           0       -0.404771   -2.387855   -1.338979
      7          1           0       -1.515930   -3.511349   -0.563938
      8          1           0        0.091542   -3.786152    1.353662
      9          1           0        1.209015   -2.656275    0.574218
     10          1           0        0.859983   -4.219718   -0.182837
     11          6           0       -2.551010   -0.945999   -0.327543
     12          6           0       -3.184389    0.212458    0.443686
     13          6           0       -4.353724    0.852143   -0.305482
     14          1           0       -2.205977   -0.581419   -1.305004
     15          1           0       -3.318038   -1.705902   -0.530420
     16          1           0       -2.415720    0.969604    0.644917
     17          1           0       -3.526879   -0.153890    1.419957
     18          1           0       -5.140665    0.114530   -0.493240
     19          1           0       -4.023192    1.244407   -1.272683
     20          1           0       -4.791633    1.677973    0.263816
     21          6           0        1.677296    1.902648    0.277383
     22          6           0        0.391906    2.386762   -0.394474
     23          6           0       -0.173198    3.651543    0.252657
     24          1           0        1.478923    1.714565    1.341442
     25          1           0        2.428372    2.703640    0.236272
     26          1           0       -0.356065    1.584601   -0.353332
     27          1           0        0.593316    2.573529   -1.457096
     28          1           0        0.552730    4.469284    0.198543
     29          1           0       -0.402045    3.474738    1.308579
     30          1           0       -1.091918    3.980093   -0.243195
     31          6           0        2.254354    0.639097   -0.358362
     32          6           0        3.539744    0.154983    0.313494
     33          6           0        4.104848   -1.109799   -0.333636
     34          1           0        1.503278   -0.161895   -0.317251
     35          1           0        2.452727    0.827179   -1.422420
     36          1           0        3.338334   -0.031785    1.376118
     37          1           0        4.287716    0.957144    0.272354
     38          1           0        4.333696   -0.932993   -1.389557
     39          1           0        3.378920   -1.927540   -0.279521
     40          1           0        5.023568   -1.438348    0.162216
 ---------------------------------------------------------------------

 SCF Done:  E(RHF) =  -470.731869622     A.U. after   11 cycles
 E2 =    -0.1586284176D+01 EUMP2 =    -0.47231815379821D+03

 The electronic state is 1-A.
 Alpha  occ. eigenvalues --  -11.21658 -11.21641 -11.21631 -11.21610 -11.21452
 Alpha  occ. eigenvalues --  -11.21450 -11.21391 -11.21389 -11.21133 -11.21124
 Alpha  occ. eigenvalues --  -11.21083 -11.21053  -1.08565  -1.08413  -1.03639
 Alpha  occ. eigenvalues --   -1.03518  -0.96066  -0.95987  -0.87086  -0.86999
 Alpha  occ. eigenvalues --   -0.79716  -0.79571  -0.78451  -0.78174  -0.65671
 Alpha  occ. eigenvalues --   -0.64629  -0.61416  -0.60620  -0.59425  -0.59335
 Alpha  occ. eigenvalues --   -0.57696  -0.57585  -0.55564  -0.55094  -0.52730
 Alpha  occ. eigenvalues --   -0.52699  -0.52503  -0.52392  -0.50178  -0.49738
 Alpha  occ. eigenvalues --   -0.48134  -0.47825  -0.46921  -0.46598  -0.46275
 Alpha  occ. eigenvalues --   -0.45833  -0.45765  -0.45010  -0.43829  -0.43819
 Alpha virt. eigenvalues --    0.19327   0.21334   0.23484   0.25063   0.26106
 Alpha virt. eigenvalues --    0.26304   0.26808   0.27861   0.28558   0.30448
 Alpha virt. eigenvalues --    0.31128   0.31473   0.31570   0.32024   0.32274

 Mulliken charges:
               1
     1  C   -0.305543
     2  C   -0.300048
     3  C   -0.482511
     4  H    0.154336
     5  H    0.150062
     6  H    0.152928
     7  H    0.152755
     8  H    0.155726
     9  H    0.160393
    10  H    0.160914
    11  C   -0.298991
    12  C   -0.305520
    13  C   -0.475541
    14  H    0.150296
    15  H    0.150401
    16  H    0.157278
    17  H    0.152085
    18  H    0.155248
    19  H    0.155282
    20  H    0.160443
    21  C   -0.297582
    22  C   -0.309576
    23  C   -0.475852
    24  H    0.149575
    25  H    0.150187
    26  H    0.160065
    27  H    0.152213
    28  H    0.155649
    29  H    0.155380
    30  H    0.160703
    31  C   -0.307707
    32  C   -0.299254
    33  C   -0.481286
    34  H    0.157071
    35  H    0.149983
    36  H    0.151800
    37  H    0.152341
    38  H    0.155129
    39  H    0.160636
    40  H    0.160533
 Sum of Mulliken charges =  -0.00000

 Dipole moment (field-independent basis, Debye):
    X=             -0.0116    Y=             -0.0054    Z=             -0.0033  Tot=              0.0133
 Quadrupole moment (field-independent basis, Debye-Ang):
   XX=            -85.1077   YY=            -85.0884   ZZ=            -84.4709
   XY=              1.7030   XZ=             -0.8018   YZ=             -0.7416

 Normal termination of Gaussian 16 at Thu May  6 05:15:32 2021.
