 Gaussian 16, Revision A.03,
 Gaussian 16:  EM64L-G16RevA.03 25-Dec-2016

 -------------
 #p 6-31g* mp2
 -------------

 ------------------------------------------------------
 Input file generated by CHIRIPA (05-May-2021 14:55:23)
 ------------------------------------------------------
 Symbolic Z-matrix:
 Charge =  0 Multiplicity = 1

                         Standard orientation:
 ---------------------------------------------------------------------
 Center     Atomic      Atomic             Coordinates (Angstroms)
 Number     Number       Type             X           Y           Z
 ---------------------------------------------------------------------
      1          6           0        5.181560    0.632884    0.400180
      2          6           0        5.035458   -0.477283   -0.438095
      3          6           0        3.774591   -1.039674   -0.658274
      4          6           0        2.676416   -0.463899   -0.021260
      5          6           0        2.789619    0.642231    0.819543
      6          6           0        4.060151    1.188119    1.025222
      7          1           0        6.164785    1.063352    0.565588
      8          1           0        5.904591   -0.910574   -0.924831
      9          1           0        3.632929   -1.899089   -1.302288
     10          1           0        1.904598    1.052152    1.290840
     11          1           0        4.170622    2.050293    1.676756
     12          7           0        1.336477   -1.050542   -0.246678
     13          8           0        0.384709   -0.524705    0.326273
     14          8           0        1.263371   -2.025080   -0.992042
     15          6           0       -3.233801    1.031881    0.185653
     16          6           0       -3.103712    2.132532   -0.867738
     17          6           0       -2.150670    3.249443   -0.441107
     18          1           0       -3.584080    1.474674    1.128088
     19          1           0       -2.240057    0.609426    0.389121
     20          1           0       -4.097602    2.551840   -1.070171
     21          1           0       -2.753886    1.687037   -1.807830
     22          1           0       -1.147518    2.850940   -0.258125
     23          1           0       -2.498869    3.720658    0.483726
     24          1           0       -2.072565    4.025610   -1.208781
     25          6           0       -4.183169   -0.091815   -0.226334
     26          6           0       -4.313259   -1.192465    0.827056
     27          6           0       -5.266301   -2.309376    0.400424
     28          1           0       -5.176914    0.330641   -0.429804
     29          1           0       -3.832891   -0.534608   -1.168770
     30          1           0       -4.663085   -0.746970    1.767147
     31          1           0       -3.319368   -1.611774    1.029488
     32          1           0       -4.918102   -2.780591   -0.524409
     33          1           0       -6.269453   -1.910873    0.217442
     34          1           0       -5.344405   -3.085544    1.168098
 ---------------------------------------------------------------------

 SCF Done:  E(RHF) =  -669.536478391     A.U. after   15 cycles
 E2 =    -0.2091111952D+01 EUMP2 =    -0.67162759034260D+03

 The electronic state is 1-A.
 Alpha  occ. eigenvalues --  -20.61038 -20.61031 -15.86072 -11.31345 -11.27903
 Alpha  occ. eigenvalues --  -11.27899 -11.27633 -11.26901 -11.26891 -11.20634
 Alpha  occ. eigenvalues --  -11.20412 -11.20365 -11.20188 -11.20084 -11.20002
 Alpha  occ. eigenvalues --   -1.60096  -1.39654  -1.19509  -1.08922  -1.07266
 Alpha  occ. eigenvalues --   -1.04899  -1.02510  -0.95772  -0.94969  -0.86302
 Alpha  occ. eigenvalues --   -0.86000  -0.82609  -0.78569  -0.77670  -0.77056
 Alpha  occ. eigenvalues --   -0.72299  -0.71407  -0.70618  -0.65169  -0.64902
 Alpha  occ. eigenvalues --   -0.63864  -0.62247  -0.59902  -0.58351  -0.56585
 Alpha  occ. eigenvalues --   -0.55405  -0.54247  -0.53233  -0.52990  -0.51724
 Alpha  occ. eigenvalues --   -0.51417  -0.49093  -0.49048  -0.48876  -0.46902
 Alpha  occ. eigenvalues --   -0.45582  -0.45091  -0.44640  -0.44392  -0.42715
 Alpha  occ. eigenvalues --   -0.37486  -0.36498
 Alpha virt. eigenvalues --    0.04849   0.11154   0.16346   0.21188   0.23988
 Alpha virt. eigenvalues --    0.25129   0.26968   0.27487   0.28139   0.28913
 Alpha virt. eigenvalues --    0.29042   0.30784   0.31785   0.32531   0.32854

 Mulliken charges:
               1
     1  C   -0.170457
     2  C   -0.218596
     3  C   -0.170429
     4  C    0.157367
     5  C   -0.170935
     6  C   -0.218481
     7  H    0.226242
     8  H    0.223992
     9  H    0.275907
    10  H    0.276003
    11  H    0.224255
    12  N    0.494635
    13  O   -0.467240
    14  O   -0.458588
    15  C   -0.311716
    16  C   -0.297384
    17  C   -0.475561
    18  H    0.141945
    19  H    0.179347
    20  H    0.147258
    21  H    0.152909
    22  H    0.155228
    23  H    0.151601
    24  H    0.155567
    25  C   -0.296304
    26  C   -0.301733
    27  C   -0.475250
    28  H    0.143103
    29  H    0.152287
    30  H    0.146773
    31  H    0.163575
    32  H    0.156325
    33  H    0.151134
    34  H    0.157224
 Sum of Mulliken charges =  -0.00000

 Dipole moment (field-independent basis, Debye):
    X=              5.0834    Y=              1.9015    Z=              0.7924  Tot=              5.4849
 Quadrupole moment (field-independent basis, Debye-Ang):
   XX=            -70.2649   YY=            -95.9194   ZZ=            -93.4816
   XY=              1.2413   XZ=              0.3026   YZ=              2.2895

 Normal termination of Gaussian 16 at Thu May  6 03:08:13 2021.
