 Gaussian 16, Revision A.03,
 Gaussian 16:  EM64L-G16RevA.03 25-Dec-2016

 -------------
 #p 6-31g* mp2
 -------------

 ------------------------------------------------------
 Input file generated by CHIRIPA (05-May-2021 14:55:25)
 ------------------------------------------------------
 Symbolic Z-matrix:
 Charge =  0 Multiplicity = 1

                         Standard orientation:
 ---------------------------------------------------------------------
 Center     Atomic      Atomic             Coordinates (Angstroms)
 Number     Number       Type             X           Y           Z
 ---------------------------------------------------------------------
      1          6           0        1.773320    2.204446    1.247979
      2          6           0        2.234919    1.080824    1.941464
      3          6           0        2.441618   -0.130085    1.273989
      4          6           0        2.175371   -0.182057   -0.093382
      5          6           0        1.714711    0.919979   -0.812129
      6          6           0        1.515144    2.120585   -0.124185
      7          1           0        1.615521    3.141107    1.774440
      8          1           0        2.436255    1.143031    3.007127
      9          1           0        2.798303   -1.015358    1.786322
     10          1           0        1.522798    0.827192   -1.874192
     11          1           0        1.156590    2.991590   -0.665327
     12          7           0        2.390419   -1.458538   -0.810842
     13          8           0        2.148435   -1.478342   -2.015702
     14          8           0        2.796886   -2.415071   -0.154742
     15          6           0       -2.990929   -0.568420    0.454812
     16          6           0       -2.697826   -1.997188   -0.004207
     17          6           0       -3.207671   -3.050553    0.979802
     18          1           0       -2.531981   -0.404999    1.439497
     19          1           0       -4.074725   -0.449704    0.591520
     20          1           0       -1.615028   -2.112770   -0.141340
     21          1           0       -3.157363   -2.157166   -0.987999
     22          1           0       -4.291306   -2.963994    1.109589
     23          1           0       -2.740208   -2.919346    1.961058
     24          1           0       -2.987574   -4.064690    0.632034
     25          6           0       -2.487290    0.495914   -0.518466
     26          6           0       -2.780392    1.924682   -0.059447
     27          6           0       -2.270547    2.978047   -1.043456
     28          1           0       -1.403494    0.377198   -0.655173
     29          1           0       -2.946237    0.332492   -1.503151
     30          1           0       -2.320856    2.084660    0.924346
     31          1           0       -3.863191    2.040263    0.077687
     32          1           0       -2.738010    2.846840   -2.024711
     33          1           0       -1.186912    2.891488   -1.173243
     34          1           0       -2.490644    3.992184   -0.695688
 ---------------------------------------------------------------------

 SCF Done:  E(RHF) =  -669.535208596     A.U. after   15 cycles
 E2 =    -0.2093378931D+01 EUMP2 =    -0.67162858752729D+03

 The electronic state is 1-A.
 Alpha  occ. eigenvalues --  -20.60859 -20.60853 -15.85916 -11.31322 -11.27889
 Alpha  occ. eigenvalues --  -11.27881 -11.27622 -11.26899 -11.26888 -11.21933
 Alpha  occ. eigenvalues --  -11.21634 -11.21466 -11.21432 -11.21360 -11.20888
 Alpha  occ. eigenvalues --   -1.59935  -1.39487  -1.19497  -1.08878  -1.08512
 Alpha  occ. eigenvalues --   -1.04906  -1.03645  -0.96116  -0.95705  -0.87146
 Alpha  occ. eigenvalues --   -0.86288  -0.82540  -0.79722  -0.78293  -0.77579
 Alpha  occ. eigenvalues --   -0.72128  -0.71263  -0.70583  -0.65204  -0.65136
 Alpha  occ. eigenvalues --   -0.64883  -0.62281  -0.61028  -0.59499  -0.57703
 Alpha  occ. eigenvalues --   -0.55493  -0.55326  -0.53232  -0.53032  -0.52808
 Alpha  occ. eigenvalues --   -0.52498  -0.50060  -0.48891  -0.48882  -0.48028
 Alpha  occ. eigenvalues --   -0.46744  -0.45841  -0.45743  -0.44878  -0.43879
 Alpha  occ. eigenvalues --   -0.37460  -0.36444
 Alpha virt. eigenvalues --    0.04925   0.11053   0.16315   0.20595   0.22880
 Alpha virt. eigenvalues --    0.24216   0.25814   0.26696   0.27319   0.28268
 Alpha virt. eigenvalues --    0.28747   0.30154   0.31401   0.31893   0.32155

 Mulliken charges:
               1
     1  C   -0.172082
     2  C   -0.218508
     3  C   -0.170838
     4  C    0.158419
     5  C   -0.172427
     6  C   -0.216893
     7  H    0.226695
     8  H    0.224072
     9  H    0.276144
    10  H    0.277036
    11  H    0.226481
    12  N    0.487889
    13  O   -0.459697
    14  O   -0.460127
    15  C   -0.298239
    16  C   -0.299895
    17  C   -0.475706
    18  H    0.147880
    19  H    0.148728
    20  H    0.155275
    21  H    0.153430
    22  H    0.153623
    23  H    0.153666
    24  H    0.163592
    25  C   -0.302236
    26  C   -0.297753
    27  C   -0.478207
    28  H    0.152594
    29  H    0.150732
    30  H    0.149280
    31  H    0.153443
    32  H    0.158764
    33  H    0.146122
    34  H    0.158743
 Sum of Mulliken charges =  -0.00000

 Dipole moment (field-independent basis, Debye):
    X=             -0.6924    Y=              4.4043    Z=              2.5314  Tot=              5.1269
 Quadrupole moment (field-independent basis, Debye-Ang):
   XX=            -97.6173   YY=            -96.8512   ZZ=            -91.8765
   XY=              9.2409   XZ=              7.8736   YZ=             -2.2602

 Normal termination of Gaussian 16 at Wed May  5 17:39:15 2021.
