 Gaussian 16, Revision A.03,
 Gaussian 16:  EM64L-G16RevA.03 25-Dec-2016

 -------------
 #p 6-31g* mp2
 -------------

 ------------------------------------------------------
 Input file generated by CHIRIPA (05-May-2021 14:53:17)
 ------------------------------------------------------
 Symbolic Z-matrix:
 Charge =  0 Multiplicity = 1

                         Standard orientation:
 ---------------------------------------------------------------------
 Center     Atomic      Atomic             Coordinates (Angstroms)
 Number     Number       Type             X           Y           Z
 ---------------------------------------------------------------------
      1          6           0        4.642249   -0.147733    0.286202
      2          6           0        5.965619    0.063309   -0.450099
      3          6           0        6.962695   -1.070860   -0.210734
      4          1           0        4.840022   -0.242906    1.362665
      5          1           0        4.199465   -1.100481   -0.035682
      6          1           0        6.405097    1.016038   -0.127948
      7          1           0        5.764654    0.158181   -1.524914
      8          1           0        6.548233   -2.025993   -0.549177
      9          1           0        7.192315   -1.163262    0.855726
     10          1           0        7.901665   -0.899647   -0.746347
     11          6           0        3.635130    0.977786    0.056754
     12          6           0        2.311760    0.766744    0.793054
     13          6           0        1.314685    1.900912    0.553690
     14          1           0        4.077914    1.930533    0.378637
     15          1           0        3.437358    1.072958   -1.019710
     16          1           0        2.512726    0.671871    1.867870
     17          1           0        1.872283   -0.185986    0.470904
     18          1           0        1.085065    1.993314   -0.512770
     19          1           0        1.729147    2.856045    0.892133
     20          1           0        0.375714    1.729700    1.089303
     21          6           0       -5.479630    0.808676    0.057493
     22          6           0       -4.397720    1.490619   -0.509030
     23          6           0       -3.148545    0.872759   -0.620202
     24          6           0       -3.016189   -0.433765   -0.152477
     25          6           0       -4.075045   -1.139499    0.416781
     26          6           0       -5.315130   -0.501895    0.517779
     27          1           0       -6.446489    1.296314    0.139902
     28          1           0       -4.522557    2.508497   -0.867339
     29          1           0       -2.294134    1.377490   -1.054535
     30          1           0       -3.919865   -2.153421    0.765062
     31          1           0       -6.153591   -1.033932    0.958194
     32          7           0       -1.698556   -1.098317   -0.264784
     33          8           0       -1.607901   -2.249999    0.154796
     34          8           0       -0.781399   -0.454927   -0.770264
 ---------------------------------------------------------------------

 SCF Done:  E(RHF) =  -669.536173261     A.U. after   15 cycles
 E2 =    -0.2091780505D+01 EUMP2 =    -0.67162795376643D+03

 The electronic state is 1-A.
 Alpha  occ. eigenvalues --  -20.60988 -20.60963 -15.85993 -11.31295 -11.27855
 Alpha  occ. eigenvalues --  -11.27844 -11.27590 -11.26858 -11.26846 -11.20863
 Alpha  occ. eigenvalues --  -11.20464 -11.20431 -11.20339 -11.20218 -11.19968
 Alpha  occ. eigenvalues --   -1.60032  -1.39588  -1.19460  -1.08871  -1.07440
 Alpha  occ. eigenvalues --   -1.04852  -1.02542  -0.95722  -0.95034  -0.86253
 Alpha  occ. eigenvalues --   -0.86071  -0.82549  -0.78635  -0.77604  -0.77229
 Alpha  occ. eigenvalues --   -0.72232  -0.71345  -0.70568  -0.65121  -0.64855
 Alpha  occ. eigenvalues --   -0.64052  -0.62198  -0.59905  -0.58427  -0.56641
 Alpha  occ. eigenvalues --   -0.55359  -0.54319  -0.53184  -0.52944  -0.51770
 Alpha  occ. eigenvalues --   -0.51474  -0.49160  -0.48977  -0.48835  -0.46952
 Alpha  occ. eigenvalues --   -0.45628  -0.44998  -0.44795  -0.44590  -0.42819
 Alpha  occ. eigenvalues --   -0.37439  -0.36451
 Alpha virt. eigenvalues --    0.04894   0.11185   0.16375   0.21213   0.23827
 Alpha virt. eigenvalues --    0.24999   0.26997   0.27551   0.27995   0.28518
 Alpha virt. eigenvalues --    0.29073   0.30976   0.31872   0.32563   0.32716

 Mulliken charges:
               1
     1  C   -0.298505
     2  C   -0.298928
     3  C   -0.475288
     4  H    0.147245
     5  H    0.153859
     6  H    0.149390
     7  H    0.151363
     8  H    0.155895
     9  H    0.153915
    10  H    0.157649
    11  C   -0.297905
    12  C   -0.305253
    13  C   -0.467287
    14  H    0.143731
    15  H    0.149963
    16  H    0.144545
    17  H    0.176041
    18  H    0.156815
    19  H    0.144350
    20  H    0.152905
    21  C   -0.170493
    22  C   -0.218690
    23  C   -0.171132
    24  C    0.157577
    25  C   -0.170738
    26  C   -0.218627
    27  H    0.226024
    28  H    0.224102
    29  H    0.277310
    30  H    0.275773
    31  H    0.223799
    32  N    0.489600
    33  O   -0.459233
    34  O   -0.459771
 Sum of Mulliken charges =  -0.00000

 Dipole moment (field-independent basis, Debye):
    X=             -4.9314    Y=              2.1527    Z=              0.2970  Tot=              5.3890
 Quadrupole moment (field-independent basis, Debye-Ang):
   XX=            -68.0673   YY=            -94.3747   ZZ=            -94.2603
   XY=             -3.0453   XZ=             -1.4168   YZ=             -2.3461

 Normal termination of Gaussian 16 at Thu May  6 04:22:37 2021.
