 Gaussian 16, Revision A.03,
 Gaussian 16:  EM64L-G16RevA.03 25-Dec-2016

 -------------
 #p 6-31g* mp2
 -------------

 ------------------------------------------------------
 Input file generated by CHIRIPA (05-May-2021 14:53:12)
 ------------------------------------------------------
 Symbolic Z-matrix:
 Charge =  0 Multiplicity = 1

                         Standard orientation:
 ---------------------------------------------------------------------
 Center     Atomic      Atomic             Coordinates (Angstroms)
 Number     Number       Type             X           Y           Z
 ---------------------------------------------------------------------
      1          6           0        4.652418    0.449609    0.245902
      2          6           0        5.346396   -0.870513   -0.091228
      3          6           0        6.744457   -0.976048    0.518757
      4          1           0        5.272873    1.283813   -0.109180
      5          1           0        4.585753    0.552353    1.337870
      6          1           0        5.410492   -0.971382   -1.182252
      7          1           0        4.724125   -1.701676    0.264527
      8          1           0        6.695357   -0.901103    1.609891
      9          1           0        7.385624   -0.166660    0.154891
     10          1           0        7.222324   -1.927476    0.265207
     11          6           0        3.253860    0.570008   -0.356816
     12          6           0        2.559881    1.890130   -0.019686
     13          6           0        1.161820    1.995664   -0.629671
     14          1           0        3.320524    0.467264   -1.448784
     15          1           0        2.633404   -0.264197   -0.001734
     16          1           0        3.182153    2.721293   -0.375441
     17          1           0        2.495785    1.990999    1.071338
     18          1           0        0.520653    1.186277   -0.265805
     19          1           0        1.210921    1.920720   -1.720805
     20          1           0        0.683953    2.947093   -0.376121
     21          6           0       -5.393584    0.567758    0.387936
     22          6           0       -4.534045    0.401429    1.478830
     23          6           0       -3.254591   -0.132835    1.299643
     24          6           0       -2.865531   -0.491682    0.010010
     25          6           0       -3.698928   -0.338230   -1.096875
     26          6           0       -4.974023    0.198050   -0.894174
     27          1           0       -6.385801    0.983570    0.536266
     28          1           0       -4.857203    0.687670    2.475664
     29          1           0       -2.568884   -0.272424    2.126528
     30          1           0       -3.348563   -0.632830   -2.078644
     31          1           0       -5.639426    0.326089   -1.743225
     32          7           0       -1.513339   -1.058349   -0.192133
     33          8           0       -1.194406   -1.366675   -1.338368
     34          8           0       -0.798027   -1.183449    0.799490
 ---------------------------------------------------------------------

 SCF Done:  E(RHF) =  -669.536226169     A.U. after   15 cycles
 E2 =    -0.2091392821D+01 EUMP2 =    -0.67162761898959D+03

 The electronic state is 1-A.
 Alpha  occ. eigenvalues --  -20.60959 -20.60950 -15.85972 -11.31276 -11.27841
 Alpha  occ. eigenvalues --  -11.27835 -11.27577 -11.26843 -11.26833 -11.20744
 Alpha  occ. eigenvalues --  -11.20659 -11.20467 -11.20382 -11.20187 -11.20100
 Alpha  occ. eigenvalues --   -1.60017  -1.39570  -1.19444  -1.08855  -1.07455
 Alpha  occ. eigenvalues --   -1.04838  -1.02630  -0.95700  -0.95082  -0.86240
 Alpha  occ. eigenvalues --   -0.86106  -0.82535  -0.78707  -0.77591  -0.77240
 Alpha  occ. eigenvalues --   -0.72197  -0.71348  -0.70556  -0.65101  -0.64843
 Alpha  occ. eigenvalues --   -0.64079  -0.62187  -0.60025  -0.58457  -0.56689
 Alpha  occ. eigenvalues --   -0.55347  -0.54359  -0.53169  -0.52931  -0.51827
 Alpha  occ. eigenvalues --   -0.51500  -0.49062  -0.48965  -0.48919  -0.47014
 Alpha  occ. eigenvalues --   -0.45748  -0.44996  -0.44794  -0.44622  -0.42870
 Alpha  occ. eigenvalues --   -0.37422  -0.36436
 Alpha virt. eigenvalues --    0.04909   0.11218   0.16391   0.21344   0.23838
 Alpha virt. eigenvalues --    0.25185   0.27266   0.27592   0.28140   0.28540
 Alpha virt. eigenvalues --    0.28817   0.30849   0.32157   0.32487   0.32621

 Mulliken charges:
               1
     1  C   -0.297791
     2  C   -0.299575
     3  C   -0.475193
     4  H    0.145526
     5  H    0.147725
     6  H    0.151179
     7  H    0.155765
     8  H    0.153912
     9  H    0.152978
    10  H    0.158527
    11  C   -0.302542
    12  C   -0.297102
    13  C   -0.480416
    14  H    0.148145
    15  H    0.167288
    16  H    0.146795
    17  H    0.149625
    18  H    0.164762
    19  H    0.154838
    20  H    0.151677
    21  C   -0.170439
    22  C   -0.218622
    23  C   -0.170637
    24  C    0.158185
    25  C   -0.170356
    26  C   -0.218641
    27  H    0.225958
    28  H    0.223758
    29  H    0.275690
    30  H    0.275956
    31  H    0.223805
    32  N    0.487296
    33  O   -0.457272
    34  O   -0.460806
 Sum of Mulliken charges =  -0.00000

 Dipole moment (field-independent basis, Debye):
    X=             -5.0119    Y=              1.8187    Z=              0.6982  Tot=              5.3772
 Quadrupole moment (field-independent basis, Debye-Ang):
   XX=            -69.5923   YY=            -97.9350   ZZ=            -89.3823
   XY=             -3.4212   XZ=             -1.8301   YZ=             -0.0271

 Normal termination of Gaussian 16 at Thu May  6 07:16:53 2021.
