 Gaussian 16, Revision A.03,
 Gaussian 16:  EM64L-G16RevA.03 25-Dec-2016

 -------------
 #p 6-31g* mp2
 -------------

 ------------------------------------------------------
 Input file generated by CHIRIPA (05-May-2021 14:51:12)
 ------------------------------------------------------
 Symbolic Z-matrix:
 Charge =  0 Multiplicity = 1

                         Standard orientation:
 ---------------------------------------------------------------------
 Center     Atomic      Atomic             Coordinates (Angstroms)
 Number     Number       Type             X           Y           Z
 ---------------------------------------------------------------------
      1          6           0        3.378414   -0.609941    0.376070
      2          6           0        3.428238   -1.885883   -0.465046
      3          6           0        2.872042   -3.103286    0.274122
      4          1           0        3.945012   -0.767701    1.303984
      5          1           0        2.338700   -0.415778    0.673877
      6          1           0        4.467360   -2.076824   -0.762337
      7          1           0        2.861617   -1.725003   -1.391152
      8          1           0        1.827419   -2.938060    0.557078
      9          1           0        3.442286   -3.291880    1.189466
     10          1           0        2.917252   -4.004353   -0.345470
     11          6           0        3.930996    0.615750   -0.349232
     12          6           0        3.881173    1.891692    0.491883
     13          6           0        4.437369    3.109095   -0.247285
     14          1           0        4.970711    0.421587   -0.647040
     15          1           0        3.364399    0.773510   -1.277146
     16          1           0        4.447794    1.730812    1.417990
     17          1           0        2.842050    2.082632    0.789174
     18          1           0        3.867124    3.297689   -1.162629
     19          1           0        5.481992    2.943869   -0.530241
     20          1           0        4.392159    4.010162    0.372307
     21          6           0       -4.382110   -0.177138   -0.168201
     22          6           0       -5.367254    0.921435    0.232567
     23          6           0       -6.818450    0.558139   -0.083406
     24          1           0       -4.485326   -0.379070   -1.243149
     25          1           0       -4.649708   -1.107452    0.351705
     26          1           0       -5.097044    1.849757   -0.286875
     27          1           0       -5.261546    1.120909    1.306650
     28          1           0       -7.111431   -0.353887    0.446662
     29          1           0       -6.945994    0.379102   -1.155917
     30          1           0       -7.505668    1.357384    0.211211
     31          6           0       -2.927301    0.171329    0.141364
     32          6           0       -1.942157   -0.927243   -0.259405
     33          6           0       -0.490960   -0.563948    0.056569
     34          1           0       -2.659702    1.101643   -0.378542
     35          1           0       -2.824085    0.373261    1.216313
     36          1           0       -2.047865   -1.126717   -1.333486
     37          1           0       -2.212367   -1.855565    0.260038
     38          1           0       -0.363416   -0.384911    1.129080
     39          1           0       -0.197979    0.348078   -0.473498
     40          1           0        0.196257   -1.363194   -0.238048
 ---------------------------------------------------------------------

 SCF Done:  E(RHF) =  -470.732464289     A.U. after   11 cycles
 E2 =    -0.1583687090D+01 EUMP2 =    -0.47231615137979D+03

 The electronic state is 1-A.
 Alpha  occ. eigenvalues --  -11.21675 -11.21633 -11.21534 -11.21533 -11.21456
 Alpha  occ. eigenvalues --  -11.21394 -11.21293 -11.21183 -11.21182 -11.21096
 Alpha  occ. eigenvalues --  -11.21026 -11.21022  -1.08490  -1.08337  -1.03610
 Alpha  occ. eigenvalues --   -1.03458  -0.96058  -0.95913  -0.87092  -0.86926
 Alpha  occ. eigenvalues --   -0.79703  -0.79507  -0.78309  -0.78125  -0.65114
 Alpha  occ. eigenvalues --   -0.65007  -0.61021  -0.60963  -0.59422  -0.59201
 Alpha  occ. eigenvalues --   -0.57695  -0.57488  -0.55351  -0.55204  -0.52773
 Alpha  occ. eigenvalues --   -0.52608  -0.52523  -0.52283  -0.49998  -0.49862
 Alpha  occ. eigenvalues --   -0.47982  -0.47825  -0.46707  -0.46546  -0.45908
 Alpha  occ. eigenvalues --   -0.45761  -0.45682  -0.45548  -0.43756  -0.43694
 Alpha virt. eigenvalues --    0.21105   0.22974   0.23672   0.24916   0.25857
 Alpha virt. eigenvalues --    0.26561   0.27113   0.27514   0.27949   0.29408
 Alpha virt. eigenvalues --    0.30499   0.31018   0.31716   0.31852   0.32093

 Mulliken charges:
               1
     1  C   -0.307240
     2  C   -0.300466
     3  C   -0.479691
     4  H    0.148516
     5  H    0.163085
     6  H    0.152108
     7  H    0.151355
     8  H    0.157711
     9  H    0.155423
    10  H    0.159900
    11  C   -0.297672
    12  C   -0.299866
    13  C   -0.475580
    14  H    0.148893
    15  H    0.149117
    16  H    0.151728
    17  H    0.152133
    18  H    0.154834
    19  H    0.155071
    20  H    0.159977
    21  C   -0.298332
    22  C   -0.299656
    23  C   -0.475738
    24  H    0.149738
    25  H    0.149693
    26  H    0.151955
    27  H    0.152022
    28  H    0.155261
    29  H    0.155224
    30  H    0.160372
    31  C   -0.298749
    32  C   -0.300310
    33  C   -0.483688
    34  H    0.149510
    35  H    0.149811
    36  H    0.152193
    37  H    0.152415
    38  H    0.155468
    39  H    0.155423
    40  H    0.168047
 Sum of Mulliken charges =  -0.00000

 Dipole moment (field-independent basis, Debye):
    X=             -0.0618    Y=             -0.0007    Z=              0.0129  Tot=              0.0631
 Quadrupole moment (field-independent basis, Debye-Ang):
   XX=            -85.4573   YY=            -85.6352   ZZ=            -83.9791
   XY=             -0.6118   XZ=              0.2492   YZ=             -0.1158

 Normal termination of Gaussian 16 at Wed May  5 19:53:09 2021.
