 Gaussian 16, Revision A.03,
 Gaussian 16:  EM64L-G16RevA.03 25-Dec-2016

 -------------
 #p 6-31g* mp2
 -------------

 ------------------------------------------------------
 Input file generated by CHIRIPA (05-May-2021 14:51:13)
 ------------------------------------------------------
 Symbolic Z-matrix:
 Charge =  0 Multiplicity = 1

                         Standard orientation:
 ---------------------------------------------------------------------
 Center     Atomic      Atomic             Coordinates (Angstroms)
 Number     Number       Type             X           Y           Z
 ---------------------------------------------------------------------
      1          6           0       -3.749827    0.193417   -0.382688
      2          6           0       -4.803687    0.933445    0.441764
      3          6           0       -5.662884    1.873693   -0.404112
      4          1           0       -3.105866    0.927215   -0.886474
      5          1           0       -4.250441   -0.379515   -1.175487
      6          1           0       -4.301332    1.503712    1.233631
      7          1           0       -5.445094    0.197800    0.943799
      8          1           0       -6.190073    1.315979   -1.184900
      9          1           0       -5.039812    2.629311   -0.893421
     10          1           0       -6.409547    2.392411    0.205220
     11          6           0       -2.882987   -0.750361    0.448936
     12          6           0       -1.829127   -1.490390   -0.375516
     13          6           0       -0.969929   -2.430638    0.470361
     14          1           0       -2.382372   -0.177430    1.241735
     15          1           0       -3.526947   -1.484159    0.952722
     16          1           0       -1.187719   -0.754745   -0.877550
     17          1           0       -2.331482   -2.060656   -1.167382
     18          1           0       -1.593002   -3.186256    0.959669
     19          1           0       -0.442741   -1.872924    1.251148
     20          1           0       -0.223267   -2.949356   -0.138972
     21          6           0        3.580876   -0.422933   -0.179813
     22          6           0        2.537238   -1.520603    0.029774
     23          6           0        3.081347   -2.918195   -0.267677
     24          1           0        3.943736   -0.463836   -1.215962
     25          1           0        4.448704   -0.624128    0.463454
     26          1           0        1.671052   -1.316646   -0.612674
     27          1           0        2.176682   -1.476960    1.065491
     28          1           0        3.932175   -3.146739    0.382294
     29          1           0        3.423672   -2.985514   -1.305406
     30          1           0        2.318765   -3.687550   -0.111407
     31          6           0        3.051937    0.979879    0.113565
     32          6           0        4.095576    2.077548   -0.096022
     33          6           0        3.551466    3.475140    0.201428
     34          1           0        2.184110    1.181072   -0.529701
     35          1           0        2.689079    1.020781    1.149714
     36          1           0        4.456133    2.033905   -1.131740
     37          1           0        4.961761    1.873591    0.546426
     38          1           0        3.209142    3.542458    1.239158
     39          1           0        2.700640    3.703684   -0.448542
     40          1           0        4.314050    4.244495    0.045159
 ---------------------------------------------------------------------

 SCF Done:  E(RHF) =  -470.732412571     A.U. after   11 cycles
 E2 =    -0.1583584745D+01 EUMP2 =    -0.47231599731580D+03

 The electronic state is 1-A.
 Alpha  occ. eigenvalues --  -11.21614 -11.21594 -11.21588 -11.21526 -11.21406
 Alpha  occ. eigenvalues --  -11.21394 -11.21334 -11.21331 -11.21090 -11.21066
 Alpha  occ. eigenvalues --  -11.21053 -11.20962  -1.08447  -1.08394  -1.03589
 Alpha  occ. eigenvalues --   -1.03446  -0.96040  -0.95896  -0.86999  -0.86971
 Alpha  occ. eigenvalues --   -0.79674  -0.79495  -0.78250  -0.78218  -0.65086
 Alpha  occ. eigenvalues --   -0.65022  -0.60987  -0.60888  -0.59635  -0.59101
 Alpha  occ. eigenvalues --   -0.57751  -0.57379  -0.55266  -0.55228  -0.52795
 Alpha  occ. eigenvalues --   -0.52563  -0.52428  -0.52276  -0.49943  -0.49896
 Alpha  occ. eigenvalues --   -0.47946  -0.47820  -0.46714  -0.46513  -0.45826
 Alpha  occ. eigenvalues --   -0.45773  -0.45678  -0.45599  -0.43778  -0.43749
 Alpha virt. eigenvalues --    0.21291   0.23170   0.23426   0.24798   0.25710
 Alpha virt. eigenvalues --    0.26105   0.26876   0.27472   0.27923   0.29275
 Alpha virt. eigenvalues --    0.30158   0.30517   0.31288   0.31985   0.32630

 Mulliken charges:
               1
     1  C   -0.298235
     2  C   -0.299649
     3  C   -0.475694
     4  H    0.149473
     5  H    0.149443
     6  H    0.151988
     7  H    0.151927
     8  H    0.155138
     9  H    0.155150
    10  H    0.160248
    11  C   -0.298394
    12  C   -0.301694
    13  C   -0.478988
    14  H    0.149773
    15  H    0.149729
    16  H    0.152150
    17  H    0.151687
    18  H    0.154036
    19  H    0.157723
    20  H    0.163931
    21  C   -0.298133
    22  C   -0.301860
    23  C   -0.478910
    24  H    0.149303
    25  H    0.149233
    26  H    0.156146
    27  H    0.153147
    28  H    0.155401
    29  H    0.154890
    30  H    0.162009
    31  C   -0.298114
    32  C   -0.299563
    33  C   -0.475693
    34  H    0.148760
    35  H    0.149122
    36  H    0.152039
    37  H    0.152074
    38  H    0.155068
    39  H    0.154975
    40  H    0.160361
 Sum of Mulliken charges =  -0.00000

 Dipole moment (field-independent basis, Debye):
    X=              0.0081    Y=             -0.0107    Z=              0.0103  Tot=              0.0169
 Quadrupole moment (field-independent basis, Debye-Ang):
   XX=            -84.9344   YY=            -85.9112   ZZ=            -84.0598
   XY=              1.2057   XZ=              0.1331   YZ=              0.1872

 Normal termination of Gaussian 16 at Thu May  6 05:35:07 2021.
