 Gaussian 16, Revision A.03,
 Gaussian 16:  EM64L-G16RevA.03 25-Dec-2016

 -------------
 #p 6-31g* mp2
 -------------

 ------------------------------------------------------
 Input file generated by CHIRIPA (05-May-2021 14:55:25)
 ------------------------------------------------------
 Symbolic Z-matrix:
 Charge =  0 Multiplicity = 1

                         Standard orientation:
 ---------------------------------------------------------------------
 Center     Atomic      Atomic             Coordinates (Angstroms)
 Number     Number       Type             X           Y           Z
 ---------------------------------------------------------------------
      1          6           0        2.603208   -2.219801    0.417833
      2          6           0        1.972774   -1.364181    1.327222
      3          6           0        2.050893    0.022649    1.168634
      4          6           0        2.771024    0.521912    0.084458
      5          6           0        3.410007   -0.304597   -0.838512
      6          6           0        3.318552   -1.688215   -0.660231
      7          1           0        2.537344   -3.295876    0.548677
      8          1           0        1.416543   -1.774208    2.165392
      9          1           0        1.572419    0.707953    1.857719
     10          1           0        3.957257    0.133735   -1.664224
     11          1           0        3.809160   -2.350299   -1.368039
     12          7           0        2.860785    1.988386   -0.093856
     13          8           0        3.501323    2.403251   -1.057305
     14          8           0        2.288901    2.695176    0.733208
     15          6           0       -3.961509    0.134506    0.244466
     16          6           0       -5.188927    0.610142   -0.533480
     17          6           0       -6.046311    1.596327    0.260323
     18          1           0       -4.288872   -0.334444    1.182477
     19          1           0       -3.354149    1.005862    0.525974
     20          1           0       -5.793075   -0.261967   -0.814633
     21          1           0       -4.858613    1.077842   -1.469838
     22          1           0       -5.464176    2.483948    0.528369
     23          1           0       -6.403948    1.136527    1.187298
     24          1           0       -6.918320    1.923380   -0.314565
     25          6           0       -3.094442   -0.851867   -0.535914
     26          6           0       -1.867024   -1.327504    0.242033
     27          6           0       -1.009638   -2.313688   -0.551770
     28          1           0       -3.701801   -1.723224   -0.817421
     29          1           0       -2.767078   -0.382919   -1.473925
     30          1           0       -2.197337   -1.795203    1.178391
     31          1           0       -1.262874   -0.455395    0.523186
     32          1           0       -0.652001   -1.853889   -1.478745
     33          1           0       -1.591774   -3.201309   -0.819816
     34          1           0       -0.137630   -2.640743    0.023118
 ---------------------------------------------------------------------

 SCF Done:  E(RHF) =  -669.533949259     A.U. after   15 cycles
 E2 =    -0.2093553416D+01 EUMP2 =    -0.67162750267554D+03

 The electronic state is 1-A.
 Alpha  occ. eigenvalues --  -20.60815 -20.60810 -15.85870 -11.31245 -11.27813
 Alpha  occ. eigenvalues --  -11.27806 -11.27540 -11.26825 -11.26814 -11.21910
 Alpha  occ. eigenvalues --  -11.21637 -11.21564 -11.21456 -11.21325 -11.21061
 Alpha  occ. eigenvalues --   -1.59891  -1.39445  -1.19426  -1.08833  -1.08575
 Alpha  occ. eigenvalues --   -1.04832  -1.03686  -0.96142  -0.95649  -0.87165
 Alpha  occ. eigenvalues --   -0.86225  -0.82482  -0.79769  -0.78389  -0.77522
 Alpha  occ. eigenvalues --   -0.72089  -0.71216  -0.70541  -0.65208  -0.65081
 Alpha  occ. eigenvalues --   -0.64839  -0.62181  -0.61087  -0.59592  -0.57798
 Alpha  occ. eigenvalues --   -0.55430  -0.55335  -0.53467  -0.52918  -0.52667
 Alpha  occ. eigenvalues --   -0.52338  -0.50061  -0.48848  -0.48842  -0.48091
 Alpha  occ. eigenvalues --   -0.46800  -0.45933  -0.45842  -0.44848  -0.43970
 Alpha  occ. eigenvalues --   -0.37289  -0.36381
 Alpha virt. eigenvalues --    0.04966   0.11135   0.16405   0.20849   0.22837
 Alpha virt. eigenvalues --    0.24315   0.26358   0.26698   0.27193   0.28110
 Alpha virt. eigenvalues --    0.28495   0.30676   0.31254   0.31814   0.31984

 Mulliken charges:
               1
     1  C   -0.170254
     2  C   -0.215639
     3  C   -0.171617
     4  C    0.158110
     5  C   -0.171240
     6  C   -0.217819
     7  H    0.226501
     8  H    0.225104
     9  H    0.275902
    10  H    0.275812
    11  H    0.223927
    12  N    0.488039
    13  O   -0.460274
    14  O   -0.460472
    15  C   -0.299106
    16  C   -0.299879
    17  C   -0.476071
    18  H    0.148209
    19  H    0.152137
    20  H    0.151180
    21  H    0.153418
    22  H    0.157084
    23  H    0.154400
    24  H    0.160679
    25  C   -0.298208
    26  C   -0.301458
    27  C   -0.474955
    28  H    0.149135
    29  H    0.151965
    30  H    0.147533
    31  H    0.152357
    32  H    0.157396
    33  H    0.152570
    34  H    0.155534
 Sum of Mulliken charges =  -0.00000

 Dipole moment (field-independent basis, Debye):
    X=             -0.2568    Y=             -5.1114    Z=              0.5975  Tot=              5.1526
 Quadrupole moment (field-independent basis, Debye-Ang):
   XX=            -95.6406   YY=           -100.8269   ZZ=            -91.6026
   XY=            -14.4801   XZ=             -0.7527   YZ=             -0.1122

 Normal termination of Gaussian 16 at Thu May  6 19:21:52 2021.
