 Gaussian 16, Revision A.03,
 Gaussian 16:  EM64L-G16RevA.03 25-Dec-2016

 -------------
 #p 6-31g* mp2
 -------------

 ------------------------------------------------------
 Input file generated by CHIRIPA (05-May-2021 14:55:23)
 ------------------------------------------------------
 Symbolic Z-matrix:
 Charge =  0 Multiplicity = 1

                         Standard orientation:
 ---------------------------------------------------------------------
 Center     Atomic      Atomic             Coordinates (Angstroms)
 Number     Number       Type             X           Y           Z
 ---------------------------------------------------------------------
      1          6           0       -2.067831    1.977790    0.001812
      2          6           0       -3.394145    2.372766    0.205295
      3          6           0       -4.427135    1.431021    0.180861
      4          6           0       -4.096435    0.096757   -0.050802
      5          6           0       -2.784791   -0.327921   -0.257023
      6          6           0       -1.767915    0.631082   -0.228292
      7          1           0       -1.271638    2.716064    0.022462
      8          1           0       -3.630013    3.417944    0.384219
      9          1           0       -5.462567    1.709307    0.335315
     10          1           0       -2.580742   -1.377112   -0.433040
     11          1           0       -0.738788    0.321457   -0.386643
     12          7           0       -5.181486   -0.909361   -0.078944
     13          8           0       -4.863902   -2.078682   -0.285017
     14          8           0       -6.328986   -0.509584    0.105605
     15          6           0        4.324842   -0.479441   -0.236222
     16          6           0        3.355420   -1.108693    0.764900
     17          6           0        1.979875   -1.389547    0.159266
     18          1           0        3.892515    0.455869   -0.617317
     19          1           0        4.433607   -1.148641   -1.100940
     20          1           0        3.249586   -0.439146    1.628105
     21          1           0        3.790190   -2.042516    1.143800
     22          1           0        2.065469   -2.075774   -0.689478
     23          1           0        1.521793   -0.463294   -0.202420
     24          1           0        1.302753   -1.839228    0.892173
     25          6           0        5.704228   -0.192758    0.354402
     26          6           0        6.673651    0.436493   -0.646721
     27          6           0        8.049196    0.717348   -0.041088
     28          1           0        5.595464    0.476441    1.219120
     29          1           0        6.136555   -1.128068    0.735497
     30          1           0        6.238881    1.370317   -1.025620
     31          1           0        6.779484   -0.233053   -1.509926
     32          1           0        8.507278   -0.208905    0.320600
     33          1           0        7.963602    1.403575    0.807657
     34          1           0        8.726318    1.167029   -0.773993
 ---------------------------------------------------------------------

 SCF Done:  E(RHF) =  -669.535527655     A.U. after   15 cycles
 E2 =    -0.2090750613D+01 EUMP2 =    -0.67162627826814D+03

 The electronic state is 1-A.
 Alpha  occ. eigenvalues --  -20.60712 -20.60707 -15.85764 -11.31119 -11.27689
 Alpha  occ. eigenvalues --  -11.27669 -11.27428 -11.26711 -11.26650 -11.22366
 Alpha  occ. eigenvalues --  -11.22109 -11.22061 -11.22042 -11.21897 -11.21453
 Alpha  occ. eigenvalues --   -1.59788  -1.39341  -1.19288  -1.09048  -1.08688
 Alpha  occ. eigenvalues --   -1.04688  -1.04173  -0.96643  -0.95525  -0.87669
 Alpha  occ. eigenvalues --   -0.86088  -0.82356  -0.80244  -0.78834  -0.77402
 Alpha  occ. eigenvalues --   -0.71983  -0.71110  -0.70404  -0.65688  -0.64940
 Alpha  occ. eigenvalues --   -0.64707  -0.62084  -0.61535  -0.60008  -0.58230
 Alpha  occ. eigenvalues --   -0.55961  -0.55192  -0.53362  -0.53120  -0.53021
 Alpha  occ. eigenvalues --   -0.52708  -0.50568  -0.48747  -0.48739  -0.48543
 Alpha  occ. eigenvalues --   -0.47259  -0.46384  -0.46289  -0.44749  -0.44413
 Alpha  occ. eigenvalues --   -0.37276  -0.36289
 Alpha virt. eigenvalues --    0.05126   0.11358   0.16617   0.20231   0.22416
 Alpha virt. eigenvalues --    0.23741   0.25281   0.26258   0.27024   0.28216
 Alpha virt. eigenvalues --    0.28701   0.29933   0.31046   0.31317   0.31996

 Mulliken charges:
               1
     1  C   -0.173164
     2  C   -0.218444
     3  C   -0.171416
     4  C    0.158877
     5  C   -0.173949
     6  C   -0.225503
     7  H    0.225119
     8  H    0.223013
     9  H    0.275297
    10  H    0.276210
    11  H    0.235485
    12  N    0.488067
    13  O   -0.460466
    14  O   -0.460760
    15  C   -0.298647
    16  C   -0.299371
    17  C   -0.481551
    18  H    0.147100
    19  H    0.151435
    20  H    0.152810
    21  H    0.156356
    22  H    0.160313
    23  H    0.145717
    24  H    0.163816
    25  C   -0.298783
    26  C   -0.299955
    27  C   -0.476014
    28  H    0.149715
    29  H    0.151476
    30  H    0.151275
    31  H    0.152947
    32  H    0.156233
    33  H    0.155360
    34  H    0.161399
 Sum of Mulliken charges =  -0.00000

 Dipole moment (field-independent basis, Debye):
    X=              4.0526    Y=              3.4731    Z=              0.1262  Tot=              5.3388
 Quadrupole moment (field-independent basis, Debye-Ang):
   XX=           -124.4765   YY=            -90.8336   ZZ=            -95.4924
   XY=            -17.7944   XZ=             -1.6273   YZ=              0.7555

 Normal termination of Gaussian 16 at Thu May  6 15:58:23 2021.
