 Gaussian 16, Revision A.03,
 Gaussian 16:  EM64L-G16RevA.03 25-Dec-2016

 -------------
 #p 6-31g* mp2
 -------------

 ------------------------------------------------------
 Input file generated by CHIRIPA (05-May-2021 14:55:19)
 ------------------------------------------------------
 Symbolic Z-matrix:
 Charge =  0 Multiplicity = 1

                         Standard orientation:
 ---------------------------------------------------------------------
 Center     Atomic      Atomic             Coordinates (Angstroms)
 Number     Number       Type             X           Y           Z
 ---------------------------------------------------------------------
      1          6           0       -3.908210    0.777461   -1.425245
      2          6           0       -3.059265    1.569168   -0.644853
      3          6           0       -2.185946    0.980715    0.274704
      4          6           0       -2.187803   -0.408652    0.388486
      5          6           0       -3.021573   -1.224467   -0.374773
      6          6           0       -3.886693   -0.614376   -1.287957
      7          1           0       -4.583441    1.242990   -2.137104
      8          1           0       -3.073821    2.650332   -0.749346
      9          1           0       -1.518084    1.569789    0.891445
     10          1           0       -2.984360   -2.299646   -0.248192
     11          1           0       -4.544880   -1.231725   -1.892700
     12          7           0       -1.267599   -1.043075    1.358606
     13          8           0       -1.288402   -2.269285    1.439923
     14          8           0       -0.542965   -0.302112    2.019301
     15          6           0        2.445496    0.919794   -0.269743
     16          6           0        2.920137    2.259632    0.293760
     17          6           0        1.810505    3.310805    0.333110
     18          1           0        2.049329    1.074917   -1.282626
     19          1           0        1.609512    0.549189    0.339500
     20          1           0        3.755881    2.626930   -0.315536
     21          1           0        3.315398    2.101270    1.305346
     22          1           0        0.978317    2.969320    0.957172
     23          1           0        1.421304    3.497966   -0.672919
     24          1           0        2.171639    4.260768    0.739328
     25          6           0        3.543529   -0.141319   -0.315470
     26          6           0        3.068889   -1.481157   -0.878972
     27          6           0        4.178520   -2.532329   -0.918322
     28          1           0        4.379514    0.229286   -0.924712
     29          1           0        3.939697   -0.296441    0.697414
     30          1           0        2.673628   -1.322796   -1.890558
     31          1           0        2.233144   -1.848455   -0.269676
     32          1           0        4.567722   -2.719491    0.087706
     33          1           0        5.010708   -2.190845   -1.542385
     34          1           0        3.817386   -3.482292   -1.324541
 ---------------------------------------------------------------------

 SCF Done:  E(RHF) =  -669.536685847     A.U. after   15 cycles
 E2 =    -0.2092132282D+01 EUMP2 =    -0.67162881812940D+03

 The electronic state is 1-A.
 Alpha  occ. eigenvalues --  -20.61017 -20.61007 -15.86020 -11.31269 -11.27832
 Alpha  occ. eigenvalues --  -11.27821 -11.27561 -11.26828 -11.26812 -11.21180
 Alpha  occ. eigenvalues --  -11.20966 -11.20928 -11.20739 -11.20667 -11.20472
 Alpha  occ. eigenvalues --   -1.60061  -1.39621  -1.19435  -1.08855  -1.07839
 Alpha  occ. eigenvalues --   -1.04822  -1.03034  -0.95708  -0.95501  -0.86530
 Alpha  occ. eigenvalues --   -0.86228  -0.82545  -0.79105  -0.77708  -0.77547
 Alpha  occ. eigenvalues --   -0.72249  -0.71362  -0.70551  -0.65097  -0.64832
 Alpha  occ. eigenvalues --   -0.64435  -0.62177  -0.60419  -0.58877  -0.57114
 Alpha  occ. eigenvalues --   -0.55338  -0.54785  -0.53155  -0.52919  -0.52229
 Alpha  occ. eigenvalues --   -0.51950  -0.49453  -0.49023  -0.48999  -0.47438
 Alpha  occ. eigenvalues --   -0.46138  -0.45442  -0.45184  -0.44586  -0.43252
 Alpha  occ. eigenvalues --   -0.37412  -0.36415
 Alpha virt. eigenvalues --    0.04881   0.11206   0.16356   0.20592   0.23305
 Alpha virt. eigenvalues --    0.24197   0.26009   0.27348   0.27743   0.28307
 Alpha virt. eigenvalues --    0.29297   0.30422   0.31466   0.32088   0.32447

 Mulliken charges:
               1
     1  C   -0.170321
     2  C   -0.219725
     3  C   -0.172258
     4  C    0.158207
     5  C   -0.170340
     6  C   -0.218778
     7  H    0.225951
     8  H    0.224450
     9  H    0.279751
    10  H    0.275605
    11  H    0.223698
    12  N    0.487768
    13  O   -0.458237
    14  O   -0.460087
    15  C   -0.310194
    16  C   -0.297336
    17  C   -0.478710
    18  H    0.142477
    19  H    0.167492
    20  H    0.149471
    21  H    0.156054
    22  H    0.154723
    23  H    0.150053
    24  H    0.159768
    25  C   -0.296871
    26  C   -0.302201
    27  C   -0.475191
    28  H    0.145419
    29  H    0.153162
    30  H    0.146835
    31  H    0.161085
    32  H    0.157156
    33  H    0.152038
    34  H    0.159085
 Sum of Mulliken charges =  -0.00000

 Dipole moment (field-independent basis, Debye):
    X=             -3.3813    Y=              2.1106    Z=             -3.2734  Tot=              5.1578
 Quadrupole moment (field-independent basis, Debye-Ang):
   XX=            -81.1767   YY=            -93.5996   ZZ=            -97.0239
   XY=             -1.3098   XZ=              7.3026   YZ=              3.2262

 Normal termination of Gaussian 16 at Wed May  5 17:20:15 2021.
