 Gaussian 16, Revision A.03,
 Gaussian 16:  EM64L-G16RevA.03 25-Dec-2016

 -------------
 #p 6-31g* mp2
 -------------

 ------------------------------------------------------
 Input file generated by CHIRIPA (05-May-2021 14:53:11)
 ------------------------------------------------------
 Symbolic Z-matrix:
 Charge =  0 Multiplicity = 1

                         Standard orientation:
 ---------------------------------------------------------------------
 Center     Atomic      Atomic             Coordinates (Angstroms)
 Number     Number       Type             X           Y           Z
 ---------------------------------------------------------------------
      1          6           0       -2.687786    0.052912   -0.535915
      2          6           0       -3.407687   -1.149409    0.075764
      3          6           0       -3.426624   -2.362957   -0.854148
      4          1           0       -3.176229    0.322072   -1.482447
      5          1           0       -1.657199   -0.234219   -0.786594
      6          1           0       -4.436192   -0.859699    0.326487
      7          1           0       -2.917592   -1.415618    1.021045
      8          1           0       -2.406685   -2.679638   -1.095061
      9          1           0       -3.933912   -2.120559   -1.793565
     10          1           0       -3.946107   -3.210931   -0.397051
     11          6           0       -2.660533    1.273907    0.381775
     12          6           0       -1.940633    2.476228   -0.229904
     13          6           0       -1.921696    3.689776    0.700009
     14          1           0       -3.691121    1.561038    0.632454
     15          1           0       -2.172091    1.004747    1.328307
     16          1           0       -2.430727    2.742438   -1.175185
     17          1           0       -0.912128    2.186518   -0.480627
     18          1           0       -1.414407    3.447379    1.639425
     19          1           0       -2.941635    4.006457    0.940921
     20          1           0       -1.402213    4.537750    0.242912
     21          6           0        0.547574   -2.285821    0.990361
     22          6           0        1.341863   -1.524732    1.854288
     23          6           0        2.199681   -0.542686    1.350024
     24          6           0        2.238225   -0.347411   -0.029713
     25          6           0        1.459244   -1.089464   -0.916186
     26          6           0        0.608691   -2.066146   -0.389686
     27          1           0       -0.115978   -3.046614    1.390722
     28          1           0        1.296464   -1.693154    2.926491
     29          1           0        2.825525    0.060851    1.996151
     30          1           0        1.526279   -0.898582   -1.980370
     31          1           0       -0.007018   -2.655715   -1.063001
     32          7           0        3.142512    0.689398   -0.575325
     33          8           0        3.158081    0.842025   -1.794791
     34          8           0        3.818602    1.329789    0.226822
 ---------------------------------------------------------------------

 SCF Done:  E(RHF) =  -669.534948782     A.U. after   15 cycles
 E2 =    -0.2094090252D+01 EUMP2 =    -0.67162903903438D+03

 The electronic state is 1-A.
 Alpha  occ. eigenvalues --  -20.60864 -20.60859 -15.85920 -11.31336 -11.27896
 Alpha  occ. eigenvalues --  -11.27889 -11.27634 -11.26916 -11.26900 -11.22194
 Alpha  occ. eigenvalues --  -11.21927 -11.21648 -11.21626 -11.21542 -11.21036
 Alpha  occ. eigenvalues --   -1.59940  -1.39491  -1.19510  -1.08906  -1.08711
 Alpha  occ. eigenvalues --   -1.04919  -1.03868  -0.96323  -0.95714  -0.87348
 Alpha  occ. eigenvalues --   -0.86310  -0.82549  -0.79946  -0.78502  -0.77587
 Alpha  occ. eigenvalues --   -0.72135  -0.71265  -0.70594  -0.65462  -0.65153
 Alpha  occ. eigenvalues --   -0.64872  -0.62295  -0.61239  -0.59715  -0.57914
 Alpha  occ. eigenvalues --   -0.55651  -0.55393  -0.53254  -0.53052  -0.53018
 Alpha  occ. eigenvalues --   -0.52702  -0.50285  -0.48899  -0.48887  -0.48249
 Alpha  occ. eigenvalues --   -0.46972  -0.46045  -0.45942  -0.44884  -0.44081
 Alpha  occ. eigenvalues --   -0.37463  -0.36442
 Alpha virt. eigenvalues --    0.04915   0.11029   0.16316   0.19832   0.22903
 Alpha virt. eigenvalues --    0.24096   0.25501   0.26368   0.27172   0.28248
 Alpha virt. eigenvalues --    0.28800   0.29801   0.31207   0.31653   0.32076

 Mulliken charges:
               1
     1  C   -0.303976
     2  C   -0.299126
     3  C   -0.477399
     4  H    0.149668
     5  H    0.154647
     6  H    0.154891
     7  H    0.146970
     8  H    0.143289
     9  H    0.160151
    10  H    0.160901
    11  C   -0.297616
    12  C   -0.300253
    13  C   -0.475832
    14  H    0.148995
    15  H    0.148394
    16  H    0.152506
    17  H    0.154077
    18  H    0.154484
    19  H    0.154049
    20  H    0.163900
    21  C   -0.171489
    22  C   -0.218932
    23  C   -0.170955
    24  C    0.159105
    25  C   -0.172296
    26  C   -0.220266
    27  H    0.227435
    28  H    0.224233
    29  H    0.276224
    30  H    0.276961
    31  H    0.229123
    32  N    0.487849
    33  O   -0.459790
    34  O   -0.459923
 Sum of Mulliken charges =  -0.00000

 Dipole moment (field-independent basis, Debye):
    X=             -3.1105    Y=             -3.5839    Z=              1.9258  Tot=              5.1214
 Quadrupole moment (field-independent basis, Debye-Ang):
   XX=           -108.5244   YY=            -93.4113   ZZ=            -90.7803
   XY=             -7.2278   XZ=              6.4291   YZ=             -0.1618

 Normal termination of Gaussian 16 at Wed May  5 15:27:07 2021.
