 Gaussian 16, Revision A.03,
 Gaussian 16:  EM64L-G16RevA.03 25-Dec-2016

 -------------
 #p 6-31g* mp2
 -------------

 ------------------------------------------------------
 Input file generated by CHIRIPA (05-May-2021 14:53:17)
 ------------------------------------------------------
 Symbolic Z-matrix:
 Charge =  0 Multiplicity = 1

                         Standard orientation:
 ---------------------------------------------------------------------
 Center     Atomic      Atomic             Coordinates (Angstroms)
 Number     Number       Type             X           Y           Z
 ---------------------------------------------------------------------
      1          6           0       -3.908989    0.685786   -0.160224
      2          6           0       -3.272443    2.014282    0.249523
      3          6           0       -3.888841    3.212755   -0.472634
      4          1           0       -3.803527    0.555402   -1.245960
      5          1           0       -4.987458    0.724709    0.046620
      6          1           0       -2.195266    1.972359    0.043250
      7          1           0       -3.379264    2.141429    1.334437
      8          1           0       -4.960071    3.282746   -0.257768
      9          1           0       -3.769346    3.112715   -1.556291
     10          1           0       -3.418994    4.152082   -0.164789
     11          6           0       -3.303395   -0.521692    0.553205
     12          6           0       -3.939941   -1.850188    0.143458
     13          6           0       -3.323543   -3.048661    0.865615
     14          1           0       -2.224926   -0.560615    0.346361
     15          1           0       -3.408858   -0.391308    1.638941
     16          1           0       -3.833120   -1.977335   -0.941456
     17          1           0       -5.017118   -1.808264    0.349731
     18          1           0       -3.443038   -2.948621    1.949272
     19          1           0       -2.252313   -3.118652    0.650749
     20          1           0       -3.793390   -3.987988    0.557770
     21          6           0        5.018637    0.803449    0.722600
     22          6           0        4.930810   -0.497057    0.215162
     23          6           0        3.716284   -0.988254   -0.272896
     24          6           0        2.604524   -0.147971   -0.238207
     25          6           0        2.660124    1.152377    0.261086
     26          6           0        3.885011    1.622571    0.743905
     27          1           0        5.966135    1.176864    1.099701
     28          1           0        5.809561   -1.135433    0.197372
     29          1           0        3.620140   -1.990983   -0.671279
     30          1           0        1.766892    1.765187    0.265702
     31          1           0        3.950269    2.632988    1.137407
     32          7           0        1.313274   -0.656861   -0.752119
     33          8           0        0.348375    0.103318   -0.710482
     34          8           0        1.290543   -1.806273   -1.186830
 ---------------------------------------------------------------------

 SCF Done:  E(RHF) =  -669.536699652     A.U. after   15 cycles
 E2 =    -0.2091472238D+01 EUMP2 =    -0.67162817189001D+03

 The electronic state is 1-A.
 Alpha  occ. eigenvalues --  -20.61109 -20.61099 -15.86124 -11.31378 -11.27932
 Alpha  occ. eigenvalues --  -11.27929 -11.27660 -11.26925 -11.26915 -11.20524
 Alpha  occ. eigenvalues --  -11.20340 -11.20273 -11.20166 -11.19910 -11.19847
 Alpha  occ. eigenvalues --   -1.60157  -1.39715  -1.19539  -1.08957  -1.07172
 Alpha  occ. eigenvalues --   -1.04925  -1.02404  -0.95809  -0.94857  -0.86329
 Alpha  occ. eigenvalues --   -0.85884  -0.82646  -0.78473  -0.77709  -0.76969
 Alpha  occ. eigenvalues --   -0.72348  -0.71462  -0.70648  -0.65199  -0.64929
 Alpha  occ. eigenvalues --   -0.63765  -0.62273  -0.59790  -0.58252  -0.56480
 Alpha  occ. eigenvalues --   -0.55434  -0.54131  -0.53260  -0.53016  -0.51614
 Alpha  occ. eigenvalues --   -0.51304  -0.49160  -0.49101  -0.48749  -0.46803
 Alpha  occ. eigenvalues --   -0.45478  -0.45220  -0.44548  -0.44219  -0.42614
 Alpha  occ. eigenvalues --   -0.37514  -0.36523
 Alpha virt. eigenvalues --    0.04792   0.11133   0.16287   0.21182   0.24078
 Alpha virt. eigenvalues --    0.25335   0.26996   0.27480   0.28140   0.28943
 Alpha virt. eigenvalues --    0.29171   0.30926   0.32011   0.32571   0.32740

 Mulliken charges:
               1
     1  C   -0.295143
     2  C   -0.303459
     3  C   -0.474862
     4  H    0.151988
     5  H    0.143110
     6  H    0.163238
     7  H    0.145884
     8  H    0.152400
     9  H    0.155562
    10  H    0.154381
    11  C   -0.310644
    12  C   -0.297613
    13  C   -0.477029
    14  H    0.177435
    15  H    0.140629
    16  H    0.154346
    17  H    0.145420
    18  H    0.149613
    19  H    0.163084
    20  H    0.155788
    21  C   -0.170347
    22  C   -0.218602
    23  C   -0.170494
    24  C    0.157671
    25  C   -0.170416
    26  C   -0.218573
    27  H    0.226354
    28  H    0.224131
    29  H    0.276017
    30  H    0.275936
    31  H    0.224257
    32  N    0.491318
    33  O   -0.463001
    34  O   -0.458379
 Sum of Mulliken charges =  -0.00000

 Dipole moment (field-independent basis, Debye):
    X=              4.9981    Y=              1.7275    Z=              1.6834  Tot=              5.5497
 Quadrupole moment (field-independent basis, Debye-Ang):
   XX=            -71.6426   YY=            -93.2048   ZZ=            -96.0471
   XY=              2.3086   XZ=              3.0770   YZ=              1.1296

 Normal termination of Gaussian 16 at Thu May  6 09:08:02 2021.
