 Gaussian 16, Revision A.03,
 Gaussian 16:  EM64L-G16RevA.03 25-Dec-2016

 -------------
 #p 6-31g* mp2
 -------------

 ------------------------------------------------------
 Input file generated by CHIRIPA (05-May-2021 14:51:13)
 ------------------------------------------------------
 Symbolic Z-matrix:
 Charge =  0 Multiplicity = 1

                         Standard orientation:
 ---------------------------------------------------------------------
 Center     Atomic      Atomic             Coordinates (Angstroms)
 Number     Number       Type             X           Y           Z
 ---------------------------------------------------------------------
      1          6           0       -1.803715   -0.987201    0.193624
      2          6           0       -1.566983   -1.835100    1.443828
      3          6           0       -0.115927   -2.297893    1.578194
      4          1           0       -1.518686   -1.567501   -0.694608
      5          1           0       -1.139847   -0.112046    0.221500
      6          1           0       -2.232086   -2.707672    1.414278
      7          1           0       -1.852789   -1.252783    2.329174
      8          1           0        0.559232   -1.437804    1.633044
      9          1           0        0.177780   -2.900959    0.712949
     10          1           0        0.030909   -2.902426    2.478661
     11          6           0       -3.249631   -0.517014    0.045368
     12          6           0       -3.486363    0.330885   -1.204836
     13          6           0       -4.937418    0.793678   -1.339203
     14          1           0       -3.913499   -1.392169    0.017491
     15          1           0       -3.534660    0.063285    0.933600
     16          1           0       -3.200556   -0.251432   -2.090183
     17          1           0       -2.821260    1.203457   -1.175287
     18          1           0       -5.231126    1.396744   -0.473958
     19          1           0       -5.612577   -0.066411   -1.394052
     20          1           0       -5.084255    1.398211   -2.239669
     21          6           0        2.745085    0.347784   -0.729619
     22          6           0        3.796339   -0.714991   -0.408123
     23          6           0        4.223194   -1.515571   -1.638838
     24          1           0        1.866424   -0.137889   -1.175738
     25          1           0        3.145348    1.030713   -1.491717
     26          1           0        3.394729   -1.394893    0.354149
     27          1           0        4.672522   -0.226753    0.037458
     28          1           0        4.648552   -0.853900   -2.400325
     29          1           0        3.363499   -2.028677   -2.081835
     30          1           0        4.975154   -2.269643   -1.386269
     31          6           0        2.308261    1.156431    0.490628
     32          6           0        1.257007    2.219205    0.169131
     33          6           0        0.830151    3.019786    1.399846
     34          1           0        1.907997    0.473501    1.252725
     35          1           0        3.186922    1.642104    0.936747
     36          1           0        0.380824    1.730968   -0.276449
     37          1           0        1.658617    2.899108   -0.593140
     38          1           0        1.689847    3.532892    1.842843
     39          1           0        0.404793    2.358115    2.161334
     40          1           0        0.078192    3.773859    1.147278
 ---------------------------------------------------------------------

 SCF Done:  E(RHF) =  -470.732953767     A.U. after   11 cycles
 E2 =    -0.1584603959D+01 EUMP2 =    -0.47231755772593D+03

 The electronic state is 1-A.
 Alpha  occ. eigenvalues --  -11.21677 -11.21643 -11.21628 -11.21553 -11.21464
 Alpha  occ. eigenvalues --  -11.21402 -11.21402 -11.21327 -11.21146 -11.21128
 Alpha  occ. eigenvalues --  -11.21097 -11.21037  -1.08511  -1.08413  -1.03590
 Alpha  occ. eigenvalues --   -1.03531  -0.96051  -0.95974  -0.87058  -0.87000
 Alpha  occ. eigenvalues --   -0.79655  -0.79598  -0.78330  -0.78228  -0.65361
 Alpha  occ. eigenvalues --   -0.64870  -0.61062  -0.60856  -0.59402  -0.59351
 Alpha  occ. eigenvalues --   -0.57669  -0.57583  -0.55490  -0.55136  -0.52733
 Alpha  occ. eigenvalues --   -0.52684  -0.52493  -0.52377  -0.50031  -0.49920
 Alpha  occ. eigenvalues --   -0.48000  -0.47923  -0.46721  -0.46690  -0.46080
 Alpha  occ. eigenvalues --   -0.45797  -0.45608  -0.45363  -0.43842  -0.43781
 Alpha virt. eigenvalues --    0.19327   0.22544   0.23953   0.24554   0.25580
 Alpha virt. eigenvalues --    0.25617   0.26954   0.27800   0.28697   0.29904
 Alpha virt. eigenvalues --    0.30809   0.31541   0.31670   0.32081   0.32205

 Mulliken charges:
               1
     1  C   -0.307095
     2  C   -0.299042
     3  C   -0.483548
     4  H    0.149411
     5  H    0.157786
     6  H    0.152486
     7  H    0.151939
     8  H    0.161545
     9  H    0.155393
    10  H    0.160940
    11  C   -0.297836
    12  C   -0.300547
    13  C   -0.475752
    14  H    0.149835
    15  H    0.149893
    16  H    0.152017
    17  H    0.152318
    18  H    0.155357
    19  H    0.155308
    20  H    0.160463
    21  C   -0.298973
    22  C   -0.301161
    23  C   -0.475610
    24  H    0.151382
    25  H    0.149435
    26  H    0.154066
    27  H    0.151573
    28  H    0.154953
    29  H    0.155084
    30  H    0.160182
    31  C   -0.304433
    32  C   -0.305639
    33  C   -0.475905
    34  H    0.154373
    35  H    0.150257
    36  H    0.156311
    37  H    0.152791
    38  H    0.155832
    39  H    0.154424
    40  H    0.160189
 Sum of Mulliken charges =  -0.00000

 Dipole moment (field-independent basis, Debye):
    X=             -0.0154    Y=             -0.0058    Z=              0.0007  Tot=              0.0165
 Quadrupole moment (field-independent basis, Debye-Ang):
   XX=            -85.3297   YY=            -84.2104   ZZ=            -85.1578
   XY=              1.3871   XZ=              0.0883   YZ=             -0.1150

 Normal termination of Gaussian 16 at Wed May  5 21:35:29 2021.
