 Gaussian 16, Revision A.03,
 Gaussian 16:  EM64L-G16RevA.03 25-Dec-2016

 -------------
 #p 6-31g* mp2
 -------------

 ------------------------------------------------------
 Input file generated by CHIRIPA (05-May-2021 14:53:14)
 ------------------------------------------------------
 Symbolic Z-matrix:
 Charge =  0 Multiplicity = 1

                         Standard orientation:
 ---------------------------------------------------------------------
 Center     Atomic      Atomic             Coordinates (Angstroms)
 Number     Number       Type             X           Y           Z
 ---------------------------------------------------------------------
      1          6           0        4.113635   -0.652527   -0.300874
      2          6           0        4.072946   -1.610361    0.890295
      3          6           0        4.788707   -2.932210    0.610662
      4          1           0        3.656672   -1.141420   -1.172145
      5          1           0        5.161030   -0.454194   -0.567373
      6          1           0        3.025954   -1.805739    1.155344
      7          1           0        4.529887   -1.119060    1.758883
      8          1           0        5.841597   -2.756275    0.367618
      9          1           0        4.329119   -3.446855   -0.239350
     10          1           0        4.747444   -3.601857    1.475377
     11          6           0        3.402251    0.673321   -0.036695
     12          6           0        3.442940    1.631155   -1.227864
     13          6           0        2.727179    2.953004   -0.948231
     14          1           0        2.354856    0.474988    0.229804
     15          1           0        3.859214    1.162213    0.834576
     16          1           0        2.985999    1.139854   -2.096452
     17          1           0        4.489932    1.826532   -1.492913
     18          1           0        3.186767    3.467649   -0.098219
     19          1           0        1.674289    2.777069   -0.705187
     20          1           0        2.768442    3.622650   -1.812946
     21          6           0       -1.581493    1.325964    1.790699
     22          6           0       -1.071576    1.073182    0.512965
     23          6           0       -1.813253    0.335148   -0.414274
     24          6           0       -3.066831   -0.137098   -0.028507
     25          6           0       -3.602165    0.098131    1.236947
     26          6           0       -2.842937    0.838490    2.147983
     27          1           0       -0.998523    1.900190    2.504706
     28          1           0       -0.092222    1.450517    0.232737
     29          1           0       -1.442573    0.124783   -1.410146
     30          1           0       -4.581581   -0.291111    1.487254
     31          1           0       -3.241468    1.033266    3.139587
     32          7           0       -3.861303   -0.919652   -1.001556
     33          8           0       -4.963050   -1.324644   -0.637180
     34          8           0       -3.367217   -1.113209   -2.110183
 ---------------------------------------------------------------------

 SCF Done:  E(RHF) =  -669.535382770     A.U. after   15 cycles
 E2 =    -0.2091512996D+01 EUMP2 =    -0.67162689576542D+03

 The electronic state is 1-A.
 Alpha  occ. eigenvalues --  -20.60763 -20.60758 -15.85817 -11.31182 -11.27759
 Alpha  occ. eigenvalues --  -11.27755 -11.27493 -11.26764 -11.26739 -11.22402
 Alpha  occ. eigenvalues --  -11.22209 -11.22071 -11.22065 -11.21938 -11.21403
 Alpha  occ. eigenvalues --   -1.59839  -1.39393  -1.19357  -1.09116  -1.08749
 Alpha  occ. eigenvalues --   -1.04764  -1.04187  -0.96648  -0.95584  -0.87662
 Alpha  occ. eigenvalues --   -0.86162  -0.82421  -0.80258  -0.78914  -0.77467
 Alpha  occ. eigenvalues --   -0.72035  -0.71162  -0.70461  -0.65806  -0.65008
 Alpha  occ. eigenvalues --   -0.64753  -0.62177  -0.61521  -0.60017  -0.58247
 Alpha  occ. eigenvalues --   -0.55966  -0.55255  -0.53316  -0.53130  -0.53060
 Alpha  occ. eigenvalues --   -0.52848  -0.50599  -0.48811  -0.48790  -0.48546
 Alpha  occ. eigenvalues --   -0.47278  -0.46439  -0.46350  -0.44798  -0.44436
 Alpha  occ. eigenvalues --   -0.37333  -0.36362
 Alpha virt. eigenvalues --    0.05068   0.11220   0.16513   0.19068   0.22719
 Alpha virt. eigenvalues --    0.23645   0.25289   0.26566   0.27221   0.28317
 Alpha virt. eigenvalues --    0.28832   0.30135   0.31108   0.31500   0.32193

 Mulliken charges:
               1
     1  C   -0.298549
     2  C   -0.300442
     3  C   -0.476236
     4  H    0.152098
     5  H    0.151812
     6  H    0.152473
     7  H    0.151487
     8  H    0.155836
     9  H    0.157292
    10  H    0.161640
    11  C   -0.301712
    12  C   -0.301216
    13  C   -0.479569
    14  H    0.143613
    15  H    0.150594
    16  H    0.153992
    17  H    0.156595
    18  H    0.157516
    19  H    0.146377
    20  H    0.166485
    21  C   -0.173387
    22  C   -0.229653
    23  C   -0.174139
    24  C    0.158838
    25  C   -0.170900
    26  C   -0.218568
    27  H    0.226602
    28  H    0.239420
    29  H    0.275549
    30  H    0.275629
    31  H    0.223445
    32  N    0.488116
    33  O   -0.460513
    34  O   -0.460524
 Sum of Mulliken charges =  -0.00000

 Dipole moment (field-independent basis, Debye):
    X=              2.9853    Y=              2.7286    Z=              3.4014  Tot=              5.2846
 Quadrupole moment (field-independent basis, Debye-Ang):
   XX=           -108.2368   YY=            -96.8756   ZZ=            -92.7817
   XY=             -7.6233   XZ=            -13.4590   YZ=             -0.8626

 Normal termination of Gaussian 16 at Wed May  5 23:27:38 2021.
