 Gaussian 16, Revision A.03,
 Gaussian 16:  EM64L-G16RevA.03 25-Dec-2016

 -------------
 #p 6-31g* mp2
 -------------

 ------------------------------------------------------
 Input file generated by CHIRIPA (05-May-2021 14:51:08)
 ------------------------------------------------------
 Symbolic Z-matrix:
 Charge =  0 Multiplicity = 1

                         Standard orientation:
 ---------------------------------------------------------------------
 Center     Atomic      Atomic             Coordinates (Angstroms)
 Number     Number       Type             X           Y           Z
 ---------------------------------------------------------------------
      1          6           0       -4.630374   -0.459228    0.103463
      2          6           0       -5.278845    0.401140   -0.981543
      3          6           0       -6.805651    0.403791   -0.900003
      4          1           0       -5.005276   -1.488448    0.019191
      5          1           0       -4.945165   -0.091696    1.089983
      6          1           0       -4.961824    0.032957   -1.965694
      7          1           0       -4.902210    1.428388   -0.894799
      8          1           0       -7.139060    0.791266    0.068141
      9          1           0       -7.199013   -0.612094   -1.008839
     10          1           0       -7.248522    1.024967   -1.684774
     11          6           0       -3.104305   -0.471927    0.035057
     12          6           0       -2.455834   -1.332295    1.120062
     13          6           0       -0.929027   -1.334946    1.038523
     14          1           0       -2.789513   -0.839459   -0.951463
     15          1           0       -2.729403    0.557292    0.119328
     16          1           0       -2.832468   -2.359543    1.033318
     17          1           0       -2.772854   -0.964112    2.104214
     18          1           0       -0.535666   -0.319061    1.147359
     19          1           0       -0.595618   -1.722421    0.070379
     20          1           0       -0.486157   -1.956122    1.823294
     21          6           0        3.530746    1.150442   -0.102398
     22          6           0        2.215223    1.217743    0.674039
     23          6           0        1.553818    2.594186    0.598269
     24          1           0        4.219413    1.911776    0.288823
     25          1           0        3.341925    1.410192   -1.153242
     26          1           0        2.406232    0.956597    1.722816
     27          1           0        1.529677    0.456032    0.281051
     28          1           0        1.334727    2.859627   -0.441030
     29          1           0        2.216262    3.363036    1.008927
     30          1           0        0.614940    2.619926    1.160145
     31          6           0        4.203932   -0.219286   -0.036122
     32          6           0        5.519455   -0.286588   -0.812558
     33          6           0        6.180860   -1.663031   -0.736788
     34          1           0        4.392753   -0.479036    1.014722
     35          1           0        3.515266   -0.980620   -0.427343
     36          1           0        6.205002    0.475124   -0.419571
     37          1           0        5.328447   -0.025442   -1.861336
     38          1           0        5.518418   -2.431881   -1.147447
     39          1           0        6.399953   -1.928471    0.302510
     40          1           0        7.119739   -1.688770   -1.298664
 ---------------------------------------------------------------------

 SCF Done:  E(RHF) =  -470.733046963     A.U. after   11 cycles
 E2 =    -0.1582670607D+01 EUMP2 =    -0.47231571757039D+03

 The electronic state is 1-A.
 Alpha  occ. eigenvalues --  -11.21604 -11.21598 -11.21568 -11.21499 -11.21410
 Alpha  occ. eigenvalues --  -11.21355 -11.21351 -11.21296 -11.21073 -11.21069
 Alpha  occ. eigenvalues --  -11.21045 -11.21045  -1.08436  -1.08382  -1.03549
 Alpha  occ. eigenvalues --   -1.03478  -0.95998  -0.95936  -0.87016  -0.86951
 Alpha  occ. eigenvalues --   -0.79683  -0.79480  -0.78274  -0.78164  -0.65078
 Alpha  occ. eigenvalues --   -0.65007  -0.60997  -0.60845  -0.59366  -0.59313
 Alpha  occ. eigenvalues --   -0.57684  -0.57480  -0.55302  -0.55197  -0.52686
 Alpha  occ. eigenvalues --   -0.52645  -0.52428  -0.52363  -0.49973  -0.49851
 Alpha  occ. eigenvalues --   -0.48084  -0.47740  -0.46699  -0.46491  -0.45882
 Alpha  occ. eigenvalues --   -0.45723  -0.45690  -0.45497  -0.43787  -0.43743
 Alpha virt. eigenvalues --    0.21895   0.23007   0.23500   0.24887   0.26127
 Alpha virt. eigenvalues --    0.26301   0.27006   0.27431   0.27909   0.29037
 Alpha virt. eigenvalues --    0.30672   0.31194   0.31652   0.31761   0.32263

 Mulliken charges:
               1
     1  C   -0.298253
     2  C   -0.299668
     3  C   -0.475709
     4  H    0.149669
     5  H    0.149550
     6  H    0.151852
     7  H    0.152046
     8  H    0.155208
     9  H    0.155164
    10  H    0.160269
    11  C   -0.298349
    12  C   -0.299858
    13  C   -0.480316
    14  H    0.149268
    15  H    0.149639
    16  H    0.151788
    17  H    0.151856
    18  H    0.161928
    19  H    0.153917
    20  H    0.160612
    21  C   -0.297818
    22  C   -0.305655
    23  C   -0.476756
    24  H    0.149169
    25  H    0.149172
    26  H    0.151515
    27  H    0.159945
    28  H    0.155327
    29  H    0.155418
    30  H    0.159162
    31  C   -0.298252
    32  C   -0.299616
    33  C   -0.475655
    34  H    0.149475
    35  H    0.149958
    36  H    0.151832
    37  H    0.151786
    38  H    0.155136
    39  H    0.155144
    40  H    0.160103
 Sum of Mulliken charges =  -0.00000

 Dipole moment (field-independent basis, Debye):
    X=             -0.0098    Y=             -0.0122    Z=              0.0051  Tot=              0.0164
 Quadrupole moment (field-independent basis, Debye-Ang):
   XX=            -86.2552   YY=            -84.9995   ZZ=            -83.6971
   XY=              0.8106   XZ=              0.4116   YZ=              0.7221

 Normal termination of Gaussian 16 at Thu May  6 06:52:15 2021.
