 Gaussian 16, Revision A.03,
 Gaussian 16:  EM64L-G16RevA.03 25-Dec-2016

 -------------
 #p 6-31g* mp2
 -------------

 ------------------------------------------------------
 Input file generated by CHIRIPA (05-May-2021 14:51:09)
 ------------------------------------------------------
 Symbolic Z-matrix:
 Charge =  0 Multiplicity = 1

                         Standard orientation:
 ---------------------------------------------------------------------
 Center     Atomic      Atomic             Coordinates (Angstroms)
 Number     Number       Type             X           Y           Z
 ---------------------------------------------------------------------
      1          6           0       -2.541796    0.387477    0.267639
      2          6           0       -3.260045   -0.463350   -0.780310
      3          6           0       -3.834043   -1.756156   -0.199816
      4          1           0       -1.733612   -0.203785    0.719516
      5          1           0       -3.243668    0.628257    1.078068
      6          1           0       -2.557411   -0.701294   -1.589200
      7          1           0       -4.066491    0.130070   -1.229881
      8          1           0       -4.555637   -1.535243    0.593343
      9          1           0       -3.037983   -2.371330    0.231982
     10          1           0       -4.343117   -2.349021   -0.966115
     11          6           0       -1.962526    1.683187   -0.297436
     12          6           0       -1.244277    2.534014    0.750513
     13          6           0       -0.670279    3.826820    0.170019
     14          1           0       -1.260655    1.442406   -1.107865
     15          1           0       -2.770710    2.274449   -0.749313
     16          1           0       -0.437832    1.940594    1.200084
     17          1           0       -1.946912    2.771958    1.559403
     18          1           0       -1.466340    4.441994   -0.261779
     19          1           0        0.051315    3.605907   -0.623140
     20          1           0       -0.161206    4.419685    0.936318
     21          6           0        2.772953   -0.554592    0.299673
     22          6           0        3.438121    0.318735   -0.764675
     23          6           0        4.477591    1.275214   -0.179489
     24          1           0        2.297353    0.091491    1.050224
     25          1           0        3.546069   -1.130060    0.827425
     26          1           0        2.663844    0.891353   -1.291194
     27          1           0        3.912030   -0.329502   -1.512882
     28          1           0        5.270669    0.717818    0.329371
     29          1           0        4.015391    1.945610    0.552319
     30          1           0        4.940609    1.889911   -0.957707
     31          6           0        1.731369   -1.516071   -0.269876
     32          6           0        1.066202   -2.389400    0.794472
     33          6           0        0.026732   -3.345879    0.209286
     34          1           0        0.958253   -0.940603   -0.797627
     35          1           0        2.206970   -2.162154   -1.020427
     36          1           0        0.592293   -1.741161    1.542679
     37          1           0        1.840479   -2.962016    1.320991
     38          1           0        0.488932   -4.016273   -0.522522
     39          1           0       -0.766346   -2.788482   -0.299573
     40          1           0       -0.436286   -3.960574    0.987505
 ---------------------------------------------------------------------

 SCF Done:  E(RHF) =  -470.733141424     A.U. after   11 cycles
 E2 =    -0.1584420267D+01 EUMP2 =    -0.47231756169131D+03

 The electronic state is 1-A.
 Alpha  occ. eigenvalues --  -11.21682 -11.21673 -11.21658 -11.21638 -11.21483
 Alpha  occ. eigenvalues --  -11.21464 -11.21422 -11.21402 -11.21127 -11.21126
 Alpha  occ. eigenvalues --  -11.21103 -11.21021  -1.08529  -1.08460  -1.03626
 Alpha  occ. eigenvalues --   -1.03544  -0.96074  -0.95988  -0.87096  -0.86997
 Alpha  occ. eigenvalues --   -0.79676  -0.79617  -0.78327  -0.78287  -0.65435
 Alpha  occ. eigenvalues --   -0.64848  -0.61281  -0.60713  -0.59413  -0.59379
 Alpha  occ. eigenvalues --   -0.57662  -0.57621  -0.55573  -0.55088  -0.52748
 Alpha  occ. eigenvalues --   -0.52703  -0.52490  -0.52400  -0.50178  -0.49751
 Alpha  occ. eigenvalues --   -0.48050  -0.47872  -0.46727  -0.46610  -0.46005
 Alpha  occ. eigenvalues --   -0.45887  -0.45665  -0.45630  -0.43850  -0.43827
 Alpha virt. eigenvalues --    0.18182   0.21775   0.23778   0.24850   0.25603
 Alpha virt. eigenvalues --    0.25947   0.26696   0.28639   0.28755   0.29957
 Alpha virt. eigenvalues --    0.30974   0.31429   0.31595   0.31894   0.32003

 Mulliken charges:
               1
     1  C   -0.302800
     2  C   -0.300635
     3  C   -0.481067
     4  H    0.153243
     5  H    0.150044
     6  H    0.151523
     7  H    0.152543
     8  H    0.155035
     9  H    0.161177
    10  H    0.160305
    11  C   -0.298762
    12  C   -0.300531
    13  C   -0.475811
    14  H    0.149474
    15  H    0.150186
    16  H    0.151717
    17  H    0.152372
    18  H    0.155563
    19  H    0.155110
    20  H    0.160459
    21  C   -0.299197
    22  C   -0.299587
    23  C   -0.475834
    24  H    0.150165
    25  H    0.149999
    26  H    0.151395
    27  H    0.152176
    28  H    0.155286
    29  H    0.155572
    30  H    0.160492
    31  C   -0.300286
    32  C   -0.301124
    33  C   -0.482447
    34  H    0.150369
    35  H    0.150185
    36  H    0.152710
    37  H    0.152707
    38  H    0.155824
    39  H    0.161858
    40  H    0.160591
 Sum of Mulliken charges =  -0.00000

 Dipole moment (field-independent basis, Debye):
    X=              0.0115    Y=             -0.0137    Z=              0.0065  Tot=              0.0190
 Quadrupole moment (field-independent basis, Debye-Ang):
   XX=            -84.2354   YY=            -85.4218   ZZ=            -84.8895
   XY=             -2.0292   XZ=             -0.3836   YZ=              0.2591

 Normal termination of Gaussian 16 at Wed May  5 22:59:59 2021.
