 Gaussian 16, Revision A.03,
 Gaussian 16:  EM64L-G16RevA.03 25-Dec-2016

 -------------
 #p 6-31g* mp2
 -------------

 ------------------------------------------------------
 Input file generated by CHIRIPA (05-May-2021 14:57:24)
 ------------------------------------------------------
 Symbolic Z-matrix:
 Charge =  0 Multiplicity = 1

                         Standard orientation:
 ---------------------------------------------------------------------
 Center     Atomic      Atomic             Coordinates (Angstroms)
 Number     Number       Type             X           Y           Z
 ---------------------------------------------------------------------
      1          6           0        2.097808    1.788942    0.271845
      2          6           0        3.283206    1.904024    1.005405
      3          6           0        4.340677    1.015293    0.789862
      4          6           0        4.177886    0.018875   -0.171357
      5          6           0        3.009261   -0.121616   -0.918262
      6          6           0        1.964854    0.778271   -0.685959
      7          1           0        1.281413    2.483663    0.445795
      8          1           0        3.389264    2.687950    1.749890
      9          1           0        5.269327    1.081593    1.343605
     10          1           0        2.933089   -0.913343   -1.653643
     11          1           0        1.045407    0.686507   -1.257134
     12          7           0        5.290468   -0.927890   -0.408415
     13          8           0        5.122099   -1.797064   -1.260955
     14          8           0        6.309813   -0.782864    0.262809
     15          6           0       -6.251133    0.204294   -0.930642
     16          6           0       -5.175682    1.037841   -1.254875
     17          6           0       -3.920873    0.837029   -0.672057
     18          6           0       -3.776358   -0.211573    0.235047
     19          6           0       -4.828536   -1.059082    0.578474
     20          6           0       -6.074439   -0.839666   -0.016614
     21          1           0       -7.222440    0.367516   -1.388155
     22          1           0       -5.309989    1.849378   -1.964391
     23          1           0       -3.071246    1.467311   -0.905078
     24          1           0       -4.663924   -1.859798    1.289230
     25          1           0       -6.907862   -1.488583    0.237075
     26          7           0       -2.452662   -0.434011    0.858545
     27          8           0       -2.351287   -1.364809    1.654771
     28          8           0       -1.541588    0.326652    0.539211
 ---------------------------------------------------------------------

 SCF Done:  E(RHF) =  -868.339165103     A.U. after   16 cycles
 E2 =    -0.2598717107D+01 EUMP2 =    -0.87093788221052D+03

 The electronic state is 1-A.
 Alpha  occ. eigenvalues --  -20.61671 -20.61590 -20.59941 -20.59935 -15.86679
 Alpha  occ. eigenvalues --  -15.84987 -11.31877 -11.30148 -11.28467 -11.28387
 Alpha  occ. eigenvalues --  -11.28110 -11.27409 -11.27365 -11.26723 -11.26656
 Alpha  occ. eigenvalues --  -11.26322 -11.25695 -11.25550  -1.60693  -1.59020
 Alpha  occ. eigenvalues --   -1.40258  -1.38580  -1.20027  -1.18284  -1.09447
 Alpha  occ. eigenvalues --   -1.07698  -1.05408  -1.03663  -0.96314  -0.94578
 Alpha  occ. eigenvalues --   -0.86812  -0.85059  -0.83158  -0.81428  -0.78232
 Alpha  occ. eigenvalues --   -0.76516  -0.72912  -0.72005  -0.71213  -0.71131
 Alpha  occ. eigenvalues --   -0.70338  -0.69369  -0.65686  -0.65403  -0.63933
 Alpha  occ. eigenvalues --   -0.63648  -0.62763  -0.61026  -0.55899  -0.54127
 Alpha  occ. eigenvalues --   -0.53741  -0.53496  -0.51987  -0.51754  -0.49664
 Alpha  occ. eigenvalues --   -0.49618  -0.47978  -0.47949  -0.45697  -0.44033
 Alpha  occ. eigenvalues --   -0.37988  -0.37003  -0.36202  -0.35251
 Alpha virt. eigenvalues --    0.04286   0.06017   0.10654   0.12410   0.15811
 Alpha virt. eigenvalues --    0.17589   0.20745   0.22476   0.26666   0.27422
 Alpha virt. eigenvalues --    0.28516   0.29311   0.30500   0.31751   0.32264

 Mulliken charges:
               1
     1  C   -0.165038
     2  C   -0.219401
     3  C   -0.172323
     4  C    0.157978
     5  C   -0.172977
     6  C   -0.209261
     7  H    0.226994
     8  H    0.219605
     9  H    0.271984
    10  H    0.272054
    11  H    0.226906
    12  N    0.488324
    13  O   -0.462942
    14  O   -0.463399
    15  C   -0.170103
    16  C   -0.218093
    17  C   -0.170933
    18  C    0.158445
    19  C   -0.170299
    20  C   -0.218234
    21  H    0.227942
    22  H    0.224534
    23  H    0.270015
    24  H    0.277499
    25  H    0.226001
    26  N    0.490744
    27  O   -0.453612
    28  O   -0.472409
 Sum of Mulliken charges =  -0.00000

 Dipole moment (field-independent basis, Debye):
    X=             -9.1433    Y=              4.0638    Z=             -1.3120  Tot=             10.0914
 Quadrupole moment (field-independent basis, Debye-Ang):
   XX=           -101.4359   YY=           -101.8789   ZZ=           -103.4190
   XY=             15.3147   XZ=             12.6648   YZ=             -0.5241

 Normal termination of Gaussian 16 at Fri May  7 04:59:04 2021.
