 Gaussian 16, Revision A.03,
 Gaussian 16:  EM64L-G16RevA.03 25-Dec-2016

 -------------
 #p 6-31g* mp2
 -------------

 ------------------------------------------------------
 Input file generated by CHIRIPA (05-May-2021 14:51:08)
 ------------------------------------------------------
 Symbolic Z-matrix:
 Charge =  0 Multiplicity = 1

                         Standard orientation:
 ---------------------------------------------------------------------
 Center     Atomic      Atomic             Coordinates (Angstroms)
 Number     Number       Type             X           Y           Z
 ---------------------------------------------------------------------
      1          6           0       -2.792280   -0.797133    0.296466
      2          6           0       -3.773192   -0.540637   -0.848089
      3          6           0       -4.374089   -1.828764   -1.411513
      4          1           0       -1.986882   -1.454010   -0.059613
      5          1           0       -3.309353   -1.342791    1.097894
      6          1           0       -3.254789    0.005588   -1.646532
      7          1           0       -4.576246    0.115861   -0.489297
      8          1           0       -4.915684   -2.374338   -0.632010
      9          1           0       -3.586719   -2.485237   -1.795820
     10          1           0       -5.072370   -1.622175   -2.228572
     11          6           0       -2.183185    0.480973    0.870206
     12          6           0       -1.202273    0.224477    2.014760
     13          6           0       -0.601376    1.512604    2.578185
     14          1           0       -1.666112    1.026631    0.068777
     15          1           0       -2.988583    1.137850    1.226284
     16          1           0       -0.399219   -0.432021    1.655969
     17          1           0       -1.720676   -0.321748    2.813203
     18          1           0       -1.388746    2.169077    2.962492
     19          1           0       -0.059781    2.058178    1.798682
     20          1           0        0.096905    1.306015    3.395244
     21          6           0        3.151924   -0.218939   -0.595089
     22          6           0        3.197081   -1.398170    0.377208
     23          6           0        4.532213   -2.142473    0.342140
     24          1           0        3.343167   -0.584053   -1.613451
     25          1           0        3.967293    0.477205   -0.354356
     26          1           0        2.381022   -2.091195    0.135586
     27          1           0        3.005518   -1.030234    1.393349
     28          1           0        5.355233   -1.469872    0.604531
     29          1           0        4.727189   -2.536862   -0.660377
     30          1           0        4.542649   -2.981566    1.044759
     31          6           0        1.823541    0.535099   -0.571583
     32          6           0        1.778384    1.714330   -1.543880
     33          6           0        0.443252    2.458633   -1.508812
     34          1           0        1.008172   -0.161046   -0.812316
     35          1           0        1.632298    0.900213    0.446780
     36          1           0        1.969948    1.346394   -2.560021
     37          1           0        2.594442    2.407355   -1.302257
     38          1           0        0.248276    2.853022   -0.506294
     39          1           0       -0.379767    1.786032   -1.771203
     40          1           0        0.432816    3.297726   -2.211431
 ---------------------------------------------------------------------

 SCF Done:  E(RHF) =  -470.731549375     A.U. after   11 cycles
 E2 =    -0.1585962915D+01 EUMP2 =    -0.47231751229015D+03

 The electronic state is 1-A.
 Alpha  occ. eigenvalues --  -11.21694 -11.21663 -11.21582 -11.21467 -11.21466
 Alpha  occ. eigenvalues --  -11.21407 -11.21325 -11.21180 -11.21175 -11.21114
 Alpha  occ. eigenvalues --  -11.21060 -11.21021  -1.08541  -1.08329  -1.03636
 Alpha  occ. eigenvalues --   -1.03459  -0.96077  -0.95926  -0.87092  -0.86948
 Alpha  occ. eigenvalues --   -0.79725  -0.79515  -0.78363  -0.78146  -0.65167
 Alpha  occ. eigenvalues --   -0.65002  -0.61127  -0.60827  -0.59447  -0.59257
 Alpha  occ. eigenvalues --   -0.57704  -0.57546  -0.55366  -0.55242  -0.52752
 Alpha  occ. eigenvalues --   -0.52648  -0.52546  -0.52332  -0.50045  -0.49890
 Alpha  occ. eigenvalues --   -0.48215  -0.47789  -0.46743  -0.46483  -0.46117
 Alpha  occ. eigenvalues --   -0.45713  -0.45576  -0.45231  -0.43859  -0.43712
 Alpha virt. eigenvalues --    0.20230   0.22702   0.23089   0.24048   0.25217
 Alpha virt. eigenvalues --    0.26125   0.26415   0.28154   0.29062   0.29658
 Alpha virt. eigenvalues --    0.30689   0.31244   0.31367   0.32135   0.32491

 Mulliken charges:
               1
     1  C   -0.298498
     2  C   -0.299826
     3  C   -0.475571
     4  H    0.148639
     5  H    0.149383
     6  H    0.150963
     7  H    0.152290
     8  H    0.155343
     9  H    0.154748
    10  H    0.160154
    11  C   -0.307576
    12  C   -0.301703
    13  C   -0.482082
    14  H    0.161150
    15  H    0.148637
    16  H    0.155687
    17  H    0.151286
    18  H    0.155416
    19  H    0.159272
    20  H    0.159237
    21  C   -0.297769
    22  C   -0.300535
    23  C   -0.475709
    24  H    0.149681
    25  H    0.149792
    26  H    0.151674
    27  H    0.152597
    28  H    0.155395
    29  H    0.155308
    30  H    0.160556
    31  C   -0.306679
    32  C   -0.299473
    33  C   -0.483372
    34  H    0.150141
    35  H    0.158206
    36  H    0.152158
    37  H    0.152274
    38  H    0.159732
    39  H    0.157357
    40  H    0.161717
 Sum of Mulliken charges =  -0.00000

 Dipole moment (field-independent basis, Debye):
    X=              0.0615    Y=              0.0328    Z=             -0.0303  Tot=              0.0760
 Quadrupole moment (field-independent basis, Debye-Ang):
   XX=            -85.1667   YY=            -85.4772   ZZ=            -84.1980
   XY=              0.2990   XZ=             -0.5462   YZ=              0.0645

 Normal termination of Gaussian 16 at Wed May  5 22:55:48 2021.
