 Gaussian 16, Revision A.03,
 Gaussian 16:  EM64L-G16RevA.03 25-Dec-2016

 -------------
 #p 6-31g* mp2
 -------------

 ------------------------------------------------------
 Input file generated by CHIRIPA (05-May-2021 14:57:23)
 ------------------------------------------------------
 Symbolic Z-matrix:
 Charge =  0 Multiplicity = 1

                         Standard orientation:
 ---------------------------------------------------------------------
 Center     Atomic      Atomic             Coordinates (Angstroms)
 Number     Number       Type             X           Y           Z
 ---------------------------------------------------------------------
      1          6           0        1.314225   -1.504503    0.955085
      2          6           0        1.909616   -0.553935    1.790819
      3          6           0        3.065763    0.120967    1.387857
      4          6           0        3.602212   -0.180774    0.137071
      5          6           0        3.032290   -1.122612   -0.718159
      6          6           0        1.876471   -1.785313   -0.294534
      7          1           0        0.416229   -2.024044    1.276141
      8          1           0        1.475163   -0.333823    2.761821
      9          1           0        3.547238    0.861485    2.014941
     10          1           0        3.488502   -1.320626   -1.680489
     11          1           0        1.416235   -2.523052   -0.945663
     12          7           0        4.826000    0.527256   -0.300464
     13          8           0        5.279085    0.243351   -1.407147
     14          8           0        5.308946    1.352709    0.471564
     15          6           0       -1.067625    1.142777   -0.666336
     16          6           0       -2.054065    2.022924   -0.209394
     17          6           0       -3.350048    1.565595    0.047179
     18          6           0       -3.626053    0.215744   -0.164987
     19          6           0       -2.664913   -0.685835   -0.619582
     20          6           0       -1.375654   -0.206416   -0.869613
     21          1           0       -0.063486    1.506620   -0.863107
     22          1           0       -1.817704    3.071243   -0.050635
     23          1           0       -4.132844    2.225211    0.401515
     24          1           0       -2.930638   -1.725377   -0.768451
     25          1           0       -0.611576   -0.892232   -1.224418
     26          7           0       -4.994492   -0.280102    0.103173
     27          8           0       -5.212234   -1.473944   -0.091673
     28          8           0       -5.823421    0.534485    0.503124
 ---------------------------------------------------------------------

 SCF Done:  E(RHF) =  -868.336241644     A.U. after   16 cycles
 E2 =    -0.2602487550D+01 EUMP2 =    -0.87093872919396D+03

 The electronic state is 1-A.
 Alpha  occ. eigenvalues --  -20.61571 -20.61565 -20.61233 -20.61224 -15.86634
 Alpha  occ. eigenvalues --  -15.86286 -11.32138 -11.31689 -11.28792 -11.28729
 Alpha  occ. eigenvalues --  -11.28474 -11.28284 -11.28229 -11.27922 -11.27793
 Alpha  occ. eigenvalues --  -11.27670 -11.27224 -11.27214  -1.60648  -1.60308
 Alpha  occ. eigenvalues --   -1.40196  -1.39860  -1.20363  -1.19856  -1.09724
 Alpha  occ. eigenvalues --   -1.09214  -1.05780  -1.05273  -0.96511  -0.96054
 Alpha  occ. eigenvalues --   -0.87190  -0.86630  -0.83331  -0.82900  -0.78372
 Alpha  occ. eigenvalues --   -0.77958  -0.72842  -0.72500  -0.71986  -0.71636
 Alpha  occ. eigenvalues --   -0.71406  -0.70913  -0.66027  -0.65838  -0.65494
 Alpha  occ. eigenvalues --   -0.65197  -0.63116  -0.62604  -0.56221  -0.55695
 Alpha  occ. eigenvalues --   -0.54304  -0.53848  -0.53524  -0.53207  -0.49613
 Alpha  occ. eigenvalues --   -0.49590  -0.49263  -0.49254  -0.45571  -0.45259
 Alpha  occ. eigenvalues --   -0.38648  -0.37607  -0.37379  -0.36735
 Alpha virt. eigenvalues --    0.04145   0.04570   0.10041   0.10791   0.15536
 Alpha virt. eigenvalues --    0.16156   0.19785   0.21628   0.25423   0.27137
 Alpha virt. eigenvalues --    0.27899   0.28225   0.29599   0.30999   0.31813

 Mulliken charges:
               1
     1  C   -0.165189
     2  C   -0.219959
     3  C   -0.171814
     4  C    0.155753
     5  C   -0.172403
     6  C   -0.233026
     7  H    0.231309
     8  H    0.228560
     9  H    0.278523
    10  H    0.278385
    11  H    0.223142
    12  N    0.487958
    13  O   -0.458570
    14  O   -0.458290
    15  C   -0.172295
    16  C   -0.219719
    17  C   -0.171185
    18  C    0.159044
    19  C   -0.177379
    20  C   -0.220191
    21  H    0.230794
    22  H    0.225872
    23  H    0.276925
    24  H    0.273046
    25  H    0.222673
    26  N    0.487972
    27  O   -0.461158
    28  O   -0.458777
 Sum of Mulliken charges =  -0.00000

 Dipole moment (field-independent basis, Debye):
    X=              0.6759    Y=             -0.6246    Z=              0.7409  Tot=              1.1814
 Quadrupole moment (field-independent basis, Debye-Ang):
   XX=           -171.5178   YY=            -98.1371   ZZ=           -100.7331
   XY=            -15.1927   XZ=              7.3680   YZ=              2.7097

 Normal termination of Gaussian 16 at Wed May  5 19:23:30 2021.
