 Gaussian 16, Revision A.03,
 Gaussian 16:  EM64L-G16RevA.03 25-Dec-2016

 -------------
 #p 6-31g* mp2
 -------------

 ------------------------------------------------------
 Input file generated by CHIRIPA (05-May-2021 14:53:14)
 ------------------------------------------------------
 Symbolic Z-matrix:
 Charge =  0 Multiplicity = 1

                         Standard orientation:
 ---------------------------------------------------------------------
 Center     Atomic      Atomic             Coordinates (Angstroms)
 Number     Number       Type             X           Y           Z
 ---------------------------------------------------------------------
      1          6           0        3.849828    0.263861   -0.030821
      2          6           0        3.279902    1.609585    0.418840
      3          6           0        1.757510    1.589602    0.559258
      4          1           0        3.395305   -0.017328   -0.990658
      5          1           0        3.557491   -0.510247    0.692152
      6          1           0        3.574392    2.381172   -0.304034
      7          1           0        3.735977    1.887695    1.377624
      8          1           0        1.448335    0.840507    1.295375
      9          1           0        1.285831    1.336788   -0.395837
     10          1           0        1.371279    2.561600    0.881599
     11          6           0        5.370589    0.267997   -0.175733
     12          6           0        5.940515   -1.077727   -0.625394
     13          6           0        7.462907   -1.057744   -0.765812
     14          1           0        5.662926    1.042105   -0.898706
     15          1           0        5.825112    0.549186    0.784104
     16          1           0        5.484440   -1.355837   -1.584178
     17          1           0        5.646025   -1.849314    0.097479
     18          1           0        7.934586   -0.804930    0.189282
     19          1           0        7.772082   -0.308649   -1.501930
     20          1           0        7.849138   -2.029742   -1.088154
     21          6           0       -1.484362   -0.635570    1.384401
     22          6           0       -1.763634    0.648280    0.904551
     23          6           0       -2.933780    0.896872    0.181011
     24          6           0       -3.806425   -0.166398   -0.045353
     25          6           0       -3.556222   -1.456538    0.419650
     26          6           0       -2.379969   -1.682037    1.140848
     27          1           0       -0.572994   -0.819712    1.945556
     28          1           0       -1.069914    1.462890    1.092190
     29          1           0       -3.174726    1.881072   -0.202018
     30          1           0       -4.266926   -2.248457    0.216721
     31          1           0       -2.165677   -2.680110    1.512296
     32          7           0       -5.048438    0.084551   -0.810094
     33          8           0       -5.801054   -0.869178   -0.996114
     34          8           0       -5.245792    1.230223   -1.208996
 ---------------------------------------------------------------------

 SCF Done:  E(RHF) =  -669.535058480     A.U. after   15 cycles
 E2 =    -0.2091690161D+01 EUMP2 =    -0.67162674864055D+03

 The electronic state is 1-A.
 Alpha  occ. eigenvalues --  -20.60691 -20.60686 -15.85742 -11.31085 -11.27650
 Alpha  occ. eigenvalues --  -11.27622 -11.27372 -11.26672 -11.26568 -11.22504
 Alpha  occ. eigenvalues --  -11.22335 -11.22149 -11.22110 -11.21968 -11.21489
 Alpha  occ. eigenvalues --   -1.59767  -1.39321  -1.19248  -1.09146  -1.08648
 Alpha  occ. eigenvalues --   -1.04651  -1.04281  -0.96774  -0.95489  -0.87823
 Alpha  occ. eigenvalues --   -0.86029  -0.82321  -0.80377  -0.78920  -0.77364
 Alpha  occ. eigenvalues --   -0.71961  -0.71090  -0.70373  -0.65771  -0.64899
 Alpha  occ. eigenvalues --   -0.64655  -0.62013  -0.61672  -0.60153  -0.58342
 Alpha  occ. eigenvalues --   -0.56067  -0.55149  -0.53582  -0.53257  -0.52921
 Alpha  occ. eigenvalues --   -0.52592  -0.50703  -0.48738  -0.48719  -0.48638
 Alpha  occ. eigenvalues --   -0.47370  -0.46469  -0.46367  -0.44732  -0.44523
 Alpha  occ. eigenvalues --   -0.37220  -0.36239
 Alpha virt. eigenvalues --    0.05150   0.11356   0.16629   0.20269   0.22326
 Alpha virt. eigenvalues --    0.23772   0.25326   0.26031   0.26504   0.27464
 Alpha virt. eigenvalues --    0.28827   0.29522   0.30947   0.31600   0.32298

 Mulliken charges:
               1
     1  C   -0.298723
     2  C   -0.300562
     3  C   -0.482783
     4  H    0.152066
     5  H    0.146656
     6  H    0.156331
     7  H    0.153908
     8  H    0.146689
     9  H    0.162774
    10  H    0.159134
    11  C   -0.298965
    12  C   -0.300062
    13  C   -0.476091
    14  H    0.151452
    15  H    0.150347
    16  H    0.153107
    17  H    0.151330
    18  H    0.155578
    19  H    0.156297
    20  H    0.161628
    21  C   -0.173654
    22  C   -0.220756
    23  C   -0.173199
    24  C    0.158690
    25  C   -0.171491
    26  C   -0.218565
    27  H    0.225272
    28  H    0.233924
    29  H    0.275211
    30  H    0.275085
    31  H    0.222829
    32  N    0.488040
    33  O   -0.460792
    34  O   -0.460704
 Sum of Mulliken charges =  -0.00000

 Dipole moment (field-independent basis, Debye):
    X=              4.6288    Y=             -0.8451    Z=              2.6235  Tot=              5.3873
 Quadrupole moment (field-independent basis, Debye-Ang):
   XX=           -129.0388   YY=            -89.7605   ZZ=            -94.8909
   XY=              4.2684   XZ=            -10.5850   YZ=             -1.3246

 Normal termination of Gaussian 16 at Thu May  6 02:39:21 2021.
