 Gaussian 16, Revision A.03,
 Gaussian 16:  EM64L-G16RevA.03 25-Dec-2016

 -------------
 #p 6-31g* mp2
 -------------

 ------------------------------------------------------
 Input file generated by CHIRIPA (05-May-2021 14:51:09)
 ------------------------------------------------------
 Symbolic Z-matrix:
 Charge =  0 Multiplicity = 1

                         Standard orientation:
 ---------------------------------------------------------------------
 Center     Atomic      Atomic             Coordinates (Angstroms)
 Number     Number       Type             X           Y           Z
 ---------------------------------------------------------------------
      1          6           0       -3.028224   -0.789430   -0.385042
      2          6           0       -1.567769   -0.391825   -0.168328
      3          6           0       -0.585551   -1.415260   -0.738962
      4          1           0       -3.207376   -1.769455    0.077992
      5          1           0       -3.211193   -0.914103   -1.461320
      6          1           0       -1.387963   -0.266591    0.907127
      7          1           0       -1.392122    0.587455   -0.631765
      8          1           0       -0.736141   -1.534349   -1.816803
      9          1           0       -0.731959   -2.393247   -0.269167
     10          1           0        0.452648   -1.111180   -0.573010
     11          6           0       -4.022170    0.223777    0.179947
     12          6           0       -5.482625   -0.173828   -0.036767
     13          6           0       -6.464843    0.849606    0.533867
     14          1           0       -3.839201    0.348450    1.256225
     15          1           0       -3.843018    1.203802   -0.283086
     16          1           0       -5.658272   -1.153108    0.426671
     17          1           0       -5.662431   -0.299063   -1.112221
     18          1           0       -6.318435    1.827593    0.064073
     19          1           0       -6.314253    0.968695    1.611708
     20          1           0       -7.503042    0.545527    0.367916
     21          6           0        3.611981   -0.405707   -0.216548
     22          6           0        3.754156   -1.534101    0.805459
     23          6           0        3.927004   -2.905446    0.151753
     24          1           0        2.751379   -0.614684   -0.866653
     25          1           0        4.498548   -0.394411   -0.865599
     26          1           0        2.868218   -1.542384    1.453271
     27          1           0        4.614405   -1.322317    1.453329
     28          1           0        4.821002   -2.921129   -0.480009
     29          1           0        3.064894   -3.142446   -0.480067
     30          1           0        4.026790   -3.697420    0.900537
     31          6           0        3.438413    0.971360    0.421643
     32          6           0        3.296238    2.099754   -0.600364
     33          6           0        3.123389    3.471099    0.053342
     34          1           0        2.551846    0.960065    1.070693
     35          1           0        4.299015    1.180337    1.071748
     36          1           0        2.435989    1.887971   -1.248235
     37          1           0        4.182176    2.108038   -1.248177
     38          1           0        3.985501    3.708100    0.685161
     39          1           0        2.229392    3.486782    0.685103
     40          1           0        3.023604    4.263074   -0.695443
 ---------------------------------------------------------------------

 SCF Done:  E(RHF) =  -470.733342644     A.U. after   11 cycles
 E2 =    -0.1582860941D+01 EUMP2 =    -0.47231620358495D+03

 The electronic state is 1-A.
 Alpha  occ. eigenvalues --  -11.21677 -11.21629 -11.21599 -11.21586 -11.21449
 Alpha  occ. eigenvalues --  -11.21397 -11.21388 -11.21336 -11.21141 -11.21092
 Alpha  occ. eigenvalues --  -11.21066 -11.21034  -1.08480  -1.08424  -1.03583
 Alpha  occ. eigenvalues --   -1.03514  -0.96036  -0.95961  -0.87058  -0.86973
 Alpha  occ. eigenvalues --   -0.79649  -0.79574  -0.78290  -0.78238  -0.65105
 Alpha  occ. eigenvalues --   -0.65100  -0.60985  -0.60922  -0.59405  -0.59319
 Alpha  occ. eigenvalues --   -0.57659  -0.57561  -0.55322  -0.55247  -0.52751
 Alpha  occ. eigenvalues --   -0.52658  -0.52475  -0.52356  -0.49969  -0.49901
 Alpha  occ. eigenvalues --   -0.47983  -0.47879  -0.46677  -0.46609  -0.45834
 Alpha  occ. eigenvalues --   -0.45775  -0.45754  -0.45706  -0.43796  -0.43764
 Alpha virt. eigenvalues --    0.20205   0.23044   0.24053   0.24851   0.26227
 Alpha virt. eigenvalues --    0.26566   0.27207   0.27495   0.27895   0.28999
 Alpha virt. eigenvalues --    0.30780   0.31403   0.31749   0.31888   0.32131

 Mulliken charges:
               1
     1  C   -0.298549
     2  C   -0.299064
     3  C   -0.484563
     4  H    0.149864
     5  H    0.149722
     6  H    0.151726
     7  H    0.151844
     8  H    0.155554
     9  H    0.155779
    10  H    0.167765
    11  C   -0.298303
    12  C   -0.299688
    13  C   -0.475739
    14  H    0.149561
    15  H    0.149728
    16  H    0.152015
    17  H    0.152005
    18  H    0.155239
    19  H    0.155225
    20  H    0.160362
    21  C   -0.304102
    22  C   -0.300039
    23  C   -0.476423
    24  H    0.154015
    25  H    0.150223
    26  H    0.152250
    27  H    0.152001
    28  H    0.155013
    29  H    0.156550
    30  H    0.160069
    31  C   -0.298835
    32  C   -0.299618
    33  C   -0.475782
    34  H    0.149773
    35  H    0.149854
    36  H    0.151843
    37  H    0.151984
    38  H    0.155163
    39  H    0.155407
    40  H    0.160170
 Sum of Mulliken charges =  -0.00000

 Dipole moment (field-independent basis, Debye):
    X=             -0.0144    Y=             -0.0039    Z=             -0.0031  Tot=              0.0152
 Quadrupole moment (field-independent basis, Debye-Ang):
   XX=            -84.4275   YY=            -86.0595   ZZ=            -84.2116
   XY=              0.8119   XZ=              0.3393   YZ=             -1.0243

 Normal termination of Gaussian 16 at Thu May  6 03:44:27 2021.
