 Gaussian 16, Revision A.03,
 Gaussian 16:  EM64L-G16RevA.03 25-Dec-2016

 -------------
 #p 6-31g* mp2
 -------------

 ------------------------------------------------------
 Input file generated by CHIRIPA (05-May-2021 14:57:25)
 ------------------------------------------------------
 Symbolic Z-matrix:
 Charge =  0 Multiplicity = 1

                         Standard orientation:
 ---------------------------------------------------------------------
 Center     Atomic      Atomic             Coordinates (Angstroms)
 Number     Number       Type             X           Y           Z
 ---------------------------------------------------------------------
      1          6           0       -2.296362    2.094286    1.117560
      2          6           0       -2.586980    0.976294    1.906329
      3          6           0       -3.079823   -0.195054    1.323579
      4          6           0       -3.270961   -0.213636   -0.057149
      5          6           0       -2.990825    0.883792   -0.869839
      6          6           0       -2.498855    2.044554   -0.265568
      7          1           0       -1.913849    3.000105    1.578614
      8          1           0       -2.430703    1.012052    2.980733
      9          1           0       -3.313117   -1.075086    1.910552
     10          1           0       -3.156952    0.817967   -1.938244
     11          1           0       -2.274028    2.911279   -0.880617
     12          7           0       -3.792250   -1.448087   -0.685472
     13          8           0       -3.951911   -1.438978   -1.904104
     14          8           0       -4.031304   -2.401383    0.052577
     15          6           0        1.954268    2.164053   -0.506794
     16          6           0        3.260583    1.990296   -0.975699
     17          6           0        3.952099    0.801069   -0.726518
     18          6           0        3.304033   -0.198044   -0.001898
     19          6           0        2.003280   -0.054950    0.478576
     20          6           0        1.330886    1.142676    0.217570
     21          1           0        1.424508    3.091135   -0.704957
     22          1           0        3.747205    2.781798   -1.538520
     23          1           0        4.964075    0.640059   -1.077799
     24          1           0        1.544479   -0.861999    1.036781
     25          1           0        0.316454    1.274841    0.582957
     26          7           0        4.025990   -1.461472    0.268160
     27          8           0        3.432848   -2.326461    0.908951
     28          8           0        5.171329   -1.562833   -0.166076
 ---------------------------------------------------------------------

 SCF Done:  E(RHF) =  -868.336626496     A.U. after   16 cycles
 E2 =    -0.2601812571D+01 EUMP2 =    -0.87093843906696D+03

 The electronic state is 1-A.
 Alpha  occ. eigenvalues --  -20.61416 -20.61409 -20.60854 -20.60848 -15.86478
 Alpha  occ. eigenvalues --  -15.85905 -11.32144 -11.31340 -11.28731 -11.28713
 Alpha  occ. eigenvalues --  -11.28561 -11.27902 -11.27870 -11.27859 -11.27814
 Alpha  occ. eigenvalues --  -11.27717 -11.26980 -11.26803  -1.60484  -1.59926
 Alpha  occ. eigenvalues --   -1.40028  -1.39478  -1.20372  -1.19510  -1.09731
 Alpha  occ. eigenvalues --   -1.08911  -1.05785  -1.04910  -0.96491  -0.95738
 Alpha  occ. eigenvalues --   -0.87170  -0.86321  -0.83294  -0.82556  -0.78275
 Alpha  occ. eigenvalues --   -0.77586  -0.72689  -0.72125  -0.71812  -0.71457
 Alpha  occ. eigenvalues --   -0.71249  -0.70676  -0.65998  -0.65766  -0.65164
 Alpha  occ. eigenvalues --   -0.64956  -0.63089  -0.62290  -0.56299  -0.55516
 Alpha  occ. eigenvalues --   -0.54277  -0.53851  -0.53253  -0.52791  -0.49472
 Alpha  occ. eigenvalues --   -0.49426  -0.48886  -0.48876  -0.45366  -0.44868
 Alpha  occ. eigenvalues --   -0.38380  -0.37597  -0.37358  -0.36491
 Alpha virt. eigenvalues --    0.04209   0.04934   0.10151   0.11154   0.15587
 Alpha virt. eigenvalues --    0.16409   0.19984   0.21690   0.26012   0.27009
 Alpha virt. eigenvalues --    0.27658   0.28539   0.29978   0.31064   0.32072

 Mulliken charges:
               1
     1  C   -0.188974
     2  C   -0.219298
     3  C   -0.171242
     4  C    0.160324
     5  C   -0.168360
     6  C   -0.219395
     7  H    0.227878
     8  H    0.228649
     9  H    0.280700
    10  H    0.279534
    11  H    0.223930
    12  N    0.488022
    13  O   -0.457260
    14  O   -0.456288
    15  C   -0.175554
    16  C   -0.217641
    17  C   -0.171640
    18  C    0.159949
    19  C   -0.174502
    20  C   -0.225960
    21  H    0.217744
    22  H    0.222818
    23  H    0.276088
    24  H    0.276225
    25  H    0.235565
    26  N    0.487968
    27  O   -0.459236
    28  O   -0.460044
 Sum of Mulliken charges =  -0.00000

 Dipole moment (field-independent basis, Debye):
    X=             -1.0205    Y=              8.5759    Z=              1.2514  Tot=              8.7266
 Quadrupole moment (field-independent basis, Debye-Ang):
   XX=           -130.5556   YY=           -108.1726   ZZ=           -100.3361
   XY=              2.3812   XZ=            -13.0253   YZ=             -3.8465

 Normal termination of Gaussian 16 at Wed May  5 19:30:21 2021.
