 Gaussian 16, Revision A.03,
 Gaussian 16:  EM64L-G16RevA.03 25-Dec-2016

 -------------
 #p 6-31g* mp2
 -------------

 ------------------------------------------------------
 Input file generated by CHIRIPA (05-May-2021 14:55:25)
 ------------------------------------------------------
 Symbolic Z-matrix:
 Charge =  0 Multiplicity = 1

                         Standard orientation:
 ---------------------------------------------------------------------
 Center     Atomic      Atomic             Coordinates (Angstroms)
 Number     Number       Type             X           Y           Z
 ---------------------------------------------------------------------
      1          6           0        0.967994    0.397784    0.669138
      2          6           0        1.595138   -0.722524    1.224226
      3          6           0        2.922371   -1.024243    0.904903
      4          6           0        3.595665   -0.180293    0.023024
      5          6           0        2.998333    0.943191   -0.546423
      6          6           0        1.670355    1.225606   -0.212860
      7          1           0       -0.063321    0.624669    0.922727
      8          1           0        1.052125   -1.367194    1.909487
      9          1           0        3.432156   -1.885113    1.320164
     10          1           0        3.565446    1.567147   -1.226481
     11          1           0        1.185851    2.096326   -0.645466
     12          7           0        5.001141   -0.489491   -0.322567
     13          8           0        5.572523    0.269804   -1.102074
     14          8           0        5.504759   -1.485282    0.192610
     15          6           0       -4.228122    0.841747    0.244217
     16          6           0       -3.065050    1.671802   -0.300078
     17          6           0       -2.922213    3.021854    0.403308
     18          1           0       -5.160138    1.413324    0.136554
     19          1           0       -4.082464    0.681392    1.321466
     20          1           0       -3.212149    1.829370   -1.376251
     21          1           0       -2.135721    1.098105   -0.191281
     22          1           0       -2.750878    2.881420    1.475467
     23          1           0       -3.833422    3.616839    0.283762
     24          1           0       -2.084799    3.598771   -0.001374
     25          6           0       -4.383783   -0.510654   -0.448969
     26          6           0       -5.546855   -1.340710    0.095326
     27          6           0       -5.689693   -2.690762   -0.608060
     28          1           0       -4.529441   -0.350301   -1.526218
     29          1           0       -3.451768   -1.082232   -0.341305
     30          1           0       -6.476184   -0.767013   -0.013471
     31          1           0       -5.399755   -1.498277    1.171499
     32          1           0       -4.778484   -3.285747   -0.488515
     33          1           0       -5.861027   -2.550328   -1.680218
     34          1           0       -6.527105   -3.267679   -0.203378
 ---------------------------------------------------------------------

 SCF Done:  E(RHF) =  -669.535475614     A.U. after   15 cycles
 E2 =    -0.2091140859D+01 EUMP2 =    -0.67162661647400D+03

 The electronic state is 1-A.
 Alpha  occ. eigenvalues --  -20.60750 -20.60745 -15.85804 -11.31172 -11.27741
 Alpha  occ. eigenvalues --  -11.27735 -11.27461 -11.26759 -11.26745 -11.22772
 Alpha  occ. eigenvalues --  -11.22323 -11.22257 -11.22184 -11.22157 -11.21612
 Alpha  occ. eigenvalues --   -1.59826  -1.39379  -1.19343  -1.09322  -1.08737
 Alpha  occ. eigenvalues --   -1.04747  -1.04409  -0.96834  -0.95573  -0.87846
 Alpha  occ. eigenvalues --   -0.86143  -0.82409  -0.80488  -0.79099  -0.77451
 Alpha  occ. eigenvalues --   -0.72022  -0.71149  -0.70478  -0.65964  -0.64995
 Alpha  occ. eigenvalues --   -0.64750  -0.62097  -0.61816  -0.60227  -0.58440
 Alpha  occ. eigenvalues --   -0.56130  -0.55243  -0.53533  -0.53246  -0.53074
 Alpha  occ. eigenvalues --   -0.52837  -0.50773  -0.48808  -0.48777  -0.48755
 Alpha  occ. eigenvalues --   -0.47529  -0.46637  -0.46551  -0.44784  -0.44650
 Alpha  occ. eigenvalues --   -0.37317  -0.36351
 Alpha virt. eigenvalues --    0.05067   0.11295   0.16497   0.18991   0.22536
 Alpha virt. eigenvalues --    0.23776   0.25382   0.26151   0.26541   0.27744
 Alpha virt. eigenvalues --    0.29200   0.29538   0.30893   0.31386   0.32223

 Mulliken charges:
               1
     1  C   -0.175351
     2  C   -0.219379
     3  C   -0.170807
     4  C    0.158505
     5  C   -0.170969
     6  C   -0.220208
     7  H    0.232859
     8  H    0.223322
     9  H    0.275482
    10  H    0.275602
    11  H    0.223809
    12  N    0.488045
    13  O   -0.460435
    14  O   -0.460472
    15  C   -0.298603
    16  C   -0.305259
    17  C   -0.476949
    18  H    0.153757
    19  H    0.148361
    20  H    0.157296
    21  H    0.143309
    22  H    0.154804
    23  H    0.161545
    24  H    0.157661
    25  C   -0.298399
    26  C   -0.300246
    27  C   -0.476088
    28  H    0.152128
    29  H    0.147214
    30  H    0.153712
    31  H    0.151637
    32  H    0.155176
    33  H    0.156678
    34  H    0.162261
 Sum of Mulliken charges =  -0.00000

 Dipole moment (field-independent basis, Debye):
    X=             -5.1841    Y=              1.1024    Z=              1.1766  Tot=              5.4290
 Quadrupole moment (field-independent basis, Debye-Ang):
   XX=           -129.6703   YY=            -92.7894   ZZ=            -93.1759
   XY=              4.3630   XZ=              4.6616   YZ=             -3.7397

 Normal termination of Gaussian 16 at Thu May  6 03:13:47 2021.
