 Gaussian 16, Revision A.03,
 Gaussian 16:  EM64L-G16RevA.03 25-Dec-2016

 -------------
 #p 6-31g* mp2
 -------------

 ------------------------------------------------------
 Input file generated by CHIRIPA (05-May-2021 14:51:08)
 ------------------------------------------------------
 Symbolic Z-matrix:
 Charge =  0 Multiplicity = 1

                         Standard orientation:
 ---------------------------------------------------------------------
 Center     Atomic      Atomic             Coordinates (Angstroms)
 Number     Number       Type             X           Y           Z
 ---------------------------------------------------------------------
      1          6           0        1.697212   -1.673871   -0.035988
      2          6           0        0.741669   -2.038391    1.100695
      3          6           0       -0.058892   -3.309397    0.815323
      4          1           0        1.122049   -1.546202   -0.963260
      5          1           0        2.386873   -2.511666   -0.208793
      6          1           0        0.054909   -1.199611    1.272230
      7          1           0        1.319151   -2.165019    2.025410
      8          1           0        0.611819   -4.161582    0.665229
      9          1           0       -0.659606   -3.190689   -0.092230
     10          1           0       -0.735539   -3.551491    1.640792
     11          6           0        2.504586   -0.405529    0.234535
     12          6           0        3.460128   -0.041009   -0.902148
     13          6           0        4.260690    1.229997   -0.616775
     14          1           0        1.814924    0.432266    0.407341
     15          1           0        3.079749   -0.533198    1.161807
     16          1           0        2.882647    0.085619   -1.826862
     17          1           0        4.146888   -0.879789   -1.073683
     18          1           0        4.861404    1.111289    0.290777
     19          1           0        3.589979    2.082182   -0.466681
     20          1           0        4.937337    1.472091   -1.442245
     21          6           0       -2.533420    0.436709    0.081721
     22          6           0       -2.835815   -0.472219   -1.110081
     23          6           0       -3.702044   -1.674121   -0.732093
     24          1           0       -2.029662   -0.148957    0.862853
     25          1           0       -3.479918    0.787718    0.515692
     26          1           0       -1.889006   -0.820300   -1.542526
     27          1           0       -3.338740    0.115725   -1.888544
     28          1           0       -4.661198   -1.343509   -0.320610
     29          1           0       -3.203228   -2.284852    0.027374
     30          1           0       -3.906002   -2.310446   -1.598898
     31          6           0       -1.668377    1.642691   -0.280269
     32          6           0       -1.365982    2.551619    0.911533
     33          6           0       -0.499754    3.753521    0.533546
     34          1           0       -0.721879    1.291682   -0.714239
     35          1           0       -2.172135    2.228358   -1.061400
     36          1           0       -0.863056    1.963676    1.689997
     37          1           0       -2.312791    2.899701    1.343978
     38          1           0       -0.998570    4.364252   -0.225922
     39          1           0        0.459401    3.422910    0.122063
     40          1           0       -0.295795    4.389847    1.400350
 ---------------------------------------------------------------------

 SCF Done:  E(RHF) =  -470.733061627     A.U. after   11 cycles
 E2 =    -0.1585267978D+01 EUMP2 =    -0.47231832960479D+03

 The electronic state is 1-A.
 Alpha  occ. eigenvalues --  -11.21664 -11.21661 -11.21658 -11.21649 -11.21484
 Alpha  occ. eigenvalues --  -11.21457 -11.21425 -11.21388 -11.21136 -11.21132
 Alpha  occ. eigenvalues --  -11.21117 -11.21059  -1.08552  -1.08440  -1.03631
 Alpha  occ. eigenvalues --   -1.03542  -0.96064  -0.96005  -0.87095  -0.87004
 Alpha  occ. eigenvalues --   -0.79667  -0.79637  -0.78364  -0.78256  -0.65590
 Alpha  occ. eigenvalues --   -0.64713  -0.61294  -0.60672  -0.59426  -0.59377
 Alpha  occ. eigenvalues --   -0.57670  -0.57621  -0.55505  -0.55159  -0.52742
 Alpha  occ. eigenvalues --   -0.52711  -0.52471  -0.52441  -0.50217  -0.49733
 Alpha  occ. eigenvalues --   -0.48057  -0.47885  -0.46791  -0.46683  -0.46101
 Alpha  occ. eigenvalues --   -0.45872  -0.45656  -0.45416  -0.43852  -0.43828
 Alpha virt. eigenvalues --    0.17881   0.20887   0.23558   0.25086   0.25325
 Alpha virt. eigenvalues --    0.25619   0.26671   0.27983   0.29080   0.29975
 Alpha virt. eigenvalues --    0.30986   0.31442   0.31888   0.32153   0.32245

 Mulliken charges:
               1
     1  C   -0.299248
     2  C   -0.306527
     3  C   -0.479572
     4  H    0.150196
     5  H    0.150203
     6  H    0.157578
     7  H    0.152550
     8  H    0.155811
     9  H    0.159369
    10  H    0.160127
    11  C   -0.302028
    12  C   -0.299752
    13  C   -0.476189
    14  H    0.152024
    15  H    0.150203
    16  H    0.151983
    17  H    0.152320
    18  H    0.155453
    19  H    0.155311
    20  H    0.160668
    21  C   -0.303708
    22  C   -0.301255
    23  C   -0.479363
    24  H    0.155087
    25  H    0.150216
    26  H    0.152068
    27  H    0.152358
    28  H    0.155173
    29  H    0.159681
    30  H    0.160059
    31  C   -0.301132
    32  C   -0.300576
    33  C   -0.476633
    34  H    0.150927
    35  H    0.150231
    36  H    0.152453
    37  H    0.152519
    38  H    0.155566
    39  H    0.154984
    40  H    0.160867
 Sum of Mulliken charges =  -0.00000

 Dipole moment (field-independent basis, Debye):
    X=              0.0023    Y=             -0.0120    Z=              0.0133  Tot=              0.0181
 Quadrupole moment (field-independent basis, Debye-Ang):
   XX=            -84.2311   YY=            -85.7244   ZZ=            -84.5748
   XY=             -2.0693   XZ=              0.4945   YZ=             -0.3036

 Normal termination of Gaussian 16 at Wed May  5 15:05:06 2021.
