 Gaussian 16, Revision A.03,
 Gaussian 16:  EM64L-G16RevA.03 25-Dec-2016

 -------------
 #p 6-31g* mp2
 -------------

 ------------------------------------------------------
 Input file generated by CHIRIPA (05-May-2021 14:51:14)
 ------------------------------------------------------
 Symbolic Z-matrix:
 Charge =  0 Multiplicity = 1

                         Standard orientation:
 ---------------------------------------------------------------------
 Center     Atomic      Atomic             Coordinates (Angstroms)
 Number     Number       Type             X           Y           Z
 ---------------------------------------------------------------------
      1          6           0        4.104946   -0.652866    0.097484
      2          6           0        2.690080   -0.731032   -0.476998
      3          6           0        2.000736   -2.061210   -0.171672
      4          1           0        4.704463   -1.479617   -0.307494
      5          1           0        4.060352   -0.802629    1.185131
      6          1           0        2.737181   -0.579788   -1.563057
      7          1           0        2.093916    0.096114   -0.070754
      8          1           0        1.924354   -2.216292    0.909400
      9          1           0        2.571274   -2.896035   -0.591381
     10          1           0        0.990593   -2.095563   -0.591540
     11          6           0        4.807080    0.670977   -0.199460
     12          6           0        6.221946    0.749143    0.375022
     13          6           0        6.911290    2.079321    0.069695
     14          1           0        4.851674    0.820740   -1.287108
     15          1           0        4.207563    1.497728    0.205517
     16          1           0        6.818110   -0.078003   -0.031222
     17          1           0        6.174845    0.597900    1.461080
     18          1           0        6.340752    2.914146    0.489405
     19          1           0        6.987672    2.234403   -1.011377
     20          1           0        7.921434    2.113674    0.489564
     21          6           0       -5.049905    0.331647    0.389584
     22          6           0       -5.854725    1.225958   -0.554056
     23          6           0       -7.039553    1.900581    0.137942
     24          1           0       -5.713549   -0.434425    0.813440
     25          1           0       -4.687965    0.933803    1.234452
     26          1           0       -6.213873    0.622590   -1.397606
     27          1           0       -5.189045    1.989873   -0.975864
     28          1           0       -6.695713    2.525971    0.968161
     29          1           0       -7.726363    1.150919    0.544021
     30          1           0       -7.600992    2.535108   -0.554894
     31          6           0       -3.862122   -0.349758   -0.287607
     32          6           0       -3.057301   -1.244070    0.656033
     33          6           0       -1.872474   -1.918692   -0.035966
     34          1           0       -4.224061   -0.951914   -1.132476
     35          1           0       -3.198477    0.416314   -0.711463
     36          1           0       -3.722982   -2.007984    1.077839
     37          1           0       -2.698153   -0.640701    1.499583
     38          1           0       -1.185663   -1.169030   -0.442045
     39          1           0       -2.216314   -2.544081   -0.866184
     40          1           0       -1.311034   -2.553219    0.656870
 ---------------------------------------------------------------------

 SCF Done:  E(RHF) =  -470.732686900     A.U. after   11 cycles
 E2 =    -0.1582520088D+01 EUMP2 =    -0.47231520698840D+03

 The electronic state is 1-A.
 Alpha  occ. eigenvalues --  -11.21606 -11.21602 -11.21582 -11.21547 -11.21410
 Alpha  occ. eigenvalues --  -11.21371 -11.21351 -11.21310 -11.21075 -11.21061
 Alpha  occ. eigenvalues --  -11.21058 -11.20888  -1.08437  -1.08389  -1.03552
 Alpha  occ. eigenvalues --   -1.03465  -0.96042  -0.95876  -0.87104  -0.86854
 Alpha  occ. eigenvalues --   -0.79660  -0.79494  -0.78250  -0.78207  -0.65072
 Alpha  occ. eigenvalues --   -0.65019  -0.60982  -0.60860  -0.59480  -0.59194
 Alpha  occ. eigenvalues --   -0.57642  -0.57517  -0.55318  -0.55171  -0.52993
 Alpha  occ. eigenvalues --   -0.52484  -0.52413  -0.52164  -0.49937  -0.49828
 Alpha  occ. eigenvalues --   -0.47975  -0.47796  -0.46623  -0.46579  -0.45792
 Alpha  occ. eigenvalues --   -0.45744  -0.45714  -0.45676  -0.43923  -0.43551
 Alpha virt. eigenvalues --    0.22334   0.23006   0.23600   0.24823   0.26534
 Alpha virt. eigenvalues --    0.26712   0.26988   0.27336   0.27642   0.29164
 Alpha virt. eigenvalues --    0.30276   0.31000   0.31365   0.31731   0.32328

 Mulliken charges:
               1
     1  C   -0.298136
     2  C   -0.299854
     3  C   -0.482828
     4  H    0.149686
     5  H    0.149367
     6  H    0.151477
     7  H    0.150963
     8  H    0.153694
     9  H    0.153949
    10  H    0.171799
    11  C   -0.298198
    12  C   -0.299606
    13  C   -0.475671
    14  H    0.149413
    15  H    0.149369
    16  H    0.151936
    17  H    0.151862
    18  H    0.155075
    19  H    0.155144
    20  H    0.160186
    21  C   -0.298280
    22  C   -0.299642
    23  C   -0.475706
    24  H    0.149689
    25  H    0.149480
    26  H    0.151942
    27  H    0.151940
    28  H    0.155166
    29  H    0.155191
    30  H    0.160272
    31  C   -0.298599
    32  C   -0.300030
    33  C   -0.478669
    34  H    0.149522
    35  H    0.149724
    36  H    0.151914
    37  H    0.151929
    38  H    0.156390
    39  H    0.155044
    40  H    0.163094
 Sum of Mulliken charges =  -0.00000

 Dipole moment (field-independent basis, Debye):
    X=             -0.0413    Y=             -0.0174    Z=             -0.0050  Tot=              0.0451
 Quadrupole moment (field-independent basis, Debye-Ang):
   XX=            -85.6805   YY=            -85.1243   ZZ=            -84.1234
   XY=              0.3067   XZ=              0.2140   YZ=              0.4871

 Normal termination of Gaussian 16 at Wed May  5 15:22:54 2021.
