 Gaussian 16, Revision A.03,
 Gaussian 16:  EM64L-G16RevA.03 25-Dec-2016

 -------------
 #p 6-31g* mp2
 -------------

 ------------------------------------------------------
 Input file generated by CHIRIPA (05-May-2021 14:55:20)
 ------------------------------------------------------
 Symbolic Z-matrix:
 Charge =  0 Multiplicity = 1

                         Standard orientation:
 ---------------------------------------------------------------------
 Center     Atomic      Atomic             Coordinates (Angstroms)
 Number     Number       Type             X           Y           Z
 ---------------------------------------------------------------------
      1          6           0       -2.516975    2.707091    0.471600
      2          6           0       -1.491616    1.769468    0.310287
      3          6           0       -1.788208    0.440294   -0.005746
      4          6           0       -3.127144    0.081678   -0.153849
      5          6           0       -4.171029    0.992597    0.000488
      6          6           0       -3.851058    2.316352    0.316459
      7          1           0       -2.277495    3.737521    0.717078
      8          1           0       -0.454648    2.070083    0.430173
      9          1           0       -1.014081   -0.306105   -0.136262
     10          1           0       -5.195222    0.663022   -0.125324
     11          1           0       -4.649427    3.042371    0.441147
     12          7           0       -3.453508   -1.322591   -0.488386
     13          8           0       -4.641141   -1.613283   -0.613544
     14          8           0       -2.515500   -2.105976   -0.619105
     15          6           0        4.491710    0.095744    0.286750
     16          6           0        5.279434    0.541664   -0.945577
     17          6           0        6.391915    1.534933   -0.608535
     18          1           0        4.060393    0.978857    0.777690
     19          1           0        5.182743   -0.358004    1.010616
     20          1           0        4.586910    0.993185   -1.667490
     21          1           0        5.708766   -0.342631   -1.433750
     22          1           0        7.105302    1.090816    0.093206
     23          1           0        5.977071    2.434223   -0.141862
     24          1           0        6.942210    1.840413   -1.503922
     25          6           0        3.376079   -0.897326   -0.034044
     26          6           0        2.588356   -1.343247    1.198284
     27          6           0        1.475875   -2.336515    0.861241
     28          1           0        2.685047   -0.443578   -0.757910
     29          1           0        3.807397   -1.780439   -0.524984
     30          1           0        2.159023   -0.458952    1.686456
     31          1           0        3.280879   -1.794768    1.920195
     32          1           0        1.890718   -3.235805    0.394568
     33          1           0        0.762487   -1.892399    0.159499
     34          1           0        0.925579   -2.641995    1.756627
 ---------------------------------------------------------------------

 SCF Done:  E(RHF) =  -669.535382573     A.U. after   15 cycles
 E2 =    -0.2091310319D+01 EUMP2 =    -0.67162669289132D+03

 The electronic state is 1-A.
 Alpha  occ. eigenvalues --  -20.60762 -20.60755 -15.85812 -11.31186 -11.27760
 Alpha  occ. eigenvalues --  -11.27749 -11.27511 -11.26783 -11.26774 -11.21885
 Alpha  occ. eigenvalues --  -11.21867 -11.21724 -11.21662 -11.21341 -11.21109
 Alpha  occ. eigenvalues --   -1.59835  -1.39388  -1.19365  -1.08758  -1.08725
 Alpha  occ. eigenvalues --   -1.04772  -1.03775  -0.96203  -0.95590  -0.87208
 Alpha  occ. eigenvalues --   -0.86169  -0.82422  -0.79826  -0.78537  -0.77469
 Alpha  occ. eigenvalues --   -0.72032  -0.71157  -0.70484  -0.65383  -0.65018
 Alpha  occ. eigenvalues --   -0.64782  -0.62173  -0.61148  -0.59566  -0.57808
 Alpha  occ. eigenvalues --   -0.55550  -0.55235  -0.53098  -0.52909  -0.52852
 Alpha  occ. eigenvalues --   -0.52576  -0.50138  -0.48791  -0.48786  -0.48127
 Alpha  occ. eigenvalues --   -0.46880  -0.46065  -0.46021  -0.44790  -0.44026
 Alpha  occ. eigenvalues --   -0.37348  -0.36374
 Alpha virt. eigenvalues --    0.05066   0.11276   0.16555   0.19638   0.22822
 Alpha virt. eigenvalues --    0.23703   0.25841   0.26421   0.27435   0.27966
 Alpha virt. eigenvalues --    0.29156   0.30406   0.31442   0.31672   0.31891

 Mulliken charges:
               1
     1  C   -0.170368
     2  C   -0.223106
     3  C   -0.176689
     4  C    0.155905
     5  C   -0.169741
     6  C   -0.219123
     7  H    0.225605
     8  H    0.223551
     9  H    0.289411
    10  H    0.275713
    11  H    0.223469
    12  N    0.486753
    13  O   -0.460269
    14  O   -0.461562
    15  C   -0.297608
    16  C   -0.299712
    17  C   -0.475650
    18  H    0.145403
    19  H    0.151360
    20  H    0.150767
    21  H    0.154021
    22  H    0.156182
    23  H    0.153570
    24  H    0.161224
    25  C   -0.297604
    26  C   -0.301523
    27  C   -0.480061
    28  H    0.144535
    29  H    0.153568
    30  H    0.144480
    31  H    0.154385
    32  H    0.160658
    33  H    0.157781
    34  H    0.164675
 Sum of Mulliken charges =  -0.00000

 Dipole moment (field-independent basis, Debye):
    X=              1.2023    Y=              4.8163    Z=              1.1792  Tot=              5.1022
 Quadrupole moment (field-independent basis, Debye-Ang):
   XX=            -97.1696   YY=            -93.7984   ZZ=            -96.0531
   XY=            -18.2562   XZ=             -3.9621   YZ=             -0.8658

 Normal termination of Gaussian 16 at Thu May  6 14:06:00 2021.
