 Gaussian 16, Revision A.03,
 Gaussian 16:  EM64L-G16RevA.03 25-Dec-2016

 -------------
 #p 6-31g* mp2
 -------------

 ------------------------------------------------------
 Input file generated by CHIRIPA (05-May-2021 14:53:15)
 ------------------------------------------------------
 Symbolic Z-matrix:
 Charge =  0 Multiplicity = 1

                         Standard orientation:
 ---------------------------------------------------------------------
 Center     Atomic      Atomic             Coordinates (Angstroms)
 Number     Number       Type             X           Y           Z
 ---------------------------------------------------------------------
      1          6           0       -3.776602    1.114705   -0.378511
      2          6           0       -2.268655    1.366253   -0.350157
      3          6           0       -1.907676    2.826534   -0.624146
      4          1           0       -4.173555    1.414447   -1.358066
      5          1           0       -4.262943    1.759590    0.366465
      6          1           0       -1.785154    0.720082   -1.094003
      7          1           0       -1.875214    1.065698    0.629377
      8          1           0       -2.363399    3.482959    0.124202
      9          1           0       -2.272828    3.135379   -1.608970
     10          1           0       -0.824872    2.983915   -0.599123
     11          6           0       -4.153248   -0.340559   -0.106347
     12          6           0       -5.661195   -0.592108   -0.134702
     13          6           0       -6.022174   -2.052388    0.139287
     14          1           0       -3.666907   -0.985445   -0.851324
     15          1           0       -3.756295   -0.640301    0.873207
     16          1           0       -6.054636   -0.291553   -1.114236
     17          1           0       -6.144696    0.054063    0.609144
     18          1           0       -5.657022   -2.361234    1.124112
     19          1           0       -5.566451   -2.708813   -0.609060
     20          1           0       -7.104978   -2.209770    0.114265
     21          6           0        0.773950   -0.361931    1.170745
     22          6           0        1.187163   -1.365671    0.288541
     23          6           0        2.472368   -1.342796   -0.261252
     24          6           0        3.322239   -0.296645    0.094525
     25          6           0        2.939870    0.717936    0.970715
     26          6           0        1.650078    0.674841    1.508419
     27          1           0       -0.226209   -0.387554    1.593142
     28          1           0        0.508881   -2.172062    0.024509
     29          1           0        2.818139   -2.107037   -0.946669
     30          1           0        3.638465    1.508933    1.215064
     31          1           0        1.331884    1.455703    2.193293
     32          7           0        4.685256   -0.261726   -0.481118
     33          8           0        5.415040    0.670786   -0.151764
     34          8           0        4.997997   -1.167529   -1.250762
 ---------------------------------------------------------------------

 SCF Done:  E(RHF) =  -669.535222393     A.U. after   15 cycles
 E2 =    -0.2091820401D+01 EUMP2 =    -0.67162704279366D+03

 The electronic state is 1-A.
 Alpha  occ. eigenvalues --  -20.60744 -20.60738 -15.85799 -11.31155 -11.27742
 Alpha  occ. eigenvalues --  -11.27736 -11.27454 -11.26743 -11.26726 -11.22468
 Alpha  occ. eigenvalues --  -11.22277 -11.22212 -11.22121 -11.21745 -11.21680
 Alpha  occ. eigenvalues --   -1.59820  -1.39374  -1.19337  -1.09209  -1.08726
 Alpha  occ. eigenvalues --   -1.04740  -1.04254  -0.96684  -0.95565  -0.87700
 Alpha  occ. eigenvalues --   -0.86135  -0.82405  -0.80335  -0.79045  -0.77445
 Alpha  occ. eigenvalues --   -0.72016  -0.71144  -0.70458  -0.65838  -0.64987
 Alpha  occ. eigenvalues --   -0.64741  -0.62089  -0.61654  -0.60062  -0.58308
 Alpha  occ. eigenvalues --   -0.55974  -0.55260  -0.53373  -0.53102  -0.53049
 Alpha  occ. eigenvalues --   -0.52829  -0.50625  -0.48784  -0.48771  -0.48618
 Alpha  occ. eigenvalues --   -0.47367  -0.46566  -0.46491  -0.44781  -0.44516
 Alpha  occ. eigenvalues --   -0.37269  -0.36349
 Alpha virt. eigenvalues --    0.05079   0.11253   0.16522   0.20003   0.22561
 Alpha virt. eigenvalues --    0.23754   0.24932   0.26144   0.26960   0.27697
 Alpha virt. eigenvalues --    0.29357   0.30410   0.31095   0.31298   0.32113

 Mulliken charges:
               1
     1  C   -0.298537
     2  C   -0.299557
     3  C   -0.477236
     4  H    0.153258
     5  H    0.150705
     6  H    0.154790
     7  H    0.140438
     8  H    0.155020
     9  H    0.159081
    10  H    0.162648
    11  C   -0.298130
    12  C   -0.299935
    13  C   -0.476156
    14  H    0.148818
    15  H    0.143239
    16  H    0.154455
    17  H    0.153301
    18  H    0.154225
    19  H    0.155341
    20  H    0.162876
    21  C   -0.166100
    22  C   -0.220629
    23  C   -0.170946
    24  C    0.158235
    25  C   -0.170930
    26  C   -0.220671
    27  H    0.227392
    28  H    0.223753
    29  H    0.275460
    30  H    0.275532
    31  H    0.223328
    32  N    0.488117
    33  O   -0.460592
    34  O   -0.460591
 Sum of Mulliken charges =  -0.00000

 Dipole moment (field-independent basis, Debye):
    X=             -4.9426    Y=             -0.0787    Z=              1.9423  Tot=              5.3111
 Quadrupole moment (field-independent basis, Debye-Ang):
   XX=           -126.8699   YY=            -92.2134   ZZ=            -92.7060
   XY=              1.4606   XZ=              7.1551   YZ=              2.1489

 Normal termination of Gaussian 16 at Wed May  5 17:09:57 2021.
