 Gaussian 16, Revision A.03,
 Gaussian 16:  EM64L-G16RevA.03 25-Dec-2016

 -------------
 #p 6-31g* mp2
 -------------

 ------------------------------------------------------
 Input file generated by CHIRIPA (05-May-2021 14:51:09)
 ------------------------------------------------------
 Symbolic Z-matrix:
 Charge =  0 Multiplicity = 1

                         Standard orientation:
 ---------------------------------------------------------------------
 Center     Atomic      Atomic             Coordinates (Angstroms)
 Number     Number       Type             X           Y           Z
 ---------------------------------------------------------------------
      1          6           0        3.452529   -0.485503   -0.170089
      2          6           0        4.466824    0.598399   -0.536622
      3          6           0        5.452701    0.145447   -1.613969
      4          1           0        3.989540   -1.379687    0.174875
      5          1           0        2.900247   -0.781395   -1.072768
      6          1           0        5.016071    0.893142    0.366744
      7          1           0        3.927330    1.490172   -0.880572
      8          1           0        4.921657   -0.129788   -2.530941
      9          1           0        6.016584   -0.730211   -1.276538
     10          1           0        6.168693    0.935589   -1.860732
     11          6           0        2.460162   -0.047697    0.905672
     12          6           0        1.445867   -1.131599    1.272205
     13          6           0        0.459989   -0.678648    2.349551
     14          1           0        3.012444    0.248195    1.808350
     15          1           0        1.923151    0.846486    0.560708
     16          1           0        1.985361   -2.023373    1.616155
     17          1           0        0.896620   -1.426342    0.368839
     18          1           0       -0.103893    0.197011    2.012121
     19          1           0        0.991034   -0.403412    3.266523
     20          1           0       -0.256003   -1.468789    2.596314
     21          6           0       -2.488401    0.838994   -0.175893
     22          6           0       -3.153350    2.214250   -0.242959
     23          6           0       -2.204512    3.349139    0.143730
     24          1           0       -2.109290    0.671289    0.841503
     25          1           0       -1.613719    0.829531   -0.840902
     26          1           0       -4.027324    2.220674    0.420927
     27          1           0       -3.531090    2.378621   -1.260264
     28          1           0       -1.337853    3.371375   -0.524857
     29          1           0       -1.836905    3.212530    1.165887
     30          1           0       -2.700387    4.323285    0.088885
     31          6           0       -3.424290   -0.305793   -0.559690
     32          6           0       -2.759341   -1.681050   -0.492624
     33          6           0       -3.708178   -2.815938   -0.879312
     34          1           0       -4.298971   -0.296331    0.105320
     35          1           0       -3.803400   -0.138088   -1.577087
     36          1           0       -2.381600   -1.845421    0.524681
     37          1           0       -1.885367   -1.687472   -1.156510
     38          1           0       -4.075785   -2.679329   -1.901469
     39          1           0       -4.574838   -2.838175   -0.210726
     40          1           0       -3.212304   -3.790083   -0.824467
 ---------------------------------------------------------------------

 SCF Done:  E(RHF) =  -470.733179128     A.U. after   11 cycles
 E2 =    -0.1583540818D+01 EUMP2 =    -0.47231671994608D+03

 The electronic state is 1-A.
 Alpha  occ. eigenvalues --  -11.21631 -11.21620 -11.21588 -11.21547 -11.21424
 Alpha  occ. eigenvalues --  -11.21378 -11.21364 -11.21315 -11.21117 -11.21088
 Alpha  occ. eigenvalues --  -11.21064 -11.21017  -1.08467  -1.08392  -1.03558
 Alpha  occ. eigenvalues --   -1.03500  -0.96017  -0.95948  -0.87031  -0.86970
 Alpha  occ. eigenvalues --   -0.79642  -0.79547  -0.78286  -0.78206  -0.65124
 Alpha  occ. eigenvalues --   -0.65004  -0.60971  -0.60892  -0.59421  -0.59282
 Alpha  occ. eigenvalues --   -0.57659  -0.57529  -0.55386  -0.55173  -0.52709
 Alpha  occ. eigenvalues --   -0.52644  -0.52493  -0.52329  -0.50032  -0.49847
 Alpha  occ. eigenvalues --   -0.47984  -0.47868  -0.46685  -0.46604  -0.45909
 Alpha  occ. eigenvalues --   -0.45771  -0.45639  -0.45483  -0.43810  -0.43755
 Alpha virt. eigenvalues --    0.20719   0.23251   0.23509   0.23997   0.25321
 Alpha virt. eigenvalues --    0.26213   0.27361   0.27968   0.28220   0.29025
 Alpha virt. eigenvalues --    0.30219   0.31026   0.31708   0.31987   0.32329

 Mulliken charges:
               1
     1  C   -0.298214
     2  C   -0.299614
     3  C   -0.475673
     4  H    0.149605
     5  H    0.149140
     6  H    0.151976
     7  H    0.151855
     8  H    0.155024
     9  H    0.155179
    10  H    0.160219
    11  C   -0.298806
    12  C   -0.300880
    13  C   -0.480688
    14  H    0.149347
    15  H    0.150253
    16  H    0.151516
    17  H    0.154286
    18  H    0.160435
    19  H    0.154513
    20  H    0.159443
    21  C   -0.305105
    22  C   -0.299103
    23  C   -0.476221
    24  H    0.157403
    25  H    0.148440
    26  H    0.152128
    27  H    0.151981
    28  H    0.154741
    29  H    0.155136
    30  H    0.160752
    31  C   -0.297814
    32  C   -0.302830
    33  C   -0.475787
    34  H    0.149622
    35  H    0.149595
    36  H    0.155451
    37  H    0.151856
    38  H    0.155181
    39  H    0.155274
    40  H    0.160385
 Sum of Mulliken charges =  -0.00000

 Dipole moment (field-independent basis, Debye):
    X=             -0.0309    Y=              0.0049    Z=              0.0049  Tot=              0.0316
 Quadrupole moment (field-independent basis, Debye-Ang):
   XX=            -85.2158   YY=            -85.5656   ZZ=            -84.0077
   XY=             -0.5749   XZ=              0.5939   YZ=             -0.6960

 Normal termination of Gaussian 16 at Thu May  6 00:32:14 2021.
