 Gaussian 16, Revision A.03,
 Gaussian 16:  EM64L-G16RevA.03 25-Dec-2016

 -------------
 #p 6-31g* mp2
 -------------

 ------------------------------------------------------
 Input file generated by CHIRIPA (05-May-2021 14:53:12)
 ------------------------------------------------------
 Symbolic Z-matrix:
 Charge =  0 Multiplicity = 1

                         Standard orientation:
 ---------------------------------------------------------------------
 Center     Atomic      Atomic             Coordinates (Angstroms)
 Number     Number       Type             X           Y           Z
 ---------------------------------------------------------------------
      1          6           0        3.401640    0.785761   -0.155136
      2          6           0        2.482603    1.826300    0.485673
      3          6           0        3.164534    3.181903    0.673030
      4          1           0        4.297912    0.663886    0.468393
      5          1           0        3.746688    1.161310   -1.128429
      6          1           0        2.138289    1.448305    1.456849
      7          1           0        1.588327    1.945572   -0.139355
      8          1           0        3.493161    3.584287   -0.290657
      9          1           0        4.046249    3.084195    1.314616
     10          1           0        2.489630    3.910705    1.132608
     11          6           0        2.734175   -0.574624   -0.348966
     12          6           0        3.653212   -1.615163   -0.989775
     13          6           0        2.971281   -2.970767   -1.177132
     14          1           0        2.389127   -0.950173    0.624327
     15          1           0        1.837903   -0.452749   -0.972495
     16          1           0        4.547488   -1.734435   -0.364747
     17          1           0        3.997526   -1.237168   -1.960951
     18          1           0        2.089566   -2.873058   -1.818718
     19          1           0        2.642654   -3.373150   -0.213445
     20          1           0        3.646185   -3.699568   -1.636710
     21          6           0       -3.899499    1.090537   -1.455921
     22          6           0       -2.628807    1.604776   -1.177673
     23          6           0       -1.787726    0.963148   -0.263647
     24          6           0       -2.251527   -0.195878    0.356705
     25          6           0       -3.512217   -0.732849    0.100550
     26          6           0       -4.336378   -0.074580   -0.817049
     27          1           0       -4.546299    1.595433   -2.167346
     28          1           0       -2.286883    2.509454   -1.672334
     29          1           0       -0.799294    1.339528   -0.029643
     30          1           0       -3.825260   -1.636442    0.609415
     31          1           0       -5.322720   -0.476222   -1.031191
     32          7           0       -1.370068   -0.883950    1.326234
     33          8           0       -1.802152   -1.903564    1.859459
     34          8           0       -0.263787   -0.390617    1.534569
 ---------------------------------------------------------------------

 SCF Done:  E(RHF) =  -669.535566701     A.U. after   15 cycles
 E2 =    -0.2093081156D+01 EUMP2 =    -0.67162864785729D+03

 The electronic state is 1-A.
 Alpha  occ. eigenvalues --  -20.60890 -20.60874 -15.85911 -11.31229 -11.27799
 Alpha  occ. eigenvalues --  -11.27762 -11.27539 -11.26807 -11.26793 -11.21115
 Alpha  occ. eigenvalues --  -11.20891 -11.20781 -11.20762 -11.20399 -11.20394
 Alpha  occ. eigenvalues --   -1.59945  -1.39501  -1.19400  -1.08808  -1.07752
 Alpha  occ. eigenvalues --   -1.04796  -1.02955  -0.95654  -0.95389  -0.86413
 Alpha  occ. eigenvalues --   -0.86196  -0.82493  -0.79031  -0.77769  -0.77278
 Alpha  occ. eigenvalues --   -0.72136  -0.71253  -0.70516  -0.65060  -0.64824
 Alpha  occ. eigenvalues --   -0.64372  -0.62151  -0.60359  -0.58774  -0.56997
 Alpha  occ. eigenvalues --   -0.55307  -0.54680  -0.53129  -0.52903  -0.52129
 Alpha  occ. eigenvalues --   -0.51811  -0.49346  -0.48907  -0.48904  -0.47326
 Alpha  occ. eigenvalues --   -0.46058  -0.45331  -0.44993  -0.44523  -0.43160
 Alpha  occ. eigenvalues --   -0.37382  -0.36397
 Alpha virt. eigenvalues --    0.04966   0.11223   0.16453   0.20657   0.23437
 Alpha virt. eigenvalues --    0.24516   0.25604   0.27590   0.27837   0.28529
 Alpha virt. eigenvalues --    0.29422   0.31071   0.31549   0.32157   0.32349

 Mulliken charges:
               1
     1  C   -0.298535
     2  C   -0.301904
     3  C   -0.475251
     4  H    0.149406
     5  H    0.143615
     6  H    0.171832
     7  H    0.136641
     8  H    0.151450
     9  H    0.156743
    10  H    0.156714
    11  C   -0.300052
    12  C   -0.299604
    13  C   -0.475283
    14  H    0.173729
    15  H    0.140650
    16  H    0.150616
    17  H    0.146612
    18  H    0.151643
    19  H    0.161201
    20  H    0.156814
    21  C   -0.170306
    22  C   -0.222060
    23  C   -0.178279
    24  C    0.155641
    25  C   -0.169832
    26  C   -0.219087
    27  H    0.225775
    28  H    0.223830
    29  H    0.289884
    30  H    0.275656
    31  H    0.223583
    32  N    0.490955
    33  O   -0.459798
    34  O   -0.462997
 Sum of Mulliken charges =  -0.00000

 Dipole moment (field-independent basis, Debye):
    X=             -3.2145    Y=              2.2931    Z=             -3.1543  Tot=              5.0538
 Quadrupole moment (field-independent basis, Debye-Ang):
   XX=            -78.9828   YY=            -95.2323   ZZ=            -97.1076
   XY=             -2.7790   XZ=              7.1470   YZ=              0.2505

 Normal termination of Gaussian 16 at Thu May  6 07:19:42 2021.
