 Gaussian 16, Revision A.03,
 Gaussian 16:  EM64L-G16RevA.03 25-Dec-2016

 -------------
 #p 6-31g* mp2
 -------------

 ------------------------------------------------------
 Input file generated by CHIRIPA (05-May-2021 14:51:12)
 ------------------------------------------------------
 Symbolic Z-matrix:
 Charge =  0 Multiplicity = 1

                         Standard orientation:
 ---------------------------------------------------------------------
 Center     Atomic      Atomic             Coordinates (Angstroms)
 Number     Number       Type             X           Y           Z
 ---------------------------------------------------------------------
      1          6           0        3.202236    0.715619   -0.452798
      2          6           0        1.779980    1.266053   -0.563232
      3          6           0        1.740548    2.700338   -1.091498
      4          1           0        3.790592    1.367381    0.207495
      5          1           0        3.681616    0.756813   -1.440671
      6          1           0        1.302950    1.222549    0.424273
      7          1           0        1.194888    0.612797   -1.223187
      8          1           0        2.191818    2.756619   -2.087383
      9          1           0        2.300495    3.369834   -0.430563
     10          1           0        0.714277    3.073958   -1.162464
     11          6           0        3.258086   -0.717287    0.073879
     12          6           0        4.680342   -1.267721    0.184313
     13          6           0        4.719773   -2.702006    0.712579
     14          1           0        2.778705   -0.758481    1.061752
     15          1           0        2.669730   -1.369049   -0.586414
     16          1           0        5.265434   -0.614465    0.844268
     17          1           0        5.157371   -1.224217   -0.803192
     18          1           0        4.159826   -3.371502    0.051643
     19          1           0        4.268503   -2.758286    1.708464
     20          1           0        5.746044   -3.075626    0.783545
     21          6           0       -3.134500    0.602560    0.650118
     22          6           0       -1.949487    1.485116    0.256642
     23          6           0       -1.771052    2.684785    1.187635
     24          1           0       -4.050911    1.208477    0.649499
     25          1           0       -2.993646    0.249917    1.681233
     26          1           0       -2.091857    1.834865   -0.773903
     27          1           0       -1.035819    0.876984    0.258011
     28          1           0       -1.603998    2.351968    2.217162
     29          1           0       -2.666035    3.315291    1.179384
     30          1           0       -0.918388    3.302107    0.888071
     31          6           0       -3.325822   -0.600892   -0.271199
     32          6           0       -4.510835   -1.483449    0.122277
     33          6           0       -4.689269   -2.683117   -0.808716
     34          1           0       -3.466675   -0.248250   -1.302314
     35          1           0       -2.409410   -1.206808   -0.270580
     36          1           0       -5.424502   -0.875316    0.120908
     37          1           0       -4.368464   -1.833196    1.152823
     38          1           0       -3.794286   -3.313622   -0.800465
     39          1           0       -4.856324   -2.350300   -1.838243
     40          1           0       -5.541933   -3.300438   -0.509151
 ---------------------------------------------------------------------

 SCF Done:  E(RHF) =  -470.732464595     A.U. after   11 cycles
 E2 =    -0.1583828572D+01 EUMP2 =    -0.47231629316717D+03

 The electronic state is 1-A.
 Alpha  occ. eigenvalues --  -11.21621 -11.21593 -11.21581 -11.21475 -11.21423
 Alpha  occ. eigenvalues --  -11.21366 -11.21359 -11.21303 -11.21091 -11.21077
 Alpha  occ. eigenvalues --  -11.21058 -11.21027  -1.08466  -1.08375  -1.03608
 Alpha  occ. eigenvalues --   -1.03437  -0.96043  -0.95905  -0.87036  -0.86943
 Alpha  occ. eigenvalues --   -0.79755  -0.79454  -0.78362  -0.78096  -0.65115
 Alpha  occ. eigenvalues --   -0.64996  -0.61048  -0.60826  -0.59715  -0.59075
 Alpha  occ. eigenvalues --   -0.57854  -0.57215  -0.55302  -0.55216  -0.52807
 Alpha  occ. eigenvalues --   -0.52564  -0.52477  -0.52247  -0.49945  -0.49894
 Alpha  occ. eigenvalues --   -0.48202  -0.47712  -0.46735  -0.46525  -0.45982
 Alpha  occ. eigenvalues --   -0.45754  -0.45687  -0.45346  -0.43837  -0.43688
 Alpha virt. eigenvalues --    0.21184   0.23161   0.23283   0.25265   0.26038
 Alpha virt. eigenvalues --    0.26453   0.26734   0.27180   0.28285   0.29155
 Alpha virt. eigenvalues --    0.30541   0.31115   0.31423   0.31626   0.32135

 Mulliken charges:
               1
     1  C   -0.297416
     2  C   -0.302896
     3  C   -0.479530
     4  H    0.149571
     5  H    0.149489
     6  H    0.154996
     7  H    0.152983
     8  H    0.155292
     9  H    0.154828
    10  H    0.164347
    11  C   -0.298414
    12  C   -0.299599
    13  C   -0.475727
    14  H    0.149000
    15  H    0.149461
    16  H    0.152044
    17  H    0.152074
    18  H    0.155153
    19  H    0.155084
    20  H    0.160371
    21  C   -0.297520
    22  C   -0.306437
    23  C   -0.479949
    24  H    0.149146
    25  H    0.149019
    26  H    0.150475
    27  H    0.161533
    28  H    0.154421
    29  H    0.155101
    30  H    0.163637
    31  C   -0.298329
    32  C   -0.299560
    33  C   -0.475692
    34  H    0.149280
    35  H    0.149589
    36  H    0.151926
    37  H    0.151874
    38  H    0.155102
    39  H    0.155078
    40  H    0.160195
 Sum of Mulliken charges =  -0.00000

 Dipole moment (field-independent basis, Debye):
    X=              0.0365    Y=             -0.0004    Z=             -0.0112  Tot=              0.0382
 Quadrupole moment (field-independent basis, Debye-Ang):
   XX=            -84.6881   YY=            -86.2950   ZZ=            -83.9894
   XY=             -0.3260   XZ=              0.2358   YZ=             -0.1719

 Normal termination of Gaussian 16 at Wed May  5 16:47:44 2021.
