 Gaussian 16, Revision A.03,
 Gaussian 16:  EM64L-G16RevA.03 25-Dec-2016

 -------------
 #p 6-31g* mp2
 -------------

 ------------------------------------------------------
 Input file generated by CHIRIPA (05-May-2021 14:57:22)
 ------------------------------------------------------
 Symbolic Z-matrix:
 Charge =  0 Multiplicity = 1

                         Standard orientation:
 ---------------------------------------------------------------------
 Center     Atomic      Atomic             Coordinates (Angstroms)
 Number     Number       Type             X           Y           Z
 ---------------------------------------------------------------------
      1          6           0       -0.757870   -1.259929    1.218903
      2          6           0       -1.363302   -1.893499    0.128692
      3          6           0       -2.554858   -1.397602   -0.408737
      4          6           0       -3.116090   -0.261040    0.171380
      5          6           0       -2.536990    0.392503    1.258032
      6          6           0       -1.345610   -0.120958    1.779106
      7          1           0        0.167692   -1.651975    1.630038
      8          1           0       -0.909107   -2.778203   -0.308402
      9          1           0       -3.044836   -1.868412   -1.252347
     10          1           0       -3.013483    1.272689    1.672335
     11          1           0       -0.877652    0.373144    2.625820
     12          7           0       -4.377444    0.273241   -0.388915
     13          8           0       -4.851857    1.276016    0.140246
     14          8           0       -4.867797   -0.320881   -1.346626
     15          6           0        1.576342    2.485886   -0.425567
     16          6           0        1.029806    1.283753   -0.886760
     17          6           0        1.758695    0.093752   -0.802100
     18          6           0        3.036964    0.142519   -0.248076
     19          6           0        3.608939    1.324435    0.220120
     20          6           0        2.861896    2.502361    0.125430
     21          1           0        1.003072    3.405617   -0.495229
     22          1           0        0.031665    1.267966   -1.315139
     23          1           0        1.359808   -0.850838   -1.151464
     24          1           0        4.606433    1.308644    0.642226
     25          1           0        3.288881    3.434492    0.484403
     26          7           0        3.818214   -1.110890   -0.153141
     27          8           0        4.942262   -1.041308    0.339111
     28          8           0        3.291718   -2.139161   -0.572779
 ---------------------------------------------------------------------

 SCF Done:  E(RHF) =  -868.338010202     A.U. after   16 cycles
 E2 =    -0.2602583579D+01 EUMP2 =    -0.87094059378064D+03

 The electronic state is 1-A.
 Alpha  occ. eigenvalues --  -20.61498 -20.61462 -20.61296 -20.61287 -15.86525
 Alpha  occ. eigenvalues --  -15.86351 -11.31749 -11.31747 -11.28316 -11.28313
 Alpha  occ. eigenvalues --  -11.28269 -11.28254 -11.27941 -11.27930 -11.27260
 Alpha  occ. eigenvalues --  -11.27235 -11.27219 -11.27183  -1.60560  -1.60375
 Alpha  occ. eigenvalues --   -1.40118  -1.39926  -1.19953  -1.19865  -1.09313
 Alpha  occ. eigenvalues --   -1.09275  -1.05303  -1.05255  -0.96196  -0.96081
 Alpha  occ. eigenvalues --   -0.86721  -0.86617  -0.82997  -0.82923  -0.78081
 Alpha  occ. eigenvalues --   -0.77990  -0.72738  -0.72555  -0.71899  -0.71713
 Alpha  occ. eigenvalues --   -0.71047  -0.70871  -0.65535  -0.65531  -0.65305
 Alpha  occ. eigenvalues --   -0.65166  -0.62675  -0.62567  -0.55765  -0.55701
 Alpha  occ. eigenvalues --   -0.54076  -0.53354  -0.53329  -0.53187  -0.49511
 Alpha  occ. eigenvalues --   -0.49476  -0.49320  -0.49315  -0.45550  -0.45324
 Alpha  occ. eigenvalues --   -0.38259  -0.37921  -0.36948  -0.36346
 Alpha virt. eigenvalues --    0.04133   0.04797   0.10322   0.11035   0.15817
 Alpha virt. eigenvalues --    0.16218   0.20578   0.21371   0.26133   0.27104
 Alpha virt. eigenvalues --    0.27776   0.28236   0.30320   0.30822   0.31550

 Mulliken charges:
               1
     1  C   -0.170161
     2  C   -0.230126
     3  C   -0.174227
     4  C    0.154938
     5  C   -0.175309
     6  C   -0.216011
     7  H    0.234971
     8  H    0.232141
     9  H    0.277717
    10  H    0.275512
    11  H    0.225602
    12  N    0.487836
    13  O   -0.460472
    14  O   -0.458846
    15  C   -0.173927
    16  C   -0.214671
    17  C   -0.173756
    18  C    0.154854
    19  C   -0.172611
    20  C   -0.219236
    21  H    0.228642
    22  H    0.229197
    23  H    0.272113
    24  H    0.276011
    25  H    0.224965
    26  N    0.487774
    27  O   -0.457492
    28  O   -0.465426
 Sum of Mulliken charges =  -0.00000

 Dipole moment (field-independent basis, Debye):
    X=              1.6635    Y=              2.5571    Z=              1.7098  Tot=              3.4971
 Quadrupole moment (field-independent basis, Debye-Ang):
   XX=           -147.7078   YY=            -99.0967   ZZ=           -101.7008
   XY=             20.3082   XZ=             -3.8749   YZ=              1.9278

 Normal termination of Gaussian 16 at Fri May  7 07:57:32 2021.
