 Gaussian 16, Revision A.03,
 Gaussian 16:  EM64L-G16RevA.03 25-Dec-2016

 -------------
 #p 6-31g* mp2
 -------------

 ------------------------------------------------------
 Input file generated by CHIRIPA (05-May-2021 14:53:13)
 ------------------------------------------------------
 Symbolic Z-matrix:
 Charge =  0 Multiplicity = 1

                         Standard orientation:
 ---------------------------------------------------------------------
 Center     Atomic      Atomic             Coordinates (Angstroms)
 Number     Number       Type             X           Y           Z
 ---------------------------------------------------------------------
      1          6           0        4.295984   -0.380568    0.012658
      2          6           0        3.708496   -1.775695   -0.202895
      3          6           0        4.669816   -2.891748    0.207085
      4          1           0        5.229779   -0.290538   -0.559065
      5          1           0        4.565225   -0.263288    1.071502
      6          1           0        3.439165   -1.889810   -1.260748
      7          1           0        2.775891   -1.862348    0.369256
      8          1           0        4.929958   -2.806057    1.267078
      9          1           0        5.597000   -2.833676   -0.372188
     10          1           0        4.229663   -3.880554    0.044640
     11          6           0        3.346775    0.745719   -0.392566
     12          6           0        3.934263    2.140846   -0.177013
     13          6           0        2.972944    3.256899   -0.586993
     14          1           0        3.077534    0.628439   -1.451410
     15          1           0        2.412980    0.655690    0.179157
     16          1           0        4.866868    2.227499   -0.749163
     17          1           0        4.203594    2.254962    0.880841
     18          1           0        2.045759    3.198828   -0.007720
     19          1           0        2.712802    3.171209   -1.646986
     20          1           0        3.413096    4.245705   -0.424548
     21          6           0       -0.579152   -0.222669    0.902881
     22          6           0       -1.113332   -1.276333    0.153906
     23          6           0       -2.445304   -1.242650   -0.269488
     24          6           0       -3.218085   -0.134900    0.075461
     25          6           0       -2.714793    0.930409    0.820514
     26          6           0       -1.380177    0.875404    1.233213
     27          1           0        0.456582   -0.257116    1.227629
     28          1           0       -0.493587   -2.130380   -0.104099
     29          1           0       -2.884370   -2.044671   -0.850352
     30          1           0       -3.357242    1.768399    1.062277
     31          1           0       -0.968002    1.695129    1.814769
     32          7           0       -4.629584   -0.087955   -0.367105
     33          8           0       -5.289590    0.899258   -0.050178
     34          8           0       -5.049187   -1.039260   -1.022536
 ---------------------------------------------------------------------

 SCF Done:  E(RHF) =  -669.535348692     A.U. after   15 cycles
 E2 =    -0.2091780779D+01 EUMP2 =    -0.67162712947124D+03

 The electronic state is 1-A.
 Alpha  occ. eigenvalues --  -20.60740 -20.60735 -15.85794 -11.31160 -11.27730
 Alpha  occ. eigenvalues --  -11.27723 -11.27453 -11.26752 -11.26728 -11.22684
 Alpha  occ. eigenvalues --  -11.22438 -11.22381 -11.22314 -11.21920 -11.21807
 Alpha  occ. eigenvalues --   -1.59816  -1.39369  -1.19332  -1.09390  -1.08726
 Alpha  occ. eigenvalues --   -1.04734  -1.04422  -0.96850  -0.95564  -0.87861
 Alpha  occ. eigenvalues --   -0.86132  -0.82399  -0.80495  -0.79218  -0.77440
 Alpha  occ. eigenvalues --   -0.72012  -0.71139  -0.70472  -0.66030  -0.64984
 Alpha  occ. eigenvalues --   -0.64731  -0.62086  -0.61819  -0.60219  -0.58471
 Alpha  occ. eigenvalues --   -0.56175  -0.55237  -0.53523  -0.53263  -0.53056
 Alpha  occ. eigenvalues --   -0.52826  -0.50791  -0.48810  -0.48769  -0.48763
 Alpha  occ. eigenvalues --   -0.47547  -0.46733  -0.46650  -0.44775  -0.44689
 Alpha  occ. eigenvalues --   -0.37294  -0.36338
 Alpha virt. eigenvalues --    0.05066   0.11298   0.16453   0.18674   0.22775
 Alpha virt. eigenvalues --    0.23034   0.25024   0.26057   0.26848   0.27054
 Alpha virt. eigenvalues --    0.30120   0.30346   0.31021   0.31087   0.31684

 Mulliken charges:
               1
     1  C   -0.299086
     2  C   -0.300168
     3  C   -0.475997
     4  H    0.154325
     5  H    0.149982
     6  H    0.154965
     7  H    0.140765
     8  H    0.156619
     9  H    0.158927
    10  H    0.161523
    11  C   -0.301140
    12  C   -0.300487
    13  C   -0.474920
    14  H    0.154025
    15  H    0.140893
    16  H    0.155527
    17  H    0.151689
    18  H    0.150536
    19  H    0.158610
    20  H    0.163220
    21  C   -0.172081
    22  C   -0.220212
    23  C   -0.170987
    24  C    0.158636
    25  C   -0.170713
    26  C   -0.220148
    27  H    0.230138
    28  H    0.224377
    29  H    0.275512
    30  H    0.275547
    31  H    0.223059
    32  N    0.488025
    33  O   -0.460478
    34  O   -0.460483
 Sum of Mulliken charges =  -0.00000

 Dipole moment (field-independent basis, Debye):
    X=              5.1937    Y=             -0.1421    Z=              1.4593  Tot=              5.3967
 Quadrupole moment (field-independent basis, Debye-Ang):
   XX=           -126.5769   YY=            -91.4582   ZZ=            -93.3191
   XY=             -0.1871   XZ=             -5.7623   YZ=              2.2876

 Normal termination of Gaussian 16 at Thu May  6 17:04:27 2021.
