 Gaussian 16, Revision A.03,
 Gaussian 16:  EM64L-G16RevA.03 25-Dec-2016

 -------------
 #p 6-31g* mp2
 -------------

 ------------------------------------------------------
 Input file generated by CHIRIPA (05-May-2021 14:55:21)
 ------------------------------------------------------
 Symbolic Z-matrix:
 Charge =  0 Multiplicity = 1

                         Standard orientation:
 ---------------------------------------------------------------------
 Center     Atomic      Atomic             Coordinates (Angstroms)
 Number     Number       Type             X           Y           Z
 ---------------------------------------------------------------------
      1          6           0       -2.114661   -2.519971    0.635813
      2          6           0       -3.403602   -1.977264    0.610879
      3          6           0       -3.604217   -0.640098    0.255506
      4          6           0       -2.488305    0.129121   -0.070578
      5          6           0       -1.191714   -0.382644   -0.055082
      6          6           0       -1.014771   -1.722336    0.303339
      7          1           0       -1.968013   -3.559695    0.913059
      8          1           0       -4.259647   -2.594361    0.868605
      9          1           0       -4.591142   -0.194410    0.227956
     10          1           0       -0.357920    0.257345   -0.317033
     11          1           0       -0.012617   -2.141133    0.321839
     12          7           0       -2.688157    1.546055   -0.448409
     13          8           0       -1.688528    2.202770   -0.731437
     14          8           0       -3.840646    1.973104   -0.454371
     15          6           0        2.981977    0.851923   -0.193370
     16          6           0        3.179393    1.862101    0.937360
     17          6           0        2.853525    3.294658    0.513822
     18          1           0        3.614285    1.136704   -1.045445
     19          1           0        1.942125    0.903858   -0.544660
     20          1           0        4.218201    1.807300    1.287346
     21          1           0        2.546686    1.574774    1.786914
     22          1           0        1.812413    3.371486    0.183997
     23          1           0        3.493426    3.605333   -0.318409
     24          1           0        3.001478    4.000260    1.337286
     25          6           0        3.303760   -0.584642    0.214636
     26          6           0        3.106345   -1.594820   -0.916095
     27          6           0        3.432213   -3.027377   -0.492556
     28          1           0        4.343612   -0.636577    0.565926
     29          1           0        2.671452   -0.869422    1.066711
     30          1           0        3.739052   -1.307493   -1.765648
     31          1           0        2.067537   -1.540019   -1.266080
     32          1           0        2.792312   -3.338053    0.339675
     33          1           0        4.473325   -3.104205   -0.162731
     34          1           0        3.284260   -3.732979   -1.316020
 ---------------------------------------------------------------------

 SCF Done:  E(RHF) =  -669.535511532     A.U. after   15 cycles
 E2 =    -0.2092761358D+01 EUMP2 =    -0.67162827289003D+03

 The electronic state is 1-A.
 Alpha  occ. eigenvalues --  -20.60810 -20.60804 -15.85859 -11.31202 -11.27774
 Alpha  occ. eigenvalues --  -11.27761 -11.27510 -11.26786 -11.26762 -11.22387
 Alpha  occ. eigenvalues --  -11.22029 -11.21901 -11.21813 -11.21705 -11.20811
 Alpha  occ. eigenvalues --   -1.59881  -1.39436  -1.19376  -1.08948  -1.08773
 Alpha  occ. eigenvalues --   -1.04778  -1.03935  -0.96371  -0.95613  -0.87382
 Alpha  occ. eigenvalues --   -0.86177  -0.82448  -0.80031  -0.78702  -0.77497
 Alpha  occ. eigenvalues --   -0.72079  -0.71201  -0.70499  -0.65669  -0.65019
 Alpha  occ. eigenvalues --   -0.64803  -0.62099  -0.61318  -0.59784  -0.57957
 Alpha  occ. eigenvalues --   -0.55681  -0.55273  -0.53108  -0.53039  -0.52930
 Alpha  occ. eigenvalues --   -0.52707  -0.50313  -0.48836  -0.48833  -0.48307
 Alpha  occ. eigenvalues --   -0.47105  -0.46211  -0.46138  -0.44844  -0.44204
 Alpha  occ. eigenvalues --   -0.37355  -0.36376
 Alpha virt. eigenvalues --    0.05023   0.11268   0.16476   0.17870   0.22555
 Alpha virt. eigenvalues --    0.23303   0.25088   0.26243   0.27576   0.28451
 Alpha virt. eigenvalues --    0.29581   0.30539   0.31360   0.31718   0.32795

 Mulliken charges:
               1
     1  C   -0.171048
     2  C   -0.218922
     3  C   -0.169806
     4  C    0.158292
     5  C   -0.181773
     6  C   -0.228649
     7  H    0.226140
     8  H    0.223559
     9  H    0.275719
    10  H    0.289422
    11  H    0.231020
    12  N    0.486986
    13  O   -0.461666
    14  O   -0.459855
    15  C   -0.305206
    16  C   -0.299584
    17  C   -0.479907
    18  H    0.154492
    19  H    0.150376
    20  H    0.151727
    21  H    0.151134
    22  H    0.168877
    23  H    0.154672
    24  H    0.160747
    25  C   -0.300751
    26  C   -0.303577
    27  C   -0.476694
    28  H    0.154007
    29  H    0.144600
    30  H    0.158723
    31  H    0.145593
    32  H    0.148295
    33  H    0.160240
    34  H    0.162815
 Sum of Mulliken charges =  -0.00000

 Dipole moment (field-independent basis, Debye):
    X=              0.8261    Y=             -4.8720    Z=              1.2941  Tot=              5.1081
 Quadrupole moment (field-independent basis, Debye-Ang):
   XX=            -91.7023   YY=            -97.4225   ZZ=            -95.6833
   XY=             13.6908   XZ=             -4.6812   YZ=              0.5726

 Normal termination of Gaussian 16 at Thu May  6 12:30:27 2021.
