 Gaussian 16, Revision A.03,
 Gaussian 16:  EM64L-G16RevA.03 25-Dec-2016

 -------------
 #p 6-31g* mp2
 -------------

 ------------------------------------------------------
 Input file generated by CHIRIPA (05-May-2021 14:53:16)
 ------------------------------------------------------
 Symbolic Z-matrix:
 Charge =  0 Multiplicity = 1

                         Standard orientation:
 ---------------------------------------------------------------------
 Center     Atomic      Atomic             Coordinates (Angstroms)
 Number     Number       Type             X           Y           Z
 ---------------------------------------------------------------------
      1          6           0       -3.601361   -0.549189    0.138444
      2          6           0       -4.580144   -1.631514   -0.318218
      3          6           0       -4.318463   -2.983576    0.346043
      4          1           0       -2.575511   -0.875005   -0.081600
      5          1           0       -3.667763   -0.441479    1.229950
      6          1           0       -4.512912   -1.736181   -1.408696
      7          1           0       -5.603795   -1.302999   -0.097236
      8          1           0       -4.405363   -2.901387    1.434296
      9          1           0       -3.308281   -3.337030    0.115385
     10          1           0       -5.029529   -3.742608    0.005285
     11          6           0       -3.850169    0.808163   -0.516856
     12          6           0       -2.871386    1.890488   -0.060194
     13          6           0       -3.133067    3.242551   -0.724456
     14          1           0       -3.783767    0.700454   -1.608362
     15          1           0       -4.876019    1.133980   -0.296812
     16          1           0       -1.847735    1.561974   -0.281176
     17          1           0       -2.938618    1.995156    1.030283
     18          1           0       -4.143249    3.596005   -0.493797
     19          1           0       -3.046167    3.160362   -1.812709
     20          1           0       -2.422001    4.001583   -0.383697
     21          6           0        0.774542    0.259974    1.440914
     22          6           0        2.009346    0.532230    2.038958
     23          6           0        3.199352    0.335820    1.331953
     24          6           0        3.117275   -0.136075    0.022805
     25          6           0        1.902355   -0.416459   -0.600607
     26          6           0        0.725074   -0.212668    0.125360
     27          1           0       -0.144942    0.415417    1.997497
     28          1           0        2.050795    0.899382    3.060490
     29          1           0        4.168837    0.538537    1.770614
     30          1           0        1.892993   -0.781488   -1.620452
     31          1           0       -0.232472   -0.424950   -0.341638
     32          7           0        4.370346   -0.347913   -0.735706
     33          8           0        4.271055   -0.764468   -1.887773
     34          8           0        5.428065   -0.093384   -0.163797
 ---------------------------------------------------------------------

 SCF Done:  E(RHF) =  -669.535254366     A.U. after   15 cycles
 E2 =    -0.2092407353D+01 EUMP2 =    -0.67162766171896D+03

 The electronic state is 1-A.
 Alpha  occ. eigenvalues --  -20.60740 -20.60735 -15.85793 -11.31152 -11.27729
 Alpha  occ. eigenvalues --  -11.27725 -11.27439 -11.26724 -11.26696 -11.22616
 Alpha  occ. eigenvalues --  -11.22553 -11.22440 -11.22331 -11.21823 -11.21802
 Alpha  occ. eigenvalues --   -1.59816  -1.39369  -1.19326  -1.09427  -1.08713
 Alpha  occ. eigenvalues --   -1.04732  -1.04406  -0.96843  -0.95550  -0.87853
 Alpha  occ. eigenvalues --   -0.86134  -0.82386  -0.80490  -0.79289  -0.77437
 Alpha  occ. eigenvalues --   -0.72012  -0.71139  -0.70413  -0.66144  -0.64973
 Alpha  occ. eigenvalues --   -0.64689  -0.62093  -0.61792  -0.60210  -0.58465
 Alpha  occ. eigenvalues --   -0.56133  -0.55204  -0.53503  -0.53279  -0.53048
 Alpha  occ. eigenvalues --   -0.52832  -0.50784  -0.48796  -0.48779  -0.48765
 Alpha  occ. eigenvalues --   -0.47533  -0.46756  -0.46692  -0.44777  -0.44694
 Alpha  occ. eigenvalues --   -0.37283  -0.36329
 Alpha virt. eigenvalues --    0.05099   0.11171   0.16591   0.19165   0.22729
 Alpha virt. eigenvalues --    0.23500   0.24476   0.25429   0.27128   0.28222
 Alpha virt. eigenvalues --    0.29835   0.30526   0.31001   0.31386   0.31634

 Mulliken charges:
               1
     1  C   -0.304069
     2  C   -0.299748
     3  C   -0.476466
     4  H    0.142614
     5  H    0.149426
     6  H    0.154268
     7  H    0.155429
     8  H    0.155647
     9  H    0.154809
    10  H    0.164034
    11  C   -0.298627
    12  C   -0.306115
    13  C   -0.475643
    14  H    0.152095
    15  H    0.154086
    16  H    0.150097
    17  H    0.149329
    18  H    0.157587
    19  H    0.157956
    20  H    0.162880
    21  C   -0.172673
    22  C   -0.219044
    23  C   -0.170885
    24  C    0.158735
    25  C   -0.172708
    26  C   -0.225104
    27  H    0.228260
    28  H    0.223318
    29  H    0.275503
    30  H    0.275802
    31  H    0.232329
    32  N    0.487985
    33  O   -0.460560
    34  O   -0.460545
 Sum of Mulliken charges =  -0.00000

 Dipole moment (field-independent basis, Debye):
    X=             -4.6377    Y=              0.7752    Z=              2.6447  Tot=              5.3948
 Quadrupole moment (field-independent basis, Debye-Ang):
   XX=           -120.0047   YY=            -95.8512   ZZ=            -91.2684
   XY=              3.8170   XZ=             10.3932   YZ=              1.6179

 Normal termination of Gaussian 16 at Thu May  6 17:16:21 2021.
