 Gaussian 16, Revision A.03,
 Gaussian 16:  EM64L-G16RevA.03 25-Dec-2016

 -------------
 #p 6-31g* mp2
 -------------

 ------------------------------------------------------
 Input file generated by CHIRIPA (05-May-2021 14:55:23)
 ------------------------------------------------------
 Symbolic Z-matrix:
 Charge =  0 Multiplicity = 1

                         Standard orientation:
 ---------------------------------------------------------------------
 Center     Atomic      Atomic             Coordinates (Angstroms)
 Number     Number       Type             X           Y           Z
 ---------------------------------------------------------------------
      1          6           0       -0.001760   -2.716285    0.853410
      2          6           0       -0.019449   -2.433546   -0.516359
      3          6           0       -0.878912   -1.457165   -1.028758
      4          6           0       -1.710989   -0.779713   -0.138816
      5          6           0       -1.716558   -1.038702    1.230922
      6          6           0       -0.848877   -2.019189    1.721149
      7          1           0        0.669084   -3.476356    1.242841
      8          1           0        0.637330   -2.973340   -1.192605
      9          1           0       -0.913072   -1.218239   -2.084772
     10          1           0       -2.382891   -0.483962    1.880292
     11          1           0       -0.837284   -2.236667    2.785392
     12          7           0       -2.625213    0.256112   -0.669533
     13          8           0       -3.348461    0.838894    0.135398
     14          8           0       -2.601223    0.465596   -1.880391
     15          6           0        2.403453    0.808582   -0.436226
     16          6           0        3.426539   -0.117735    0.221966
     17          6           0        4.231464   -0.927248   -0.795176
     18          1           0        1.720069    0.209789   -1.053784
     19          1           0        2.924973    1.492330   -1.120258
     20          1           0        2.903405   -0.798614    0.905595
     21          1           0        4.107449    0.483311    0.838181
     22          1           0        4.778878   -0.261878   -1.470618
     23          1           0        3.567992   -1.551087   -1.402820
     24          1           0        4.956808   -1.582644   -0.303046
     25          6           0        1.590949    1.624516    0.567675
     26          6           0        0.567864    2.550833   -0.090517
     27          6           0       -0.237061    3.360346    0.926626
     28          1           0        1.069430    0.940768    1.251708
     29          1           0        2.274333    2.223309    1.185234
     30          1           0       -0.113046    1.949787   -0.706732
     31          1           0        1.090998    3.231712   -0.774146
     32          1           0        0.426410    3.984184    1.534270
     33          1           0       -0.784475    2.694975    1.602068
     34          1           0       -0.962406    4.015742    0.434497
 ---------------------------------------------------------------------

 SCF Done:  E(RHF) =  -669.535722348     A.U. after   15 cycles
 E2 =    -0.2096210945D+01 EUMP2 =    -0.67163193329354D+03

 The electronic state is 1-A.
 Alpha  occ. eigenvalues --  -20.60969 -20.60959 -15.85993 -11.31382 -11.27954
 Alpha  occ. eigenvalues --  -11.27943 -11.27695 -11.26979 -11.26969 -11.21831
 Alpha  occ. eigenvalues --  -11.21502 -11.21369 -11.21274 -11.21205 -11.20578
 Alpha  occ. eigenvalues --   -1.60027  -1.39579  -1.19567  -1.08952  -1.08387
 Alpha  occ. eigenvalues --   -1.04970  -1.03487  -0.95933  -0.95778  -0.86950
 Alpha  occ. eigenvalues --   -0.86358  -0.82611  -0.79569  -0.78177  -0.77653
 Alpha  occ. eigenvalues --   -0.72216  -0.71377  -0.70655  -0.65215  -0.65064
 Alpha  occ. eigenvalues --   -0.64947  -0.62309  -0.60894  -0.59331  -0.57517
 Alpha  occ. eigenvalues --   -0.55457  -0.55275  -0.53222  -0.53048  -0.52615
 Alpha  occ. eigenvalues --   -0.52353  -0.49913  -0.48981  -0.48975  -0.47881
 Alpha  occ. eigenvalues --   -0.46642  -0.45770  -0.45661  -0.44859  -0.43708
 Alpha  occ. eigenvalues --   -0.37503  -0.36486
 Alpha virt. eigenvalues --    0.04832   0.10968   0.16242   0.20494   0.22872
 Alpha virt. eigenvalues --    0.23719   0.25990   0.26710   0.27736   0.27912
 Alpha virt. eigenvalues --    0.28524   0.29867   0.31305   0.32023   0.32226

 Mulliken charges:
               1
     1  C   -0.170663
     2  C   -0.216761
     3  C   -0.172793
     4  C    0.159053
     5  C   -0.172190
     6  C   -0.218684
     7  H    0.227252
     8  H    0.225525
     9  H    0.276946
    10  H    0.276609
    11  H    0.224830
    12  N    0.490082
    13  O   -0.458091
    14  O   -0.459173
    15  C   -0.298500
    16  C   -0.299790
    17  C   -0.474777
    18  H    0.148913
    19  H    0.149654
    20  H    0.147791
    21  H    0.152743
    22  H    0.158354
    23  H    0.147178
    24  H    0.158652
    25  C   -0.300305
    26  C   -0.303900
    27  C   -0.474902
    28  H    0.148995
    29  H    0.148169
    30  H    0.153667
    31  H    0.152615
    32  H    0.151147
    33  H    0.153971
    34  H    0.168386
 Sum of Mulliken charges =  -0.00000

 Dipole moment (field-independent basis, Debye):
    X=              3.0019    Y=             -3.6581    Z=              1.8628  Tot=              5.0855
 Quadrupole moment (field-independent basis, Debye-Ang):
   XX=           -106.0512   YY=            -89.1287   ZZ=            -91.5092
   XY=              4.3360   XZ=             -5.1386   YZ=             -0.6949

 Normal termination of Gaussian 16 at Thu May  6 03:08:02 2021.
