 Gaussian 16, Revision A.03,
 Gaussian 16:  EM64L-G16RevA.03 25-Dec-2016

 -------------
 #p 6-31g* mp2
 -------------

 ------------------------------------------------------
 Input file generated by CHIRIPA (05-May-2021 14:53:11)
 ------------------------------------------------------
 Symbolic Z-matrix:
 Charge =  0 Multiplicity = 1

                         Standard orientation:
 ---------------------------------------------------------------------
 Center     Atomic      Atomic             Coordinates (Angstroms)
 Number     Number       Type             X           Y           Z
 ---------------------------------------------------------------------
      1          6           0        3.163496    1.158460    0.032431
      2          6           0        1.734703    1.527909   -0.367620
      3          6           0        1.272466    2.850313    0.245061
      4          1           0        3.227070    1.098880    1.127581
      5          1           0        3.843418    1.964381   -0.276750
      6          1           0        1.057862    0.720900   -0.059011
      7          1           0        1.674477    1.586428   -1.461953
      8          1           0        1.924102    3.670700   -0.072645
      9          1           0        1.303983    2.800254    1.338268
     10          1           0        0.248494    3.095112   -0.053965
     11          6           0        3.639924   -0.161058   -0.572232
     12          6           0        5.068718   -0.530507   -0.172182
     13          6           0        5.530955   -1.852911   -0.784863
     14          1           0        2.960003   -0.966979   -0.263052
     15          1           0        3.576351   -0.101478   -1.667382
     16          1           0        5.128944   -0.589027    0.922151
     17          1           0        5.745559    0.276502   -0.480791
     18          1           0        5.499438   -1.802852   -1.878070
     19          1           0        4.879319   -2.673298   -0.467156
     20          1           0        6.554926   -2.097711   -0.485837
     21          6           0       -4.509393    0.183234   -1.404252
     22          6           0       -3.900977    1.192250   -0.650436
     23          6           0       -2.873981    0.886420    0.247503
     24          6           0       -2.478561   -0.444990    0.367003
     25          6           0       -3.065161   -1.472619   -0.369998
     26          6           0       -4.090281   -1.143641   -1.261878
     27          1           0       -5.306459    0.429801   -2.099439
     28          1           0       -4.224416    2.223589   -0.758939
     29          1           0       -2.385691    1.647872    0.843474
     30          1           0       -2.721155   -2.491536   -0.240055
     31          1           0       -4.560974   -1.929320   -1.846002
     32          7           0       -1.392319   -0.781012    1.314404
     33          8           0       -1.062177   -1.961730    1.401293
     34          8           0       -0.891631    0.142694    1.952147
 ---------------------------------------------------------------------

 SCF Done:  E(RHF) =  -669.536218506     A.U. after   15 cycles
 E2 =    -0.2091864396D+01 EUMP2 =    -0.67162808290270D+03

 The electronic state is 1-A.
 Alpha  occ. eigenvalues --  -20.60969 -20.60957 -15.85982 -11.31276 -11.27839
 Alpha  occ. eigenvalues --  -11.27830 -11.27574 -11.26842 -11.26832 -11.20968
 Alpha  occ. eigenvalues --  -11.20826 -11.20665 -11.20591 -11.20516 -11.20460
 Alpha  occ. eigenvalues --   -1.60025  -1.39580  -1.19444  -1.08856  -1.07706
 Alpha  occ. eigenvalues --   -1.04836  -1.02856  -0.95703  -0.95321  -0.86348
 Alpha  occ. eigenvalues --   -0.86236  -0.82536  -0.78934  -0.77599  -0.77522
 Alpha  occ. eigenvalues --   -0.72211  -0.71349  -0.70554  -0.65103  -0.64841
 Alpha  occ. eigenvalues --   -0.64305  -0.62186  -0.60221  -0.58715  -0.56951
 Alpha  occ. eigenvalues --   -0.55344  -0.54583  -0.53167  -0.52931  -0.52059
 Alpha  occ. eigenvalues --   -0.51760  -0.49250  -0.48968  -0.48966  -0.47273
 Alpha  occ. eigenvalues --   -0.45997  -0.45213  -0.45046  -0.44660  -0.43119
 Alpha  occ. eigenvalues --   -0.37421  -0.36433
 Alpha virt. eigenvalues --    0.04911   0.11184   0.16392   0.21085   0.23537
 Alpha virt. eigenvalues --    0.24497   0.26947   0.27298   0.27846   0.28169
 Alpha virt. eigenvalues --    0.29077   0.30865   0.31592   0.32009   0.32442

 Mulliken charges:
               1
     1  C   -0.298108
     2  C   -0.301059
     3  C   -0.472526
     4  H    0.155763
     5  H    0.145174
     6  H    0.159739
     7  H    0.144676
     8  H    0.150530
     9  H    0.164925
    10  H    0.147807
    11  C   -0.299831
    12  C   -0.299322
    13  C   -0.475733
    14  H    0.156184
    15  H    0.145370
    16  H    0.154017
    17  H    0.149346
    18  H    0.152755
    19  H    0.157129
    20  H    0.158451
    21  C   -0.170417
    22  C   -0.218744
    23  C   -0.171830
    24  C    0.157763
    25  C   -0.170672
    26  C   -0.218556
    27  H    0.225978
    28  H    0.223922
    29  H    0.277830
    30  H    0.275685
    31  H    0.223776
    32  N    0.487280
    33  O   -0.459082
    34  O   -0.458222
 Sum of Mulliken charges =  -0.00000

 Dipole moment (field-independent basis, Debye):
    X=             -3.9737    Y=              1.0651    Z=             -3.1757  Tot=              5.1971
 Quadrupole moment (field-independent basis, Debye-Ang):
   XX=            -76.8821   YY=            -92.2105   ZZ=            -97.1278
   XY=             -0.3284   XZ=              7.5890   YZ=              2.7878

 Normal termination of Gaussian 16 at Thu May  6 00:52:50 2021.
