 Gaussian 16, Revision A.03,
 Gaussian 16:  EM64L-G16RevA.03 25-Dec-2016

 -------------
 #p 6-31g* mp2
 -------------

 ------------------------------------------------------
 Input file generated by CHIRIPA (05-May-2021 14:55:25)
 ------------------------------------------------------
 Symbolic Z-matrix:
 Charge =  0 Multiplicity = 1

                         Standard orientation:
 ---------------------------------------------------------------------
 Center     Atomic      Atomic             Coordinates (Angstroms)
 Number     Number       Type             X           Y           Z
 ---------------------------------------------------------------------
      1          6           0        3.688259   -1.709896    0.758111
      2          6           0        2.851370   -1.702917   -0.362642
      3          6           0        2.267248   -0.512325   -0.805181
      4          6           0        2.542863    0.658203   -0.100064
      5          6           0        3.372341    0.683622    1.020029
      6          6           0        3.945620   -0.518704    1.444660
      7          1           0        4.137808   -2.639334    1.094931
      8          1           0        2.649724   -2.626506   -0.897775
      9          1           0        1.615531   -0.478358   -1.669779
     10          1           0        3.554640    1.620173    1.532921
     11          1           0        4.595159   -0.521130    2.315372
     12          7           0        1.930218    1.924840   -0.559081
     13          8           0        2.188833    2.942677    0.079483
     14          8           0        1.203014    1.875810   -1.548730
     15          6           0       -2.689740   -0.710313   -0.256945
     16          6           0       -2.261788   -2.174138   -0.147126
     17          6           0       -0.870476   -2.428452   -0.727961
     18          1           0       -2.670704   -0.407580   -1.312850
     19          1           0       -1.953974   -0.080521    0.262096
     20          1           0       -2.998875   -2.801107   -0.665034
     21          1           0       -2.282030   -2.473478    0.908621
     22          1           0       -0.119166   -1.827450   -0.205534
     23          1           0       -0.840084   -2.156941   -1.788130
     24          1           0       -0.584579   -3.481169   -0.639024
     25          6           0       -4.078474   -0.440267    0.319440
     26          6           0       -4.506427    1.023558    0.209622
     27          6           0       -5.897739    1.277871    0.790457
     28          1           0       -4.814241   -1.070059   -0.199600
     29          1           0       -4.097511   -0.743000    1.375345
     30          1           0       -4.486184    1.322897   -0.846126
     31          1           0       -3.769339    1.650526    0.727531
     32          1           0       -5.928131    1.006360    1.850626
     33          1           0       -6.649049    0.676869    0.268029
     34          1           0       -6.183635    2.330589    0.701519
 ---------------------------------------------------------------------

 SCF Done:  E(RHF) =  -669.534570047     A.U. after   15 cycles
 E2 =    -0.2092621539D+01 EUMP2 =    -0.67162719158658D+03

 The electronic state is 1-A.
 Alpha  occ. eigenvalues --  -20.60775 -20.60768 -15.85827 -11.31185 -11.27759
 Alpha  occ. eigenvalues --  -11.27718 -11.27496 -11.26772 -11.26735 -11.21681
 Alpha  occ. eigenvalues --  -11.21349 -11.21267 -11.21214 -11.21151 -11.20789
 Alpha  occ. eigenvalues --   -1.59849  -1.39402  -1.19372  -1.08760  -1.08289
 Alpha  occ. eigenvalues --   -1.04779  -1.03449  -0.95937  -0.95589  -0.86969
 Alpha  occ. eigenvalues --   -0.86159  -0.82426  -0.79535  -0.78064  -0.77456
 Alpha  occ. eigenvalues --   -0.72043  -0.71176  -0.70470  -0.65024  -0.64914
 Alpha  occ. eigenvalues --   -0.64760  -0.62122  -0.60856  -0.59308  -0.57527
 Alpha  occ. eigenvalues --   -0.55276  -0.55256  -0.53225  -0.52879  -0.52610
 Alpha  occ. eigenvalues --   -0.52238  -0.49859  -0.48802  -0.48798  -0.47830
 Alpha  occ. eigenvalues --   -0.46534  -0.45618  -0.45517  -0.44798  -0.43690
 Alpha  occ. eigenvalues --   -0.37359  -0.36268
 Alpha virt. eigenvalues --    0.05045   0.11244   0.16484   0.21049   0.23001
 Alpha virt. eigenvalues --    0.24315   0.26121   0.26938   0.27530   0.28154
 Alpha virt. eigenvalues --    0.29216   0.30328   0.31467   0.31956   0.32327

 Mulliken charges:
               1
     1  C   -0.171315
     2  C   -0.217151
     3  C   -0.173256
     4  C    0.157843
     5  C   -0.171455
     6  C   -0.218765
     7  H    0.225692
     8  H    0.226098
     9  H    0.279223
    10  H    0.275484
    11  H    0.223372
    12  N    0.488117
    13  O   -0.460659
    14  O   -0.460070
    15  C   -0.298829
    16  C   -0.298428
    17  C   -0.485747
    18  H    0.153562
    19  H    0.152290
    20  H    0.151805
    21  H    0.151352
    22  H    0.162275
    23  H    0.153059
    24  H    0.154737
    25  C   -0.298623
    26  C   -0.300089
    27  C   -0.475828
    28  H    0.148285
    29  H    0.148073
    30  H    0.154449
    31  H    0.155371
    32  H    0.153901
    33  H    0.153918
    34  H    0.161310
 Sum of Mulliken charges =  -0.00000

 Dipole moment (field-independent basis, Debye):
    X=              2.1668    Y=             -4.3715    Z=              1.6049  Tot=              5.1362
 Quadrupole moment (field-independent basis, Debye-Ang):
   XX=            -84.1733   YY=           -100.3551   ZZ=            -91.9966
   XY=             -8.7244   XZ=              6.7687   YZ=              3.5745

 Normal termination of Gaussian 16 at Thu May  6 14:24:39 2021.
