 Gaussian 16, Revision A.03,
 Gaussian 16:  EM64L-G16RevA.03 25-Dec-2016

 -------------
 #p 6-31g* mp2
 -------------

 ------------------------------------------------------
 Input file generated by CHIRIPA (05-May-2021 14:53:16)
 ------------------------------------------------------
 Symbolic Z-matrix:
 Charge =  0 Multiplicity = 1

                         Standard orientation:
 ---------------------------------------------------------------------
 Center     Atomic      Atomic             Coordinates (Angstroms)
 Number     Number       Type             X           Y           Z
 ---------------------------------------------------------------------
      1          6           0        4.091978    0.105767    0.599764
      2          6           0        2.713199   -0.199620    0.013511
      3          6           0        1.573412    0.145880    0.972318
      4          1           0        4.216998   -0.453681    1.536958
      5          1           0        4.143076    1.171438    0.862685
      6          1           0        2.665198   -1.264107   -0.249507
      7          1           0        2.591522    0.360472   -0.922496
      8          1           0        1.592914    1.210680    1.226133
      9          1           0        1.667009   -0.423130    1.902946
     10          1           0        0.596804   -0.080358    0.533100
     11          6           0        5.241677   -0.234278   -0.346961
     12          6           0        6.620456    0.071108    0.239292
     13          6           0        7.760243   -0.274391   -0.719516
     14          1           0        5.190580   -1.299950   -0.609883
     15          1           0        5.116657    0.325170   -1.284156
     16          1           0        6.742134   -0.488984    1.175298
     17          1           0        6.668458    1.135596    0.502309
     18          1           0        7.666646    0.294619   -1.650143
     19          1           0        7.740741   -1.339191   -0.973331
     20          1           0        8.736851   -0.048153   -0.280297
     21          6           0       -2.953363    2.475414   -0.166368
     22          6           0       -4.309197    2.135883   -0.112019
     23          6           0       -4.704485    0.795411   -0.074200
     24          6           0       -3.712917   -0.184261   -0.092214
     25          6           0       -2.354061    0.122169   -0.146085
     26          6           0       -1.981835    1.469247   -0.183199
     27          1           0       -2.655251    3.519290   -0.195472
     28          1           0       -5.065882    2.915177   -0.098832
     29          1           0       -5.747064    0.504452   -0.031878
     30          1           0       -1.622770   -0.676887   -0.158016
     31          1           0       -0.928136    1.729985   -0.225383
     32          7           0       -4.119183   -1.606855   -0.052551
     33          8           0       -3.226183   -2.451190   -0.069445
     34          8           0       -5.322922   -1.850613   -0.005318
 ---------------------------------------------------------------------

 SCF Done:  E(RHF) =  -669.534845599     A.U. after   15 cycles
 E2 =    -0.2091667012D+01 EUMP2 =    -0.67162651261164D+03

 The electronic state is 1-A.
 Alpha  occ. eigenvalues --  -20.60727 -20.60722 -15.85778 -11.31134 -11.27698
 Alpha  occ. eigenvalues --  -11.27684 -11.27432 -11.26719 -11.26658 -11.22243
 Alpha  occ. eigenvalues --  -11.21990 -11.21894 -11.21871 -11.21729 -11.21300
 Alpha  occ. eigenvalues --   -1.59801  -1.39355  -1.19301  -1.08892  -1.08697
 Alpha  occ. eigenvalues --   -1.04713  -1.04032  -0.96507  -0.95538  -0.87531
 Alpha  occ. eigenvalues --   -0.86101  -0.82377  -0.80099  -0.78668  -0.77424
 Alpha  occ. eigenvalues --   -0.71998  -0.71123  -0.70429  -0.65521  -0.64964
 Alpha  occ. eigenvalues --   -0.64710  -0.62208  -0.61413  -0.59823  -0.58083
 Alpha  occ. eigenvalues --   -0.55783  -0.55211  -0.53248  -0.52997  -0.52913
 Alpha  occ. eigenvalues --   -0.52781  -0.50416  -0.48754  -0.48753  -0.48409
 Alpha  occ. eigenvalues --   -0.47109  -0.46219  -0.46121  -0.44763  -0.44281
 Alpha  occ. eigenvalues --   -0.37282  -0.36295
 Alpha virt. eigenvalues --    0.05105   0.11346   0.16582   0.20080   0.22678
 Alpha virt. eigenvalues --    0.23846   0.26066   0.26189   0.26904   0.27484
 Alpha virt. eigenvalues --    0.28977   0.30519   0.31202   0.31431   0.31659

 Mulliken charges:
               1
     1  C   -0.299186
     2  C   -0.300188
     3  C   -0.482185
     4  H    0.152162
     5  H    0.148745
     6  H    0.157531
     7  H    0.150037
     8  H    0.152704
     9  H    0.163954
    10  H    0.153896
    11  C   -0.298778
    12  C   -0.300021
    13  C   -0.475994
    14  H    0.151673
    15  H    0.149496
    16  H    0.153005
    17  H    0.151575
    18  H    0.155190
    19  H    0.156305
    20  H    0.161129
    21  C   -0.171544
    22  C   -0.218471
    23  C   -0.171244
    24  C    0.160091
    25  C   -0.177570
    26  C   -0.220130
    27  H    0.225335
    28  H    0.223190
    29  H    0.275352
    30  H    0.278225
    31  H    0.228433
    32  N    0.488730
    33  O   -0.460883
    34  O   -0.460567
 Sum of Mulliken charges =  -0.00000

 Dipole moment (field-independent basis, Debye):
    X=              1.6260    Y=              4.9695    Z=             -0.0990  Tot=              5.2297
 Quadrupole moment (field-independent basis, Debye-Ang):
   XX=           -101.0147   YY=            -95.9375   ZZ=            -95.7543
   XY=            -20.6347   XZ=              0.8588   YZ=             -0.9319

 Normal termination of Gaussian 16 at Wed May  5 18:42:31 2021.
