 Gaussian 16, Revision A.03,
 Gaussian 16:  EM64L-G16RevA.03 25-Dec-2016

 -------------
 #p 6-31g* mp2
 -------------

 ------------------------------------------------------
 Input file generated by CHIRIPA (05-May-2021 14:55:19)
 ------------------------------------------------------
 Symbolic Z-matrix:
 Charge =  0 Multiplicity = 1

                         Standard orientation:
 ---------------------------------------------------------------------
 Center     Atomic      Atomic             Coordinates (Angstroms)
 Number     Number       Type             X           Y           Z
 ---------------------------------------------------------------------
      1          6           0       -1.552309    1.608253    0.975921
      2          6           0       -2.088957    0.660910    1.854029
      3          6           0       -3.036411   -0.264931    1.407152
      4          6           0       -3.426335   -0.214688    0.069720
      5          6           0       -2.910063    0.717048   -0.829513
      6          6           0       -1.963849    1.633254   -0.360690
      7          1           0       -0.816786    2.323726    1.331590
      8          1           0       -1.771210    0.639151    2.892589
      9          1           0       -3.468105   -1.009029    2.065465
     10          1           0       -3.246401    0.714051   -1.859214
     11          1           0       -1.548783    2.367851   -1.044892
     12          7           0       -4.428705   -1.189735   -0.414985
     13          8           0       -4.755689   -1.124628   -1.597981
     14          8           0       -4.868400   -2.000620    0.397278
     15          6           0        4.559677   -0.559600   -0.390507
     16          6           0        5.786102   -0.821353    0.484337
     17          6           0        6.546758   -2.082579    0.073843
     18          1           0        3.888256   -1.427621   -0.338748
     19          1           0        4.877531   -0.472365   -1.438722
     20          1           0        5.466200   -0.906692    1.530759
     21          1           0        6.454590    0.047471    0.430641
     22          1           0        6.893801   -2.003329   -0.961474
     23          1           0        5.899795   -2.962915    0.144893
     24          1           0        7.419656   -2.250633    0.712332
     25          6           0        3.788823    0.697812    0.007518
     26          6           0        2.562397    0.959565   -0.867326
     27          6           0        1.801741    2.220791   -0.456832
     28          1           0        3.470967    0.610577    1.055732
     29          1           0        4.460243    1.565834   -0.044240
     30          1           0        1.893909    0.090740   -0.813630
     31          1           0        2.882299    1.044904   -1.913747
     32          1           0        2.448704    3.101127   -0.527883
     33          1           0        1.454698    2.141541    0.578485
     34          1           0        0.928843    2.388845   -1.095321
 ---------------------------------------------------------------------

 SCF Done:  E(RHF) =  -669.534400415     A.U. after   15 cycles
 E2 =    -0.2092153338D+01 EUMP2 =    -0.67162655375294D+03

 The electronic state is 1-A.
 Alpha  occ. eigenvalues --  -20.60744 -20.60738 -15.85798 -11.31154 -11.27735
 Alpha  occ. eigenvalues --  -11.27726 -11.27425 -11.26734 -11.26714 -11.22336
 Alpha  occ. eigenvalues --  -11.22164 -11.22000 -11.21986 -11.21824 -11.21370
 Alpha  occ. eigenvalues --   -1.59820  -1.39374  -1.19332  -1.09001  -1.08721
 Alpha  occ. eigenvalues --   -1.04739  -1.04138  -0.96632  -0.95553  -0.87660
 Alpha  occ. eigenvalues --   -0.86128  -0.82397  -0.80215  -0.78773  -0.77446
 Alpha  occ. eigenvalues --   -0.72016  -0.71144  -0.70456  -0.65625  -0.64983
 Alpha  occ. eigenvalues --   -0.64775  -0.62124  -0.61534  -0.59990  -0.58214
 Alpha  occ. eigenvalues --   -0.56049  -0.55134  -0.53439  -0.53054  -0.53005
 Alpha  occ. eigenvalues --   -0.52723  -0.50524  -0.48784  -0.48771  -0.48504
 Alpha  occ. eigenvalues --   -0.47210  -0.46325  -0.46223  -0.44782  -0.44387
 Alpha  occ. eigenvalues --   -0.37270  -0.36338
 Alpha virt. eigenvalues --    0.05077   0.11230   0.16494   0.20366   0.22529
 Alpha virt. eigenvalues --    0.24034   0.25448   0.26068   0.26505   0.27416
 Alpha virt. eigenvalues --    0.29098   0.29333   0.31253   0.31700   0.32194

 Mulliken charges:
               1
     1  C   -0.168877
     2  C   -0.220398
     3  C   -0.170781
     4  C    0.158272
     5  C   -0.171792
     6  C   -0.219378
     7  H    0.228733
     8  H    0.222962
     9  H    0.275388
    10  H    0.275469
    11  H    0.224349
    12  N    0.488090
    13  O   -0.460542
    14  O   -0.460638
    15  C   -0.299026
    16  C   -0.299966
    17  C   -0.476079
    18  H    0.151456
    19  H    0.150862
    20  H    0.151639
    21  H    0.152158
    22  H    0.155969
    23  H    0.156241
    24  H    0.161188
    25  C   -0.298877
    26  C   -0.300001
    27  C   -0.477502
    28  H    0.148211
    29  H    0.150341
    30  H    0.156702
    31  H    0.154746
    32  H    0.158166
    33  H    0.148153
    34  H    0.154762
 Sum of Mulliken charges =  -0.00000

 Dipole moment (field-independent basis, Debye):
    X=              3.6935    Y=              3.3784    Z=              1.6765  Tot=              5.2789
 Quadrupole moment (field-independent basis, Debye-Ang):
   XX=           -119.4648   YY=            -96.6505   ZZ=            -90.0725
   XY=            -11.7412   XZ=             -6.2794   YZ=             -2.7625

 Normal termination of Gaussian 16 at Thu May  6 17:24:26 2021.
