 Gaussian 16, Revision A.03,
 Gaussian 16:  EM64L-G16RevA.03 25-Dec-2016

 -------------
 #p 6-31g* mp2
 -------------

 ------------------------------------------------------
 Input file generated by CHIRIPA (05-May-2021 14:57:26)
 ------------------------------------------------------
 Symbolic Z-matrix:
 Charge =  0 Multiplicity = 1

                         Standard orientation:
 ---------------------------------------------------------------------
 Center     Atomic      Atomic             Coordinates (Angstroms)
 Number     Number       Type             X           Y           Z
 ---------------------------------------------------------------------
      1          6           0       -3.146875    2.362550    0.605542
      2          6           0       -2.506818    1.702121   -0.448347
      3          6           0       -2.854872    0.389156   -0.779300
      4          6           0       -3.851815   -0.236085   -0.031991
      5          6           0       -4.507879    0.395260    1.023600
      6          6           0       -4.143605    1.708165    1.336863
      7          1           0       -2.870198    3.382469    0.855763
      8          1           0       -1.732386    2.207852   -1.018028
      9          1           0       -2.375562   -0.145646   -1.590265
     10          1           0       -5.276095   -0.134936    1.573286
     11          1           0       -4.642380    2.218597    2.155843
     12          7           0       -4.228869   -1.626030   -0.372992
     13          8           0       -5.110365   -2.154868    0.300754
     14          8           0       -3.635770   -2.160313   -1.307557
     15          6           0        1.708313    1.248861   -0.725398
     16          6           0        1.606265   -0.031090   -0.170572
     17          6           0        2.752781   -0.728453    0.221516
     18          6           0        3.990889   -0.113053    0.043578
     19          6           0        4.125243    1.160908   -0.506203
     20          6           0        2.965261    1.839734   -0.891151
     21          1           0        0.812442    1.783389   -1.027209
     22          1           0        0.631419   -0.492438   -0.040663
     23          1           0        2.702616   -1.720482    0.653697
     24          1           0        5.110878    1.594785   -0.623234
     25          1           0        3.047536    2.833642   -1.321759
     26          7           0        5.211783   -0.841507    0.454885
     27          8           0        6.290857   -0.277371    0.287594
     28          8           0        5.066527   -1.962813    0.936770
 ---------------------------------------------------------------------

 SCF Done:  E(RHF) =  -868.336825662     A.U. after   16 cycles
 E2 =    -0.2600091792D+01 EUMP2 =    -0.87093691745425D+03

 The electronic state is 1-A.
 Alpha  occ. eigenvalues --  -20.61523 -20.61508 -20.60966 -20.60957 -15.86581
 Alpha  occ. eigenvalues --  -15.86020 -11.32110 -11.31489 -11.28782 -11.28651
 Alpha  occ. eigenvalues --  -11.28463 -11.28068 -11.28026 -11.27948 -11.27879
 Alpha  occ. eigenvalues --  -11.27664 -11.27165 -11.27100  -1.60593  -1.60037
 Alpha  occ. eigenvalues --   -1.40142  -1.39587  -1.20307  -1.19678  -1.09661
 Alpha  occ. eigenvalues --   -1.09082  -1.05749  -1.05083  -0.96465  -0.95898
 Alpha  occ. eigenvalues --   -0.87130  -0.86492  -0.83309  -0.82712  -0.78336
 Alpha  occ. eigenvalues --   -0.77716  -0.72790  -0.72238  -0.71924  -0.71386
 Alpha  occ. eigenvalues --   -0.71360  -0.70884  -0.65958  -0.65765  -0.65339
 Alpha  occ. eigenvalues --   -0.65096  -0.63093  -0.62414  -0.56221  -0.55707
 Alpha  occ. eigenvalues --   -0.54047  -0.53811  -0.53420  -0.53174  -0.49564
 Alpha  occ. eigenvalues --   -0.49538  -0.49006  -0.48984  -0.45512  -0.44969
 Alpha  occ. eigenvalues --   -0.38271  -0.37710  -0.37356  -0.36673
 Alpha virt. eigenvalues --    0.04195   0.04800   0.10225   0.10971   0.15522
 Alpha virt. eigenvalues --    0.16258   0.18222   0.21994   0.24657   0.26239
 Alpha virt. eigenvalues --    0.27723   0.28801   0.29756   0.31334   0.32431

 Mulliken charges:
               1
     1  C   -0.169624
     2  C   -0.222773
     3  C   -0.176628
     4  C    0.159258
     5  C   -0.169030
     6  C   -0.217900
     7  H    0.228097
     8  H    0.218244
     9  H    0.275473
    10  H    0.279114
    11  H    0.227420
    12  N    0.487909
    13  O   -0.456824
    14  O   -0.459886
    15  C   -0.172228
    16  C   -0.220502
    17  C   -0.170183
    18  C    0.159202
    19  C   -0.170610
    20  C   -0.219006
    21  H    0.216399
    22  H    0.226612
    23  H    0.278794
    24  H    0.276467
    25  H    0.222651
    26  N    0.487859
    27  O   -0.459954
    28  O   -0.458351
 Sum of Mulliken charges =  -0.00000

 Dipole moment (field-independent basis, Debye):
    X=             -3.1494    Y=              7.3494    Z=             -0.0732  Tot=              7.9961
 Quadrupole moment (field-independent basis, Debye-Ang):
   XX=           -144.6796   YY=           -105.5508   ZZ=           -102.9681
   XY=             -6.2640   XZ=            -14.9153   YZ=             -1.2690

 Normal termination of Gaussian 16 at Wed May  5 22:50:04 2021.
