 Gaussian 16, Revision A.03,
 Gaussian 16:  EM64L-G16RevA.03 25-Dec-2016

 -------------
 #p 6-31g* mp2
 -------------

 ------------------------------------------------------
 Input file generated by CHIRIPA (05-May-2021 14:51:09)
 ------------------------------------------------------
 Symbolic Z-matrix:
 Charge =  0 Multiplicity = 1

                         Standard orientation:
 ---------------------------------------------------------------------
 Center     Atomic      Atomic             Coordinates (Angstroms)
 Number     Number       Type             X           Y           Z
 ---------------------------------------------------------------------
      1          6           0       -4.966584   -0.027271    0.131254
      2          6           0       -5.681721   -1.361547   -0.083852
      3          6           0       -7.136901   -1.334588    0.384674
      4          1           0       -5.005181    0.234443    1.197538
      5          1           0       -5.510655    0.762931   -0.404435
      6          1           0       -5.135682   -2.149232    0.450948
      7          1           0       -5.641250   -1.620208   -1.149719
      8          1           0       -7.701886   -0.569069   -0.156965
      9          1           0       -7.193445   -1.101098    1.452797
     10          1           0       -7.629096   -2.298437    0.221579
     11          6           0       -3.510971   -0.038478   -0.332203
     12          6           0       -2.795835    1.295799   -0.117097
     13          6           0       -1.340654    1.268840   -0.585623
     14          1           0       -2.966900   -0.828680    0.203486
     15          1           0       -3.472374   -0.300191   -1.398487
     16          1           0       -2.836305    1.554460    0.948770
     17          1           0       -3.341873    2.083483   -0.651897
     18          1           0       -1.284110    1.035349   -1.653746
     19          1           0       -0.775670    0.503320   -0.043984
     20          1           0       -0.848459    2.232689   -0.422528
     21          6           0        4.818880   -0.360451   -0.203185
     22          6           0        4.952174   -1.775895    0.359607
     23          6           0        6.117169   -2.550213   -0.257659
     24          1           0        4.687456   -0.416682   -1.292456
     25          1           0        5.756415    0.185594   -0.029241
     26          1           0        4.014178   -2.318664    0.185884
     27          1           0        5.083104   -1.716297    1.447688
     28          1           0        7.064400   -2.033476   -0.072357
     29          1           0        5.989400   -2.639265   -1.341331
     30          1           0        6.194069   -3.559363    0.158949
     31          6           0        3.658676    0.426200    0.404135
     32          6           0        3.525380    1.841644   -0.158658
     33          6           0        2.360387    2.615961    0.458608
     34          1           0        2.721141   -0.119846    0.230189
     35          1           0        3.790099    0.482431    1.493406
     36          1           0        3.394451    1.782045   -1.246739
     37          1           0        4.463378    2.384412    0.015065
     38          1           0        2.488156    2.705014    1.542281
     39          1           0        1.413156    2.099224    0.273307
     40          1           0        2.283486    3.625112    0.042001
 ---------------------------------------------------------------------

 SCF Done:  E(RHF) =  -470.732983658     A.U. after   11 cycles
 E2 =    -0.1582502291D+01 EUMP2 =    -0.47231548594897D+03

 The electronic state is 1-A.
 Alpha  occ. eigenvalues --  -11.21631 -11.21615 -11.21575 -11.21520 -11.21426
 Alpha  occ. eigenvalues --  -11.21366 -11.21360 -11.21299 -11.21113 -11.21081
 Alpha  occ. eigenvalues --  -11.21050 -11.20907  -1.08454  -1.08377  -1.03565
 Alpha  occ. eigenvalues --   -1.03463  -0.96039  -0.95896  -0.87085  -0.86891
 Alpha  occ. eigenvalues --   -0.79667  -0.79496  -0.78267  -0.78189  -0.65088
 Alpha  occ. eigenvalues --   -0.65005  -0.60998  -0.60854  -0.59395  -0.59288
 Alpha  occ. eigenvalues --   -0.57644  -0.57512  -0.55370  -0.55161  -0.52831
 Alpha  occ. eigenvalues --   -0.52602  -0.52433  -0.52243  -0.50017  -0.49764
 Alpha  occ. eigenvalues --   -0.47939  -0.47844  -0.46700  -0.46514  -0.45817
 Alpha  occ. eigenvalues --   -0.45753  -0.45714  -0.45635  -0.43770  -0.43718
 Alpha virt. eigenvalues --    0.22192   0.22976   0.23684   0.24743   0.26119
 Alpha virt. eigenvalues --    0.26725   0.27186   0.27344   0.27776   0.28978
 Alpha virt. eigenvalues --    0.30746   0.30932   0.31595   0.31802   0.32053

 Mulliken charges:
               1
     1  C   -0.298337
     2  C   -0.299650
     3  C   -0.475718
     4  H    0.149781
     5  H    0.149593
     6  H    0.151947
     7  H    0.151919
     8  H    0.155209
     9  H    0.155235
    10  H    0.160290
    11  C   -0.298700
    12  C   -0.299442
    13  C   -0.480581
    14  H    0.149579
    15  H    0.149583
    16  H    0.152532
    17  H    0.152148
    18  H    0.155292
    19  H    0.155105
    20  H    0.165335
    21  C   -0.298249
    22  C   -0.299615
    23  C   -0.475671
    24  H    0.149674
    25  H    0.149466
    26  H    0.151809
    27  H    0.151803
    28  H    0.155147
    29  H    0.155170
    30  H    0.160114
    31  C   -0.298623
    32  C   -0.298770
    33  C   -0.485033
    34  H    0.149602
    35  H    0.149346
    36  H    0.151804
    37  H    0.151337
    38  H    0.154106
    39  H    0.166655
    40  H    0.158808
 Sum of Mulliken charges =  -0.00000

 Dipole moment (field-independent basis, Debye):
    X=             -0.0551    Y=             -0.0004    Z=             -0.0098  Tot=              0.0560
 Quadrupole moment (field-independent basis, Debye-Ang):
   XX=            -86.2451   YY=            -85.1470   ZZ=            -83.5771
   XY=              0.4249   XZ=              1.3026   YZ=             -0.2616

 Normal termination of Gaussian 16 at Thu May  6 05:18:25 2021.
