 Gaussian 16, Revision A.03,
 Gaussian 16:  EM64L-G16RevA.03 25-Dec-2016

 -------------
 #p 6-31g* mp2
 -------------

 ------------------------------------------------------
 Input file generated by CHIRIPA (05-May-2021 14:55:25)
 ------------------------------------------------------
 Symbolic Z-matrix:
 Charge =  0 Multiplicity = 1

                         Standard orientation:
 ---------------------------------------------------------------------
 Center     Atomic      Atomic             Coordinates (Angstroms)
 Number     Number       Type             X           Y           Z
 ---------------------------------------------------------------------
      1          6           0       -0.849440   -0.321480    1.590359
      2          6           0       -1.772157   -1.372285    1.620745
      3          6           0       -2.926874   -1.326189    0.833946
      4          6           0       -3.128129   -0.209078    0.024718
      5          6           0       -2.227511    0.853680   -0.027434
      6          6           0       -1.079656    0.786196    0.767816
      7          1           0        0.044906   -0.365595    2.204845
      8          1           0       -1.595969   -2.233770    2.258590
      9          1           0       -3.657717   -2.125732    0.838165
     10          1           0       -2.430543    1.699288   -0.673300
     11          1           0       -0.364792    1.603728    0.742195
     12          7           0       -4.346944   -0.148958   -0.812704
     13          8           0       -4.501118    0.846331   -1.517166
     14          8           0       -5.124999   -1.098262   -0.748756
     15          6           0        3.463494    0.942758   -0.461826
     16          6           0        2.780843    1.767635    0.629757
     17          6           0        2.218982    3.090105    0.107094
     18          1           0        4.273276    1.535894   -0.908356
     19          1           0        2.741980    0.743304   -1.266209
     20          1           0        3.503039    1.964296    1.432485
     21          1           0        1.972716    1.172397    1.073871
     22          1           0        1.478439    2.910222   -0.678934
     23          1           0        3.017457    3.706621   -0.318283
     24          1           0        1.735410    3.663740    0.903938
     25          6           0        4.030277   -0.382152    0.045222
     26          6           0        4.712927   -1.207028   -1.046361
     27          6           0        5.274788   -2.529498   -0.523697
     28          1           0        4.751791   -0.182697    0.849605
     29          1           0        3.220495   -0.975286    0.491752
     30          1           0        5.521055   -0.611789   -1.490475
     31          1           0        3.990731   -1.403689   -1.849089
     32          1           0        4.476313   -3.146015   -0.098321
     33          1           0        6.015331   -2.349615    0.262331
     34          1           0        5.758361   -3.103132   -1.320542
 ---------------------------------------------------------------------

 SCF Done:  E(RHF) =  -669.535085180     A.U. after   15 cycles
 E2 =    -0.2092352205D+01 EUMP2 =    -0.67162743738569D+03

 The electronic state is 1-A.
 Alpha  occ. eigenvalues --  -20.60752 -20.60747 -15.85804 -11.31170 -11.27737
 Alpha  occ. eigenvalues --  -11.27721 -11.27469 -11.26757 -11.26683 -11.22777
 Alpha  occ. eigenvalues --  -11.22248 -11.22224 -11.22199 -11.22132 -11.21592
 Alpha  occ. eigenvalues --   -1.59827  -1.39380  -1.19338  -1.09291  -1.08734
 Alpha  occ. eigenvalues --   -1.04748  -1.04391  -0.96829  -0.95572  -0.87843
 Alpha  occ. eigenvalues --   -0.86144  -0.82400  -0.80480  -0.79068  -0.77452
 Alpha  occ. eigenvalues --   -0.72024  -0.71150  -0.70461  -0.66035  -0.64987
 Alpha  occ. eigenvalues --   -0.64727  -0.62289  -0.61549  -0.60207  -0.58423
 Alpha  occ. eigenvalues --   -0.56123  -0.55235  -0.53531  -0.53243  -0.53067
 Alpha  occ. eigenvalues --   -0.52786  -0.50778  -0.48810  -0.48778  -0.48743
 Alpha  occ. eigenvalues --   -0.47523  -0.46612  -0.46501  -0.44786  -0.44626
 Alpha  occ. eigenvalues --   -0.37317  -0.36338
 Alpha virt. eigenvalues --    0.05070   0.11238   0.16528   0.19341   0.22737
 Alpha virt. eigenvalues --    0.23353   0.24738   0.25942   0.26671   0.28660
 Alpha virt. eigenvalues --    0.29187   0.30750   0.30825   0.31315   0.32034

 Mulliken charges:
               1
     1  C   -0.174897
     2  C   -0.218454
     3  C   -0.171269
     4  C    0.158791
     5  C   -0.173286
     6  C   -0.225471
     7  H    0.226933
     8  H    0.223324
     9  H    0.275496
    10  H    0.275709
    11  H    0.236353
    12  N    0.488045
    13  O   -0.460391
    14  O   -0.460506
    15  C   -0.298380
    16  C   -0.304581
    17  C   -0.483114
    18  H    0.153503
    19  H    0.152746
    20  H    0.156546
    21  H    0.142205
    22  H    0.154136
    23  H    0.164272
    24  H    0.160048
    25  C   -0.298269
    26  C   -0.300523
    27  C   -0.476079
    28  H    0.150385
    29  H    0.145807
    30  H    0.153751
    31  H    0.154292
    32  H    0.154519
    33  H    0.155535
    34  H    0.162822
 Sum of Mulliken charges =  -0.00000

 Dipole moment (field-independent basis, Debye):
    X=              4.5160    Y=             -0.1824    Z=              2.8590  Tot=              5.3480
 Quadrupole moment (field-independent basis, Debye-Ang):
   XX=           -120.5016   YY=            -91.3117   ZZ=            -94.6903
   XY=              2.2916   XZ=             -9.9413   YZ=             -2.2112

 Normal termination of Gaussian 16 at Wed May  5 16:10:05 2021.
