 Gaussian 16, Revision A.03,
 Gaussian 16:  EM64L-G16RevA.03 25-Dec-2016

 -------------
 #p 6-31g* mp2
 -------------

 ------------------------------------------------------
 Input file generated by CHIRIPA (05-May-2021 14:55:25)
 ------------------------------------------------------
 Symbolic Z-matrix:
 Charge =  0 Multiplicity = 1

                         Standard orientation:
 ---------------------------------------------------------------------
 Center     Atomic      Atomic             Coordinates (Angstroms)
 Number     Number       Type             X           Y           Z
 ---------------------------------------------------------------------
      1          6           0       -5.550208    0.320772   -0.058533
      2          6           0       -4.725420    0.920145    0.899067
      3          6           0       -3.379687    0.556320    1.004803
      4          6           0       -2.889632   -0.414735    0.132915
      5          6           0       -3.686116   -1.030131   -0.831549
      6          6           0       -5.028843   -0.650741   -0.919267
      7          1           0       -6.594439    0.609445   -0.133673
      8          1           0       -5.127601    1.674922    1.568848
      9          1           0       -2.718863    1.004252    1.736983
     10          1           0       -3.256555   -1.779496   -1.485267
     11          1           0       -5.667047   -1.117907   -1.663912
     12          7           0       -1.466555   -0.808139    0.235317
     13          8           0       -1.059003   -1.666202   -0.544598
     14          8           0       -0.785647   -0.250978    1.093554
     15          6           0        3.685288    1.113124   -0.354659
     16          6           0        2.156775    1.100584   -0.316223
     17          6           0        1.544006    2.438533   -0.731193
     18          1           0        4.055840    1.908509    0.306399
     19          1           0        4.017495    1.370451   -1.369950
     20          1           0        1.827553    0.842001    0.698352
     21          1           0        1.789823    0.305010   -0.977302
     22          1           0        1.843894    2.699760   -1.751207
     23          1           0        1.881839    3.239801   -0.066032
     24          1           0        0.450533    2.407264   -0.696552
     25          6           0        4.312594   -0.217387    0.057600
     26          6           0        5.841106   -0.204847    0.019165
     27          6           0        6.453876   -1.542796    0.434134
     28          1           0        3.980385   -0.474715    1.072891
     29          1           0        3.942041   -1.012772   -0.603458
     30          1           0        6.208057    0.590726    0.680244
     31          1           0        6.170328    0.053735   -0.995411
     32          1           0        6.116043   -2.344065   -0.231026
     33          1           0        6.153986   -1.804023    1.454149
     34          1           0        7.547347   -1.511527    0.399493
 ---------------------------------------------------------------------

 SCF Done:  E(RHF) =  -669.536103942     A.U. after   15 cycles
 E2 =    -0.2091616441D+01 EUMP2 =    -0.67162772038292D+03

 The electronic state is 1-A.
 Alpha  occ. eigenvalues --  -20.60971 -20.60955 -15.85986 -11.31306 -11.27866
 Alpha  occ. eigenvalues --  -11.27863 -11.27602 -11.26872 -11.26862 -11.20707
 Alpha  occ. eigenvalues --  -11.20289 -11.20238 -11.20153 -11.19979 -11.19893
 Alpha  occ. eigenvalues --   -1.60013  -1.39571  -1.19471  -1.08876  -1.07254
 Alpha  occ. eigenvalues --   -1.04867  -1.02391  -0.95720  -0.94915  -0.86267
 Alpha  occ. eigenvalues --   -0.85939  -0.82556  -0.78446  -0.77607  -0.76999
 Alpha  occ. eigenvalues --   -0.72207  -0.71322  -0.70580  -0.65128  -0.64869
 Alpha  occ. eigenvalues --   -0.63894  -0.62214  -0.59794  -0.58280  -0.56492
 Alpha  occ. eigenvalues --   -0.55369  -0.54230  -0.53198  -0.52958  -0.51645
 Alpha  occ. eigenvalues --   -0.51326  -0.49033  -0.48963  -0.48859  -0.46725
 Alpha  occ. eigenvalues --   -0.45496  -0.45005  -0.44532  -0.44359  -0.42654
 Alpha  occ. eigenvalues --   -0.37448  -0.36467
 Alpha virt. eigenvalues --    0.04904   0.11184   0.16390   0.21313   0.23964
 Alpha virt. eigenvalues --    0.25301   0.27238   0.27820   0.28120   0.28783
 Alpha virt. eigenvalues --    0.28971   0.30865   0.32200   0.32441   0.32905

 Mulliken charges:
               1
     1  C   -0.170557
     2  C   -0.218481
     3  C   -0.170956
     4  C    0.158177
     5  C   -0.170645
     6  C   -0.218547
     7  H    0.226060
     8  H    0.223921
     9  H    0.275798
    10  H    0.275833
    11  H    0.223866
    12  N    0.489421
    13  O   -0.459522
    14  O   -0.459197
    15  C   -0.298861
    16  C   -0.302133
    17  C   -0.474450
    18  H    0.144297
    19  H    0.143844
    20  H    0.171145
    21  H    0.158356
    22  H    0.149123
    23  H    0.149655
    24  H    0.155046
    25  C   -0.297491
    26  C   -0.298770
    27  C   -0.474983
    28  H    0.151979
    29  H    0.152492
    30  H    0.149279
    31  H    0.149386
    32  H    0.155187
    33  H    0.154965
    34  H    0.156763
 Sum of Mulliken charges =  -0.00000

 Dipole moment (field-independent basis, Debye):
    X=             -5.3341    Y=              1.2052    Z=             -0.2590  Tot=              5.4747
 Quadrupole moment (field-independent basis, Debye-Ang):
   XX=            -67.8824   YY=            -95.6014   ZZ=            -91.6141
   XY=             -1.3792   XZ=              1.0331   YZ=              4.0308

 Normal termination of Gaussian 16 at Thu May  6 11:06:12 2021.
