 Gaussian 16, Revision A.03,
 Gaussian 16:  EM64L-G16RevA.03 25-Dec-2016

 -------------
 #p 6-31g* mp2
 -------------

 ------------------------------------------------------
 Input file generated by CHIRIPA (05-May-2021 14:53:16)
 ------------------------------------------------------
 Symbolic Z-matrix:
 Charge =  0 Multiplicity = 1

                         Standard orientation:
 ---------------------------------------------------------------------
 Center     Atomic      Atomic             Coordinates (Angstroms)
 Number     Number       Type             X           Y           Z
 ---------------------------------------------------------------------
      1          6           0        5.012912   -0.018154    0.239290
      2          6           0        6.063711   -0.906982   -0.426888
      3          6           0        7.421028   -0.844795    0.274267
      4          1           0        5.373825    1.019412    0.251282
      5          1           0        4.898532   -0.321460    1.289204
      6          1           0        6.175074   -0.602992   -1.475604
      7          1           0        5.700172   -1.942522   -0.437467
      8          1           0        7.331480   -1.168211    1.316372
      9          1           0        7.809080    0.178930    0.272337
     10          1           0        8.157209   -1.487596   -0.218383
     11          6           0        3.650704   -0.069607   -0.450252
     12          6           0        2.599905    0.819220    0.215927
     13          6           0        1.242589    0.757034   -0.485228
     14          1           0        3.765084    0.233699   -1.500165
     15          1           0        3.289792   -1.107173   -0.462243
     16          1           0        2.963444    1.854761    0.226506
     17          1           0        2.488542    0.515231    1.264642
     18          1           0        0.854536   -0.266691   -0.483299
     19          1           0        1.332137    1.080450   -1.527334
     20          1           0        0.506407    1.399835    0.007421
     21          6           0       -4.627192   -2.151874   -0.121743
     22          6           0       -4.012753   -1.806154    1.086340
     23          6           0       -3.321372   -0.597422    1.210865
     24          6           0       -3.264060    0.245631    0.102143
     25          6           0       -3.865898   -0.070644   -1.114841
     26          6           0       -4.551937   -1.284545   -1.216547
     27          1           0       -5.162199   -3.092854   -0.209614
     28          1           0       -4.069564   -2.477784    1.938239
     29          1           0       -2.836568   -0.304917    2.134351
     30          1           0       -3.792049    0.619422   -1.946570
     31          1           0       -5.028162   -1.550430   -2.155994
     32          7           0       -2.534954    1.527998    0.221894
     33          8           0       -2.498997    2.253378   -0.769654
     34          8           0       -2.013242    1.783455    1.305036
 ---------------------------------------------------------------------

 SCF Done:  E(RHF) =  -669.536258883     A.U. after   15 cycles
 E2 =    -0.2091260596D+01 EUMP2 =    -0.67162751947903D+03

 The electronic state is 1-A.
 Alpha  occ. eigenvalues --  -20.60894 -20.60880 -15.85907 -11.31239 -11.27805
 Alpha  occ. eigenvalues --  -11.27800 -11.27548 -11.26814 -11.26804 -11.21281
 Alpha  occ. eigenvalues --  -11.20960 -11.20876 -11.20816 -11.20804 -11.20091
 Alpha  occ. eigenvalues --   -1.59947  -1.39501  -1.19408  -1.08812  -1.07927
 Alpha  occ. eigenvalues --   -1.04806  -1.02973  -0.95655  -0.95418  -0.86442
 Alpha  occ. eigenvalues --   -0.86206  -0.82490  -0.79061  -0.77732  -0.77542
 Alpha  occ. eigenvalues --   -0.72132  -0.71271  -0.70520  -0.65064  -0.64811
 Alpha  occ. eigenvalues --   -0.64566  -0.62154  -0.60382  -0.58788  -0.57005
 Alpha  occ. eigenvalues --   -0.55314  -0.54726  -0.53142  -0.52900  -0.52069
 Alpha  occ. eigenvalues --   -0.51844  -0.49391  -0.48897  -0.48889  -0.47359
 Alpha  occ. eigenvalues --   -0.46113  -0.45277  -0.45204  -0.44897  -0.43197
 Alpha  occ. eigenvalues --   -0.37385  -0.36407
 Alpha virt. eigenvalues --    0.04947   0.11249   0.16437   0.21376   0.23338
 Alpha virt. eigenvalues --    0.24932   0.27114   0.27293   0.27973   0.28197
 Alpha virt. eigenvalues --    0.28627   0.30902   0.31902   0.32279   0.32484

 Mulliken charges:
               1
     1  C   -0.297796
     2  C   -0.299101
     3  C   -0.475398
     4  H    0.150080
     5  H    0.148547
     6  H    0.151516
     7  H    0.150358
     8  H    0.154554
     9  H    0.155362
    10  H    0.158907
    11  C   -0.297548
    12  C   -0.298237
    13  C   -0.486988
    14  H    0.148630
    15  H    0.146392
    16  H    0.153640
    17  H    0.150778
    18  H    0.145083
    19  H    0.154059
    20  H    0.183047
    21  C   -0.170566
    22  C   -0.218748
    23  C   -0.170711
    24  C    0.159840
    25  C   -0.170533
    26  C   -0.218695
    27  H    0.225784
    28  H    0.223572
    29  H    0.275740
    30  H    0.275902
    31  H    0.223660
    32  N    0.488346
    33  O   -0.458762
    34  O   -0.460715
 Sum of Mulliken charges =  -0.00000

 Dipole moment (field-independent basis, Debye):
    X=             -2.7729    Y=             -4.4142    Z=             -0.3999  Tot=              5.2282
 Quadrupole moment (field-independent basis, Debye-Ang):
   XX=            -80.0065   YY=            -96.6797   ZZ=            -90.2230
   XY=             14.6591   XZ=              1.9204   YZ=             -2.2548

 Normal termination of Gaussian 16 at Thu May  6 10:38:37 2021.
