 Gaussian 16, Revision A.03,
 Gaussian 16:  EM64L-G16RevA.03 25-Dec-2016

 -------------
 #p 6-31g* mp2
 -------------

 ------------------------------------------------------
 Input file generated by CHIRIPA (05-May-2021 14:55:20)
 ------------------------------------------------------
 Symbolic Z-matrix:
 Charge =  0 Multiplicity = 1

                         Standard orientation:
 ---------------------------------------------------------------------
 Center     Atomic      Atomic             Coordinates (Angstroms)
 Number     Number       Type             X           Y           Z
 ---------------------------------------------------------------------
      1          6           0       -3.632403    0.135402   -2.111568
      2          6           0       -4.341283   -0.424234   -1.043478
      3          6           0       -3.729892   -0.596276    0.201974
      4          6           0       -2.402296   -0.195780    0.344739
      5          6           0       -1.669526    0.364861   -0.700258
      6          6           0       -2.301133    0.527473   -1.936857
      7          1           0       -4.115198    0.265386   -3.075627
      8          1           0       -5.375277   -0.729633   -1.176266
      9          1           0       -4.255306   -1.026826    1.045766
     10          1           0       -0.639978    0.659683   -0.537381
     11          1           0       -1.748157    0.962377   -2.764577
     12          7           0       -1.744343   -0.372921    1.658557
     13          8           0       -0.573726   -0.011966    1.758578
     14          8           0       -2.411714   -0.869366    2.563430
     15          6           0        2.989022    0.769048    0.309180
     16          6           0        2.650697    2.076336   -0.408119
     17          6           0        2.202774    3.178695    0.552072
     18          1           0        2.109958    0.430169    0.874294
     19          1           0        3.781064    0.958100    1.046963
     20          1           0        1.860495    1.884593   -1.145297
     21          1           0        3.530607    2.412043   -0.971744
     22          1           0        2.990226    3.398831    1.280124
     23          1           0        1.310624    2.868385    1.105586
     24          1           0        1.965928    4.104305    0.018210
     25          6           0        3.438459   -0.342591   -0.637388
     26          6           0        3.776785   -1.649880    0.079912
     27          6           0        4.224708   -2.752237   -0.880279
     28          1           0        2.646417   -0.531643   -1.375170
     29          1           0        4.317524   -0.003711   -1.202502
     30          1           0        2.896874   -1.985585    0.643537
     31          1           0        4.566986   -1.458136    0.817089
     32          1           0        5.116857   -2.441926   -1.433794
     33          1           0        3.437255   -2.972374   -1.608332
     34          1           0        4.461554   -3.677847   -0.346418
 ---------------------------------------------------------------------

 SCF Done:  E(RHF) =  -669.536252953     A.U. after   15 cycles
 E2 =    -0.2092069245D+01 EUMP2 =    -0.67162832219775D+03

 The electronic state is 1-A.
 Alpha  occ. eigenvalues --  -20.60993 -20.60972 -15.86023 -11.31306 -11.27866
 Alpha  occ. eigenvalues --  -11.27862 -11.27598 -11.26868 -11.26857 -11.21432
 Alpha  occ. eigenvalues --  -11.21146 -11.21031 -11.20761 -11.20726 -11.20706
 Alpha  occ. eigenvalues --   -1.60046  -1.39604  -1.19473  -1.08883  -1.08029
 Alpha  occ. eigenvalues --   -1.04864  -1.03186  -0.95732  -0.95607  -0.86628
 Alpha  occ. eigenvalues --   -0.86267  -0.82571  -0.79246  -0.77840  -0.77602
 Alpha  occ. eigenvalues --   -0.72253  -0.71358  -0.70584  -0.65139  -0.64916
 Alpha  occ. eigenvalues --   -0.64616  -0.62215  -0.60584  -0.58981  -0.57219
 Alpha  occ. eigenvalues --   -0.55370  -0.54887  -0.53198  -0.52954  -0.52341
 Alpha  occ. eigenvalues --   -0.52023  -0.49552  -0.49017  -0.48990  -0.47557
 Alpha  occ. eigenvalues --   -0.46280  -0.45397  -0.45235  -0.44980  -0.43409
 Alpha  occ. eigenvalues --   -0.37451  -0.36464
 Alpha virt. eigenvalues --    0.04887   0.11183   0.16392   0.19262   0.22801
 Alpha virt. eigenvalues --    0.24338   0.26226   0.27324   0.28054   0.28361
 Alpha virt. eigenvalues --    0.29394   0.30974   0.31512   0.32014   0.32217

 Mulliken charges:
               1
     1  C   -0.170325
     2  C   -0.218821
     3  C   -0.170295
     4  C    0.157450
     5  C   -0.175423
     6  C   -0.220042
     7  H    0.226156
     8  H    0.223903
     9  H    0.275788
    10  H    0.282862
    11  H    0.224300
    12  N    0.494469
    13  O   -0.468754
    14  O   -0.458380
    15  C   -0.314305
    16  C   -0.297412
    17  C   -0.479560
    18  H    0.179157
    19  H    0.149770
    20  H    0.136508
    21  H    0.150870
    22  H    0.157176
    23  H    0.165621
    24  H    0.155270
    25  C   -0.295891
    26  C   -0.300946
    27  C   -0.475310
    28  H    0.141171
    29  H    0.146855
    30  H    0.159441
    31  H    0.152467
    32  H    0.153364
    33  H    0.152434
    34  H    0.160433
 Sum of Mulliken charges =  -0.00000

 Dipole moment (field-independent basis, Debye):
    X=             -2.4654    Y=              0.5578    Z=             -4.3987  Tot=              5.0733
 Quadrupole moment (field-independent basis, Debye-Ang):
   XX=            -79.4987   YY=            -96.0256   ZZ=            -98.1155
   XY=              1.4496   XZ=              9.6469   YZ=             -0.1243

 Normal termination of Gaussian 16 at Thu May  6 10:51:57 2021.
