 Gaussian 16, Revision A.03,
 Gaussian 16:  EM64L-G16RevA.03 25-Dec-2016

 -------------
 #p 6-31g* mp2
 -------------

 ------------------------------------------------------
 Input file generated by CHIRIPA (05-May-2021 14:57:25)
 ------------------------------------------------------
 Symbolic Z-matrix:
 Charge =  0 Multiplicity = 1

                         Standard orientation:
 ---------------------------------------------------------------------
 Center     Atomic      Atomic             Coordinates (Angstroms)
 Number     Number       Type             X           Y           Z
 ---------------------------------------------------------------------
      1          6           0       -1.457826    2.196431   -0.273034
      2          6           0       -2.815567    2.526486   -0.208805
      3          6           0       -3.786310    1.524498   -0.118110
      4          6           0       -3.361995    0.196846   -0.093895
      5          6           0       -2.016907   -0.163894   -0.156305
      6          6           0       -1.063525    0.854660   -0.246626
      7          1           0       -0.710473    2.981234   -0.343343
      8          1           0       -3.124697    3.567674   -0.229120
      9          1           0       -4.844189    1.751869   -0.066988
     10          1           0       -1.739414   -1.210755   -0.134010
     11          1           0       -0.009794    0.595385   -0.296361
     12          7           0       -4.380487   -0.872683    0.001922
     13          8           0       -3.980777   -2.034786    0.021529
     14          8           0       -5.559207   -0.528624    0.055602
     15          6           0        1.663038   -2.373178    0.256067
     16          6           0        2.693219   -2.347979   -0.689774
     17          6           0        3.547576   -1.245025   -0.779850
     18          6           0        3.342155   -0.179759    0.095536
     19          6           0        2.324788   -0.175134    1.048548
     20          6           0        1.482430   -1.288587    1.120685
     21          1           0        1.004014   -3.234056    0.319073
     22          1           0        2.835838   -3.188868   -1.362538
     23          1           0        4.353071   -1.199284   -1.502694
     24          1           0        2.207445    0.678054    1.705600
     25          1           0        0.683213   -1.305406    1.856222
     26          7           0        4.240274    0.993446    0.009672
     27          8           0        4.038339    1.919326    0.792363
     28          8           0        5.129148    0.964910   -0.838694
 ---------------------------------------------------------------------

 SCF Done:  E(RHF) =  -868.337350259     A.U. after   16 cycles
 E2 =    -0.2602251463D+01 EUMP2 =    -0.87093960172233D+03

 The electronic state is 1-A.
 Alpha  occ. eigenvalues --  -20.61642 -20.61619 -20.61149 -20.61123 -15.86689
 Alpha  occ. eigenvalues --  -15.86187 -11.32181 -11.31484 -11.28722 -11.28658
 Alpha  occ. eigenvalues --  -11.28390 -11.28049 -11.27991 -11.27721 -11.27667
 Alpha  occ. eigenvalues --  -11.27644 -11.26979 -11.26830  -1.60710  -1.60213
 Alpha  occ. eigenvalues --   -1.40258  -1.39771  -1.20353  -1.19615  -1.09694
 Alpha  occ. eigenvalues --   -1.09008  -1.05766  -1.04987  -0.96510  -0.95867
 Alpha  occ. eigenvalues --   -0.87106  -0.86401  -0.83333  -0.82696  -0.78386
 Alpha  occ. eigenvalues --   -0.77774  -0.72893  -0.72405  -0.72046  -0.71536
 Alpha  occ. eigenvalues --   -0.71362  -0.70700  -0.65968  -0.65687  -0.65241
 Alpha  occ. eigenvalues --   -0.65002  -0.63066  -0.62383  -0.56149  -0.55498
 Alpha  occ. eigenvalues --   -0.54217  -0.53775  -0.53329  -0.52863  -0.49664
 Alpha  occ. eigenvalues --   -0.49649  -0.49173  -0.49145  -0.45636  -0.45193
 Alpha  occ. eigenvalues --   -0.38326  -0.37622  -0.37363  -0.36507
 Alpha virt. eigenvalues --    0.04103   0.04732   0.10147   0.11020   0.15516
 Alpha virt. eigenvalues --    0.16341   0.20154   0.21759   0.25979   0.26835
 Alpha virt. eigenvalues --    0.27782   0.28841   0.30360   0.31262   0.31420

 Mulliken charges:
               1
     1  C   -0.174097
     2  C   -0.217921
     3  C   -0.171651
     4  C    0.160013
     5  C   -0.178486
     6  C   -0.226960
     7  H    0.230980
     8  H    0.225332
     9  H    0.276096
    10  H    0.266750
    11  H    0.236824
    12  N    0.488313
    13  O   -0.464413
    14  O   -0.458487
    15  C   -0.175056
    16  C   -0.216864
    17  C   -0.170931
    18  C    0.161578
    19  C   -0.186493
    20  C   -0.226728
    21  H    0.233815
    22  H    0.229108
    23  H    0.279004
    24  H    0.277930
    25  H    0.231868
    26  N    0.487798
    27  O   -0.460830
    28  O   -0.456494
 Sum of Mulliken charges =  -0.00000

 Dipole moment (field-independent basis, Debye):
    X=              0.6980    Y=             -0.3988    Z=             -0.0789  Tot=              0.8077
 Quadrupole moment (field-independent basis, Debye-Ang):
   XX=           -146.4537   YY=            -98.6522   ZZ=           -102.9762
   XY=            -30.1079   XZ=             -0.8395   YZ=              1.0668

 Normal termination of Gaussian 16 at Fri May  7 03:30:13 2021.
