 Gaussian 16, Revision A.03,
 Gaussian 16:  EM64L-G16RevA.03 25-Dec-2016

 -------------
 #p 6-31g* mp2
 -------------

 ------------------------------------------------------
 Input file generated by CHIRIPA (05-May-2021 14:51:09)
 ------------------------------------------------------
 Symbolic Z-matrix:
 Charge =  0 Multiplicity = 1

                         Standard orientation:
 ---------------------------------------------------------------------
 Center     Atomic      Atomic             Coordinates (Angstroms)
 Number     Number       Type             X           Y           Z
 ---------------------------------------------------------------------
      1          6           0       -3.292594    0.447057    0.303983
      2          6           0       -4.256371    1.026788   -0.731889
      3          6           0       -4.780419    2.409530   -0.343053
      4          1           0       -3.801175    0.387993    1.275992
      5          1           0       -2.447478    1.137026    0.434816
      6          1           0       -5.098722    0.335270   -0.861746
      7          1           0       -3.745498    1.084301   -1.701589
      8          1           0       -3.953104    3.118038   -0.232749
      9          1           0       -5.314017    2.364751    0.611866
     10          1           0       -5.467603    2.805160   -1.097450
     11          6           0       -2.760131   -0.934928   -0.070620
     12          6           0       -1.796354   -1.514659    0.965252
     13          6           0       -1.272306   -2.897401    0.576416
     14          1           0       -3.605247   -1.624897   -0.201453
     15          1           0       -2.251550   -0.875864   -1.042629
     16          1           0       -2.307227   -1.572172    1.934952
     17          1           0       -0.954003   -0.823141    1.095108
     18          1           0       -0.738708   -2.852622   -0.378503
     19          1           0       -2.099621   -3.605909    0.466112
     20          1           0       -0.585122   -3.293031    1.330813
     21          6           0        3.494349    0.847575   -0.110351
     22          6           0        2.809309    2.141316    0.331166
     23          6           0        3.758468    3.339996    0.338704
     24          1           0        4.341493    0.642089    0.558281
     25          1           0        3.916242    0.988705   -1.115081
     26          1           0        2.387635    1.997343    1.334201
     27          1           0        1.963581    2.343643   -0.338478
     28          1           0        4.169857    3.511922   -0.661196
     29          1           0        4.596320    3.163654    1.020986
     30          1           0        3.248082    4.254226    0.657373
     31          6           0        2.558376   -0.359704   -0.123012
     32          6           0        3.243416   -1.653445   -0.564529
     33          6           0        2.294257   -2.852125   -0.572067
     34          1           0        2.136483   -0.500834    0.881718
     35          1           0        1.711231   -0.154219   -0.791643
     36          1           0        4.089144   -1.855773    0.105115
     37          1           0        3.665090   -1.509473   -1.567564
     38          1           0        1.456405   -2.675784   -1.254349
     39          1           0        1.882868   -3.024051    0.427833
     40          1           0        2.804643   -3.766356   -0.890735
 ---------------------------------------------------------------------

 SCF Done:  E(RHF) =  -470.732302630     A.U. after   11 cycles
 E2 =    -0.1583576009D+01 EUMP2 =    -0.47231587863892D+03

 The electronic state is 1-A.
 Alpha  occ. eigenvalues --  -11.21646 -11.21609 -11.21581 -11.21511 -11.21451
 Alpha  occ. eigenvalues --  -11.21391 -11.21366 -11.21306 -11.21103 -11.21056
 Alpha  occ. eigenvalues --  -11.21012 -11.20902  -1.08470  -1.08379  -1.03575
 Alpha  occ. eigenvalues --   -1.03450  -0.96053  -0.95874  -0.87112  -0.86852
 Alpha  occ. eigenvalues --   -0.79684  -0.79474  -0.78285  -0.78197  -0.65099
 Alpha  occ. eigenvalues --   -0.65015  -0.60975  -0.60888  -0.59385  -0.59278
 Alpha  occ. eigenvalues --   -0.57649  -0.57541  -0.55332  -0.55190  -0.52767
 Alpha  occ. eigenvalues --   -0.52675  -0.52411  -0.52259  -0.49976  -0.49808
 Alpha  occ. eigenvalues --   -0.47975  -0.47770  -0.46674  -0.46490  -0.45898
 Alpha  occ. eigenvalues --   -0.45771  -0.45629  -0.45608  -0.43811  -0.43719
 Alpha virt. eigenvalues --    0.21001   0.23292   0.23463   0.25261   0.25421
 Alpha virt. eigenvalues --    0.26007   0.26684   0.27677   0.28567   0.29019
 Alpha virt. eigenvalues --    0.29768   0.30989   0.31429   0.31917   0.32562

 Mulliken charges:
               1
     1  C   -0.298373
     2  C   -0.299573
     3  C   -0.475677
     4  H    0.149581
     5  H    0.149745
     6  H    0.151896
     7  H    0.151626
     8  H    0.155143
     9  H    0.155175
    10  H    0.160130
    11  C   -0.298013
    12  C   -0.302397
    13  C   -0.477177
    14  H    0.149472
    15  H    0.148717
    16  H    0.151188
    17  H    0.154202
    18  H    0.160384
    19  H    0.153644
    20  H    0.159001
    21  C   -0.298209
    22  C   -0.299711
    23  C   -0.475709
    24  H    0.149921
    25  H    0.149706
    26  H    0.151967
    27  H    0.151456
    28  H    0.155268
    29  H    0.155349
    30  H    0.160361
    31  C   -0.299699
    32  C   -0.300033
    33  C   -0.477565
    34  H    0.150716
    35  H    0.149040
    36  H    0.151847
    37  H    0.151676
    38  H    0.155596
    39  H    0.159471
    40  H    0.159857
 Sum of Mulliken charges =  -0.00000

 Dipole moment (field-independent basis, Debye):
    X=              0.0432    Y=             -0.0148    Z=             -0.0000  Tot=              0.0457
 Quadrupole moment (field-independent basis, Debye-Ang):
   XX=            -84.7251   YY=            -86.4629   ZZ=            -83.6366
   XY=              0.1682   XZ=             -0.0645   YZ=             -0.5896

 Normal termination of Gaussian 16 at Wed May  5 16:37:31 2021.
