 Gaussian 16, Revision A.03,
 Gaussian 16:  EM64L-G16RevA.03 25-Dec-2016

 -------------
 #p 6-31g* mp2
 -------------

 ------------------------------------------------------
 Input file generated by CHIRIPA (05-May-2021 14:57:23)
 ------------------------------------------------------
 Symbolic Z-matrix:
 Charge =  0 Multiplicity = 1

                         Standard orientation:
 ---------------------------------------------------------------------
 Center     Atomic      Atomic             Coordinates (Angstroms)
 Number     Number       Type             X           Y           Z
 ---------------------------------------------------------------------
      1          6           0       -2.765818    2.073203    1.231767
      2          6           0       -4.132933    1.850864    1.036617
      3          6           0       -4.577913    0.705499    0.369774
      4          6           0       -3.623992   -0.200689   -0.090822
      5          6           0       -2.255096   -0.007322    0.088129
      6          6           0       -1.832908    1.145037    0.757735
      7          1           0       -2.429000    2.965667    1.750860
      8          1           0       -4.859704    2.569973    1.403674
      9          1           0       -5.630282    0.508528    0.205034
     10          1           0       -1.554432   -0.742261   -0.289169
     11          1           0       -0.770559    1.315104    0.907860
     12          7           0       -4.083008   -1.416938   -0.798242
     13          8           0       -3.222494   -2.200014   -1.194406
     14          8           0       -5.294606   -1.564128   -0.943159
     15          6           0        3.956245   -2.176354    1.183359
     16          6           0        4.941533   -1.646812    0.343529
     17          6           0        4.726404   -0.441533   -0.331429
     18          6           0        3.508905    0.210661   -0.142664
     19          6           0        2.507721   -0.291401    0.687308
     20          6           0        2.744620   -1.498154    1.352271
     21          1           0        4.131818   -3.113216    1.703801
     22          1           0        5.883452   -2.171336    0.210457
     23          1           0        5.471959   -0.009050   -0.987573
     24          1           0        1.578833    0.254386    0.800007
     25          1           0        1.977628   -1.907041    2.003868
     26          7           0        3.269635    1.487416   -0.851920
     27          8           0        2.188522    2.042653   -0.668771
     28          8           0        4.167739    1.908725   -1.577555
 ---------------------------------------------------------------------

 SCF Done:  E(RHF) =  -868.338011011     A.U. after   16 cycles
 E2 =    -0.2599454743D+01 EUMP2 =    -0.87093746575327D+03

 The electronic state is 1-A.
 Alpha  occ. eigenvalues --  -20.61417 -20.61378 -20.60744 -20.60735 -15.86448
 Alpha  occ. eigenvalues --  -15.85795 -11.31759 -11.31116 -11.28420 -11.28244
 Alpha  occ. eigenvalues --  -11.27963 -11.27699 -11.27667 -11.27371 -11.27310
 Alpha  occ. eigenvalues --  -11.27241 -11.26678 -11.26661  -1.60464  -1.59818
 Alpha  occ. eigenvalues --   -1.40027  -1.39374  -1.19901  -1.19276  -1.09290
 Alpha  occ. eigenvalues --   -1.08669  -1.05305  -1.04682  -0.96150  -0.95516
 Alpha  occ. eigenvalues --   -0.86702  -0.86071  -0.82991  -0.82361  -0.78076
 Alpha  occ. eigenvalues --   -0.77416  -0.72671  -0.72014  -0.71778  -0.71140
 Alpha  occ. eigenvalues --   -0.71014  -0.70369  -0.65555  -0.65323  -0.64929
 Alpha  occ. eigenvalues --   -0.64672  -0.62714  -0.61994  -0.55769  -0.55148
 Alpha  occ. eigenvalues --   -0.53613  -0.53418  -0.52998  -0.52748  -0.49442
 Alpha  occ. eigenvalues --   -0.49401  -0.48773  -0.48765  -0.45443  -0.44790
 Alpha  occ. eigenvalues --   -0.37838  -0.37230  -0.36898  -0.36280
 Alpha virt. eigenvalues --    0.04483   0.05123   0.10754   0.11382   0.16016
 Alpha virt. eigenvalues --    0.16630   0.18691   0.22055   0.24674   0.27304
 Alpha virt. eigenvalues --    0.28388   0.29331   0.29814   0.31178   0.32336

 Mulliken charges:
               1
     1  C   -0.171014
     2  C   -0.218446
     3  C   -0.171096
     4  C    0.158569
     5  C   -0.173333
     6  C   -0.223508
     7  H    0.228779
     8  H    0.223686
     9  H    0.275345
    10  H    0.271783
    11  H    0.232725
    12  N    0.488250
    13  O   -0.461933
    14  O   -0.460361
    15  C   -0.169561
    16  C   -0.218026
    17  C   -0.169167
    18  C    0.158487
    19  C   -0.175102
    20  C   -0.220427
    21  H    0.228798
    22  H    0.226141
    23  H    0.277419
    24  H    0.272698
    25  H    0.225743
    26  N    0.488244
    27  O   -0.468991
    28  O   -0.455701
 Sum of Mulliken charges =  -0.00000

 Dipole moment (field-independent basis, Debye):
    X=              2.6891    Y=             -0.2296    Z=              4.9853  Tot=              5.6690
 Quadrupole moment (field-independent basis, Debye-Ang):
   XX=           -100.8347   YY=           -108.9134   ZZ=           -106.4550
   XY=            -34.3531   XZ=             -3.4349   YZ=              0.5034

 Normal termination of Gaussian 16 at Thu May  6 16:15:16 2021.
