 Gaussian 16, Revision A.03,
 Gaussian 16:  EM64L-G16RevA.03 25-Dec-2016

 -------------
 #p 6-31g* mp2
 -------------

 ------------------------------------------------------
 Input file generated by CHIRIPA (05-May-2021 14:51:12)
 ------------------------------------------------------
 Symbolic Z-matrix:
 Charge =  0 Multiplicity = 1

                         Standard orientation:
 ---------------------------------------------------------------------
 Center     Atomic      Atomic             Coordinates (Angstroms)
 Number     Number       Type             X           Y           Z
 ---------------------------------------------------------------------
      1          6           0       -3.915602    0.597691   -0.181127
      2          6           0       -4.380941   -0.835547    0.078246
      3          6           0       -5.855969   -1.049076   -0.263066
      4          1           0       -4.533538    1.289305    0.407745
      5          1           0       -4.088214    0.846344   -1.237428
      6          1           0       -4.206227   -1.081894    1.133425
      7          1           0       -3.761701   -1.523843   -0.511165
      8          1           0       -6.042548   -0.830203   -1.319420
      9          1           0       -6.489599   -0.385743    0.334515
     10          1           0       -6.167471   -2.080385   -0.070121
     11          6           0       -2.443172    0.826818    0.155291
     12          6           0       -1.977833    2.260056   -0.104082
     13          6           0       -0.502805    2.473585    0.237230
     14          1           0       -2.270560    0.578164    1.211592
     15          1           0       -1.825236    0.135204   -0.433581
     16          1           0       -2.597073    2.948352    0.485329
     17          1           0       -2.152547    2.506403   -1.159261
     18          1           0        0.130825    1.810252   -0.360350
     19          1           0       -0.316226    2.254712    1.293584
     20          1           0       -0.191303    3.504894    0.044285
     21          6           0        2.750359   -1.316775   -0.171261
     22          6           0        1.368160   -1.301136    0.482395
     23          6           0        0.521657   -2.516988    0.104332
     24          1           0        2.632336   -1.358105   -1.262731
     25          1           0        3.276252   -2.236145    0.121299
     26          1           0        0.845564   -0.381410    0.189800
     27          1           0        1.489488   -1.259646    1.572429
     28          1           0        1.018694   -3.442923    0.411252
     29          1           0        0.371112   -2.559697   -0.979233
     30          1           0       -0.462290   -2.485508    0.582575
     31          6           0        3.608415   -0.107733    0.197096
     32          6           0        4.990613   -0.123372   -0.456559
     33          6           0        5.837117    1.092479   -0.078496
     34          1           0        3.082521    0.811636   -0.095463
     35          1           0        3.726438   -0.066404    1.288567
     36          1           0        4.869286   -0.164863   -1.546594
     37          1           0        5.513210   -1.043099   -0.163963
     38          1           0        5.987662    1.135188    1.005068
     39          1           0        5.340081    2.018414   -0.385417
     40          1           0        6.821064    1.060999   -0.556740
 ---------------------------------------------------------------------

 SCF Done:  E(RHF) =  -470.733019718     A.U. after   11 cycles
 E2 =    -0.1583675613D+01 EUMP2 =    -0.47231669533008D+03

 The electronic state is 1-A.
 Alpha  occ. eigenvalues --  -11.21640 -11.21614 -11.21566 -11.21481 -11.21424
 Alpha  occ. eigenvalues --  -11.21365 -11.21353 -11.21294 -11.21112 -11.21079
 Alpha  occ. eigenvalues --  -11.21038 -11.21015  -1.08463  -1.08372  -1.03569
 Alpha  occ. eigenvalues --   -1.03467  -0.96010  -0.95930  -0.87033  -0.86940
 Alpha  occ. eigenvalues --   -0.79681  -0.79493  -0.78330  -0.78123  -0.65159
 Alpha  occ. eigenvalues --   -0.64957  -0.61039  -0.60814  -0.59410  -0.59258
 Alpha  occ. eigenvalues --   -0.57631  -0.57531  -0.55313  -0.55215  -0.52704
 Alpha  occ. eigenvalues --   -0.52626  -0.52481  -0.52316  -0.49993  -0.49850
 Alpha  occ. eigenvalues --   -0.48123  -0.47745  -0.46787  -0.46491  -0.45977
 Alpha  occ. eigenvalues --   -0.45749  -0.45702  -0.45280  -0.43810  -0.43727
 Alpha virt. eigenvalues --    0.20901   0.22863   0.23771   0.24182   0.25659
 Alpha virt. eigenvalues --    0.26528   0.26656   0.27184   0.28995   0.29429
 Alpha virt. eigenvalues --    0.30821   0.31347   0.31670   0.31776   0.32613

 Mulliken charges:
               1
     1  C   -0.298239
     2  C   -0.300266
     3  C   -0.475696
     4  H    0.149758
     5  H    0.149469
     6  H    0.151747
     7  H    0.152725
     8  H    0.155215
     9  H    0.155187
    10  H    0.160401
    11  C   -0.301739
    12  C   -0.300019
    13  C   -0.479557
    14  H    0.149873
    15  H    0.153567
    16  H    0.152219
    17  H    0.151712
    18  H    0.157938
    19  H    0.156550
    20  H    0.160525
    21  C   -0.297706
    22  C   -0.309024
    23  C   -0.476351
    24  H    0.148629
    25  H    0.149273
    26  H    0.162358
    27  H    0.151359
    28  H    0.154834
    29  H    0.153610
    30  H    0.161917
    31  C   -0.299677
    32  C   -0.299551
    33  C   -0.475677
    34  H    0.150910
    35  H    0.149666
    36  H    0.151668
    37  H    0.151867
    38  H    0.155145
    39  H    0.155329
    40  H    0.160049
 Sum of Mulliken charges =  -0.00000

 Dipole moment (field-independent basis, Debye):
    X=             -0.0362    Y=              0.0326    Z=              0.0132  Tot=              0.0505
 Quadrupole moment (field-independent basis, Debye-Ang):
   XX=            -86.2981   YY=            -85.2970   ZZ=            -83.2693
   XY=             -1.1415   XZ=             -0.2623   YZ=             -0.3741

 Normal termination of Gaussian 16 at Wed May  5 19:55:01 2021.
