 Gaussian 16, Revision A.03,
 Gaussian 16:  EM64L-G16RevA.03 25-Dec-2016

 -------------
 #p 6-31g* mp2
 -------------

 ------------------------------------------------------
 Input file generated by CHIRIPA (05-May-2021 14:55:23)
 ------------------------------------------------------
 Symbolic Z-matrix:
 Charge =  0 Multiplicity = 1

                         Standard orientation:
 ---------------------------------------------------------------------
 Center     Atomic      Atomic             Coordinates (Angstroms)
 Number     Number       Type             X           Y           Z
 ---------------------------------------------------------------------
      1          6           0       -4.649923   -1.678255   -0.788744
      2          6           0       -3.689035   -2.167737    0.102110
      3          6           0       -2.733002   -1.311325    0.656284
      4          6           0       -2.767194    0.034902    0.296018
      5          6           0       -3.711791    0.552722   -0.588791
      6          6           0       -4.658220   -0.321979   -1.130749
      7          1           0       -5.388862   -2.350640   -1.214495
      8          1           0       -3.680193   -3.220570    0.369521
      9          1           0       -1.977855   -1.663673    1.348399
     10          1           0       -3.695338    1.607174   -0.836338
     11          1           0       -5.403279    0.060946   -1.822342
     12          7           0       -1.760168    0.951228    0.876231
     13          8           0       -1.811623    2.133090    0.542777
     14          8           0       -0.938475    0.470231    1.653470
     15          6           0        3.059525    0.454143   -0.341203
     16          6           0        3.072655    1.981706   -0.407271
     17          6           0        1.675033    2.578113   -0.576823
     18          1           0        2.598751    0.057842   -1.256396
     19          1           0        2.420188    0.135681    0.493798
     20          1           0        3.712882    2.297219   -1.241044
     21          1           0        3.533625    2.374411    0.508101
     22          1           0        1.029944    2.291974    0.260186
     23          1           0        1.210220    2.214343   -1.498897
     24          1           0        1.707721    3.671171   -0.621711
     25          6           0        4.449375   -0.156878   -0.171802
     26          6           0        4.436244   -1.684441   -0.105733
     27          6           0        5.833865   -2.280848    0.063819
     28          1           0        5.088710    0.161584   -1.006802
     29          1           0        4.910148    0.239423    0.743391
     30          1           0        3.975274   -2.077146   -1.021106
     31          1           0        3.796018   -1.999954    0.728040
     32          1           0        6.298680   -1.917078    0.985893
     33          1           0        6.478955   -1.994709   -0.773191
     34          1           0        5.801178   -3.373906    0.108707
 ---------------------------------------------------------------------

 SCF Done:  E(RHF) =  -669.536749672     A.U. after   15 cycles
 E2 =    -0.2091753499D+01 EUMP2 =    -0.67162850317082D+03

 The electronic state is 1-A.
 Alpha  occ. eigenvalues --  -20.61039 -20.61026 -15.86023 -11.31322 -11.27876
 Alpha  occ. eigenvalues --  -11.27872 -11.27610 -11.26875 -11.26866 -11.21033
 Alpha  occ. eigenvalues --  -11.20625 -11.20618 -11.20405 -11.20323 -11.19402
 Alpha  occ. eigenvalues --   -1.60067  -1.39623  -1.19482  -1.08894  -1.07538
 Alpha  occ. eigenvalues --   -1.04873  -1.02580  -0.95742  -0.95004  -0.86275
 Alpha  occ. eigenvalues --   -0.86018  -0.82576  -0.78689  -0.77636  -0.77307
 Alpha  occ. eigenvalues --   -0.72239  -0.71370  -0.70592  -0.65137  -0.64878
 Alpha  occ. eigenvalues --   -0.64171  -0.62220  -0.59975  -0.58454  -0.56621
 Alpha  occ. eigenvalues --   -0.55386  -0.54284  -0.53207  -0.52964  -0.51711
 Alpha  occ. eigenvalues --   -0.51444  -0.49259  -0.49012  -0.48707  -0.46949
 Alpha  occ. eigenvalues --   -0.45713  -0.45043  -0.44851  -0.44677  -0.42838
 Alpha  occ. eigenvalues --   -0.37456  -0.36471
 Alpha virt. eigenvalues --    0.04859   0.11185   0.16357   0.21318   0.23704
 Alpha virt. eigenvalues --    0.25327   0.27240   0.27521   0.28127   0.28435
 Alpha virt. eigenvalues --    0.29059   0.30897   0.32348   0.32474   0.32559

 Mulliken charges:
               1
     1  C   -0.170445
     2  C   -0.218642
     3  C   -0.170540
     4  C    0.160551
     5  C   -0.170677
     6  C   -0.218666
     7  H    0.226107
     8  H    0.223951
     9  H    0.275825
    10  H    0.276155
    11  H    0.223952
    12  N    0.488382
    13  O   -0.457343
    14  O   -0.461634
    15  C   -0.300974
    16  C   -0.298617
    17  C   -0.483841
    18  H    0.143689
    19  H    0.159985
    20  H    0.145069
    21  H    0.150559
    22  H    0.184146
    23  H    0.144885
    24  H    0.155459
    25  C   -0.297310
    26  C   -0.298925
    27  C   -0.475076
    28  H    0.146816
    29  H    0.149458
    30  H    0.149045
    31  H    0.152026
    32  H    0.155141
    33  H    0.154101
    34  H    0.157390
 Sum of Mulliken charges =  -0.00000

 Dipole moment (field-independent basis, Debye):
    X=             -3.9176    Y=             -3.2012    Z=             -1.8849  Tot=              5.3989
 Quadrupole moment (field-independent basis, Debye-Ang):
   XX=            -76.6845   YY=            -92.8765   ZZ=            -94.4617
   XY=              7.7870   XZ=              6.2013   YZ=             -2.8832

 Normal termination of Gaussian 16 at Thu May  6 17:38:13 2021.
