 Gaussian 16, Revision A.03,
 Gaussian 16:  EM64L-G16RevA.03 25-Dec-2016

 -------------
 #p 6-31g* mp2
 -------------

 ------------------------------------------------------
 Input file generated by CHIRIPA (05-May-2021 14:55:21)
 ------------------------------------------------------
 Symbolic Z-matrix:
 Charge =  0 Multiplicity = 1

                         Standard orientation:
 ---------------------------------------------------------------------
 Center     Atomic      Atomic             Coordinates (Angstroms)
 Number     Number       Type             X           Y           Z
 ---------------------------------------------------------------------
      1          6           0        2.374847   -2.321261    0.356918
      2          6           0        2.724125   -1.563937    1.479854
      3          6           0        3.171860   -0.247246    1.337002
      4          6           0        3.258563    0.282875    0.050633
      5          6           0        2.917940   -0.446250   -1.087630
      6          6           0        2.472697   -1.760988   -0.920987
      7          1           0        2.028003   -3.343340    0.477129
      8          1           0        2.649131   -1.996454    2.473509
      9          1           0        3.448763    0.361475    2.189176
     10          1           0        3.003210    0.012282   -2.065328
     11          1           0        2.202125   -2.346785   -1.794874
     12          7           0        3.731241    1.675763   -0.113190
     13          8           0        3.798752    2.119686   -1.257311
     14          8           0        4.025265    2.297211    0.905627
     15          6           0       -4.820008   -0.142867    0.031839
     16          6           0       -5.550114    1.194844    0.156177
     17          6           0       -7.047262    1.029036    0.418571
     18          1           0       -5.273656   -0.726809   -0.780664
     19          1           0       -4.969732   -0.721464    0.953904
     20          1           0       -5.397908    1.771321   -0.765302
     21          1           0       -5.094553    1.775749    0.968351
     22          1           0       -7.216520    0.475845    1.348051
     23          1           0       -7.521600    0.471391   -0.395454
     24          1           0       -7.549568    1.997670    0.503991
     25          6           0       -3.322481    0.006393   -0.230581
     26          6           0       -2.592376   -1.331318   -0.354919
     27          6           0       -1.095228   -1.165510   -0.617313
     28          1           0       -3.172758    0.584989   -1.152646
     29          1           0       -2.868834    0.590335    0.581921
     30          1           0       -3.047938   -1.912223   -1.167093
     31          1           0       -2.744582   -1.907795    0.566561
     32          1           0       -0.620890   -0.607865    0.196712
     33          1           0       -0.925969   -0.612318   -1.546793
     34          1           0       -0.592921   -2.134143   -0.702734
 ---------------------------------------------------------------------

 SCF Done:  E(RHF) =  -669.534903210     A.U. after   15 cycles
 E2 =    -0.2092158606D+01 EUMP2 =    -0.67162706181630D+03

 The electronic state is 1-A.
 Alpha  occ. eigenvalues --  -20.60747 -20.60741 -15.85801 -11.31162 -11.27739
 Alpha  occ. eigenvalues --  -11.27718 -11.27469 -11.26754 -11.26730 -11.21894
 Alpha  occ. eigenvalues --  -11.21709 -11.21593 -11.21527 -11.21402 -11.21168
 Alpha  occ. eigenvalues --   -1.59822  -1.39376  -1.19338  -1.08741  -1.08624
 Alpha  occ. eigenvalues --   -1.04743  -1.03740  -0.96194  -0.95569  -0.87216
 Alpha  occ. eigenvalues --   -0.86138  -0.82402  -0.79807  -0.78431  -0.77448
 Alpha  occ. eigenvalues --   -0.72020  -0.71145  -0.70454  -0.65259  -0.64995
 Alpha  occ. eigenvalues --   -0.64753  -0.62095  -0.61138  -0.59593  -0.57803
 Alpha  occ. eigenvalues --   -0.55485  -0.55249  -0.53456  -0.52843  -0.52664
 Alpha  occ. eigenvalues --   -0.52465  -0.50115  -0.48778  -0.48774  -0.48118
 Alpha  occ. eigenvalues --   -0.46833  -0.45971  -0.45896  -0.44783  -0.44015
 Alpha  occ. eigenvalues --   -0.37252  -0.36307
 Alpha virt. eigenvalues --    0.05075   0.11271   0.16546   0.21022   0.22718
 Alpha virt. eigenvalues --    0.24126   0.26444   0.26824   0.27246   0.27887
 Alpha virt. eigenvalues --    0.28367   0.30921   0.31174   0.31600   0.31772

 Mulliken charges:
               1
     1  C   -0.168475
     2  C   -0.219334
     3  C   -0.171748
     4  C    0.158417
     5  C   -0.171324
     6  C   -0.213025
     7  H    0.225105
     8  H    0.223189
     9  H    0.275403
    10  H    0.275390
    11  H    0.223401
    12  N    0.488099
    13  O   -0.460460
    14  O   -0.460684
    15  C   -0.298262
    16  C   -0.299922
    17  C   -0.475803
    18  H    0.149325
    19  H    0.148791
    20  H    0.152888
    21  H    0.152801
    22  H    0.154825
    23  H    0.154999
    24  H    0.161152
    25  C   -0.298747
    26  C   -0.300978
    27  C   -0.471639
    28  H    0.150952
    29  H    0.150922
    30  H    0.150763
    31  H    0.149855
    32  H    0.159752
    33  H    0.154462
    34  H    0.149912
 Sum of Mulliken charges =  -0.00000

 Dipole moment (field-independent basis, Debye):
    X=             -1.6603    Y=             -4.8753    Z=              0.5780  Tot=              5.1826
 Quadrupole moment (field-independent basis, Debye-Ang):
   XX=           -107.6273   YY=            -98.3133   ZZ=            -88.8100
   XY=            -16.7427   XZ=              2.7477   YZ=              0.3328

 Normal termination of Gaussian 16 at Thu May  6 12:31:19 2021.
