 Gaussian 16, Revision A.03,
 Gaussian 16:  EM64L-G16RevA.03 25-Dec-2016

 -------------
 #p 6-31g* mp2
 -------------

 ------------------------------------------------------
 Input file generated by CHIRIPA (05-May-2021 14:57:25)
 ------------------------------------------------------
 Symbolic Z-matrix:
 Charge =  0 Multiplicity = 1

                         Standard orientation:
 ---------------------------------------------------------------------
 Center     Atomic      Atomic             Coordinates (Angstroms)
 Number     Number       Type             X           Y           Z
 ---------------------------------------------------------------------
      1          6           0       -4.180973    2.589500    0.246248
      2          6           0       -5.312214    1.767100    0.224531
      3          6           0       -5.181205    0.383234    0.075198
      4          6           0       -3.898081   -0.146972   -0.050364
      5          6           0       -2.751752    0.646060   -0.032498
      6          6           0       -2.906599    2.027347    0.117891
      7          1           0       -4.292003    3.663519    0.362664
      8          1           0       -6.303152    2.200912    0.323999
      9          1           0       -6.039992   -0.276688    0.055057
     10          1           0       -1.777027    0.184493   -0.133917
     11          1           0       -2.026282    2.663597    0.134409
     12          7           0       -3.746770   -1.610644   -0.209015
     13          8           0       -2.605284   -2.053170   -0.317724
     14          8           0       -4.772523   -2.287629   -0.221652
     15          6           0        1.772109   -1.396793    0.231365
     16          6           0        1.737726   -0.033669   -0.080453
     17          6           0        2.923259    0.697973   -0.197751
     18          6           0        4.130962    0.031666    0.004190
     19          6           0        4.198026   -1.325381    0.315983
     20          6           0        2.999984   -2.037170    0.428241
     21          1           0        0.846299   -1.957438    0.320528
     22          1           0        0.785590    0.466272   -0.233884
     23          1           0        2.925589    1.754200   -0.438162
     24          1           0        5.162424   -1.796184    0.463290
     25          1           0        3.029720   -3.095692    0.670507
     26          7           0        5.392653    0.795713   -0.117320
     27          8           0        6.443755    0.185424    0.065354
     28          8           0        5.306576    1.990395   -0.392933
 ---------------------------------------------------------------------

 SCF Done:  E(RHF) =  -868.338160895     A.U. after   16 cycles
 E2 =    -0.2599397250D+01 EUMP2 =    -0.87093755814511D+03

 The electronic state is 1-A.
 Alpha  occ. eigenvalues --  -20.61741 -20.61694 -20.60761 -20.60749 -15.86768
 Alpha  occ. eigenvalues --  -15.85815 -11.32045 -11.31136 -11.28712 -11.28532
 Alpha  occ. eigenvalues --  -11.28259 -11.27801 -11.27695 -11.27616 -11.27516
 Alpha  occ. eigenvalues --  -11.27331 -11.26833 -11.26612  -1.60780  -1.59836
 Alpha  occ. eigenvalues --   -1.40343  -1.39391  -1.20192  -1.19315  -1.09587
 Alpha  occ. eigenvalues --   -1.08687  -1.05597  -1.04739  -0.96450  -0.95525
 Alpha  occ. eigenvalues --   -0.86992  -0.86129  -0.83299  -0.82382  -0.78376
 Alpha  occ. eigenvalues --   -0.77464  -0.72995  -0.72090  -0.72033  -0.71304
 Alpha  occ. eigenvalues --   -0.71160  -0.70325  -0.65852  -0.65613  -0.64963
 Alpha  occ. eigenvalues --   -0.64780  -0.62975  -0.62085  -0.56058  -0.55103
 Alpha  occ. eigenvalues --   -0.53902  -0.53704  -0.53038  -0.52828  -0.49759
 Alpha  occ. eigenvalues --   -0.49717  -0.48790  -0.48786  -0.45767  -0.44807
 Alpha  occ. eigenvalues --   -0.38129  -0.37240  -0.37184  -0.36355
 Alpha virt. eigenvalues --    0.04184   0.05116   0.10476   0.11311   0.15713
 Alpha virt. eigenvalues --    0.16624   0.17834   0.22100   0.24717   0.26800
 Alpha virt. eigenvalues --    0.27970   0.28983   0.30676   0.31456   0.31817

 Mulliken charges:
               1
     1  C   -0.169849
     2  C   -0.218189
     3  C   -0.169316
     4  C    0.160488
     5  C   -0.176123
     6  C   -0.218790
     7  H    0.229226
     8  H    0.226847
     9  H    0.277839
    10  H    0.271170
    11  H    0.222411
    12  N    0.489677
    13  O   -0.469554
    14  O   -0.454912
    15  C   -0.174671
    16  C   -0.220394
    17  C   -0.171154
    18  C    0.158033
    19  C   -0.170193
    20  C   -0.219469
    21  H    0.242933
    22  H    0.212692
    23  H    0.272775
    24  H    0.275933
    25  H    0.226585
    26  N    0.488176
    27  O   -0.459909
    28  O   -0.462261
 Sum of Mulliken charges =  -0.00000

 Dipole moment (field-independent basis, Debye):
    X=             -5.2949    Y=              2.3703    Z=              1.0375  Tot=              5.8932
 Quadrupole moment (field-independent basis, Debye-Ang):
   XX=           -129.9219   YY=           -103.2149   ZZ=           -106.4063
   XY=            -34.1492   XZ=             -0.0420   YZ=             -1.3776

 Normal termination of Gaussian 16 at Thu May  6 19:43:41 2021.
