 Gaussian 16, Revision A.03,
 Gaussian 16:  EM64L-G16RevA.03 25-Dec-2016

 -------------
 #p 6-31g* mp2
 -------------

 ------------------------------------------------------
 Input file generated by CHIRIPA (05-May-2021 14:57:25)
 ------------------------------------------------------
 Symbolic Z-matrix:
 Charge =  0 Multiplicity = 1

                         Standard orientation:
 ---------------------------------------------------------------------
 Center     Atomic      Atomic             Coordinates (Angstroms)
 Number     Number       Type             X           Y           Z
 ---------------------------------------------------------------------
      1          6           0        3.968202    2.334402   -0.352335
      2          6           0        3.137190    1.695569   -1.278528
      3          6           0        2.679749    0.395517   -1.043671
      4          6           0        3.074672   -0.238974    0.133082
      5          6           0        3.901668    0.370907    1.075108
      6          6           0        4.347120    1.671201    0.819462
      7          1           0        4.318897    3.344408   -0.542852
      8          1           0        2.841308    2.208190   -2.189417
      9          1           0        2.035559   -0.122520   -1.743725
     10          1           0        4.179662   -0.165704    1.974100
     11          1           0        4.992405    2.164866    1.540535
     12          7           0        2.596745   -1.615410    0.392719
     13          8           0        2.958988   -2.152780    1.437061
     14          8           0        1.868953   -2.130826   -0.453036
     15          6           0       -4.570186    1.929492    0.735811
     16          6           0       -3.367528    2.184458    0.068633
     17          6           0       -2.574507    1.129868   -0.393437
     18          6           0       -3.016474   -0.173243   -0.170155
     19          6           0       -4.209749   -0.459564    0.491214
     20          6           0       -4.986723    0.610621    0.944604
     21          1           0       -5.179990    2.754780    1.091388
     22          1           0       -3.041545    3.207701   -0.094929
     23          1           0       -1.639069    1.298760   -0.912908
     24          1           0       -4.508429   -1.490219    0.639391
     25          1           0       -5.920265    0.409625    1.462432
     26          7           0       -2.185433   -1.297945   -0.654733
     27          8           0       -2.596990   -2.437008   -0.445467
     28          8           0       -1.138242   -1.019126   -1.234637
 ---------------------------------------------------------------------

 SCF Done:  E(RHF) =  -868.335847312     A.U. after   16 cycles
 E2 =    -0.2600776661D+01 EUMP2 =    -0.87093662397370D+03

 The electronic state is 1-A.
 Alpha  occ. eigenvalues --  -20.60306 -20.60298 -20.59840 -20.59690 -15.85371
 Alpha  occ. eigenvalues --  -15.84813 -11.30985 -11.30533 -11.27626 -11.27550
 Alpha  occ. eigenvalues --  -11.27364 -11.27202 -11.27074 -11.27027 -11.26679
 Alpha  occ. eigenvalues --  -11.26624 -11.26290 -11.26258  -1.59358  -1.58846
 Alpha  occ. eigenvalues --   -1.38917  -1.38377  -1.19177  -1.18763  -1.08521
 Alpha  occ. eigenvalues --   -1.08104  -1.04623  -1.04214  -0.95318  -0.94865
 Alpha  occ. eigenvalues --   -0.86009  -0.85592  -0.82160  -0.81687  -0.77175
 Alpha  occ. eigenvalues --   -0.76654  -0.71610  -0.71009  -0.70696  -0.70292
 Alpha  occ. eigenvalues --   -0.70166  -0.69864  -0.64831  -0.64631  -0.64400
 Alpha  occ. eigenvalues --   -0.64224  -0.61976  -0.61531  -0.55110  -0.54730
 Alpha  occ. eigenvalues --   -0.52931  -0.52725  -0.52543  -0.52303  -0.48349
 Alpha  occ. eigenvalues --   -0.48320  -0.47838  -0.47737  -0.44347  -0.43591
 Alpha  occ. eigenvalues --   -0.37165  -0.36792  -0.36236  -0.35843
 Alpha virt. eigenvalues --    0.05349   0.05897   0.11414   0.11802   0.16812
 Alpha virt. eigenvalues --    0.17290   0.21417   0.21934   0.27255   0.27698
 Alpha virt. eigenvalues --    0.28292   0.29002   0.30948   0.31443   0.32453

 Mulliken charges:
               1
     1  C   -0.172288
     2  C   -0.222099
     3  C   -0.172528
     4  C    0.156896
     5  C   -0.171880
     6  C   -0.219477
     7  H    0.221905
     8  H    0.220146
     9  H    0.288634
    10  H    0.274336
    11  H    0.220528
    12  N    0.485295
    13  O   -0.467916
    14  O   -0.442043
    15  C   -0.171558
    16  C   -0.218128
    17  C   -0.170726
    18  C    0.159950
    19  C   -0.170636
    20  C   -0.218254
    21  H    0.224375
    22  H    0.220545
    23  H    0.270050
    24  H    0.276989
    25  H    0.223253
    26  N    0.489834
    27  O   -0.455759
    28  O   -0.459446
 Sum of Mulliken charges =  -0.00000

 Dipole moment (field-independent basis, Debye):
    X=             -1.4431    Y=              8.4554    Z=              0.6646  Tot=              8.6034
 Quadrupole moment (field-independent basis, Debye-Ang):
   XX=            -75.4345   YY=           -107.6149   ZZ=           -102.3186
   XY=              5.4378   XZ=             -6.6450   YZ=             -1.1958

 Normal termination of Gaussian 16 at Fri May  7 11:11:15 2021.
