 Gaussian 16, Revision A.03,
 Gaussian 16:  EM64L-G16RevA.03 25-Dec-2016

 -------------
 #p 6-31g* mp2
 -------------

 ------------------------------------------------------
 Input file generated by CHIRIPA (05-May-2021 14:57:26)
 ------------------------------------------------------
 Symbolic Z-matrix:
 Charge =  0 Multiplicity = 1

                         Standard orientation:
 ---------------------------------------------------------------------
 Center     Atomic      Atomic             Coordinates (Angstroms)
 Number     Number       Type             X           Y           Z
 ---------------------------------------------------------------------
      1          6           0       -2.424285   -2.299065   -0.198243
      2          6           0       -2.922556   -1.697792    0.962239
      3          6           0       -3.147960   -0.318748    1.006736
      4          6           0       -2.862820    0.432174   -0.132606
      5          6           0       -2.365624   -0.137611   -1.303687
      6          6           0       -2.147897   -1.518432   -1.325515
      7          1           0       -2.252168   -3.371029   -0.224004
      8          1           0       -3.138107   -2.301559    1.839193
      9          1           0       -3.533038    0.172572    1.892026
     10          1           0       -2.160272    0.490414   -2.162077
     11          1           0       -1.760863   -1.982680   -2.228135
     12          7           0       -3.097382    1.893047   -0.097499
     13          8           0       -2.838137    2.532525   -1.114601
     14          8           0       -3.536035    2.370938    0.946456
     15          6           0        1.011886   -1.920290    0.442590
     16          6           0        1.356385   -1.073565    1.501315
     17          6           0        2.358971   -0.111978    1.344091
     18          6           0        2.999366   -0.024263    0.108983
     19          6           0        2.678703   -0.853383   -0.964807
     20          6           0        1.672979   -1.807695   -0.784928
     21          1           0        0.231834   -2.664447    0.573525
     22          1           0        0.844661   -1.158745    2.455740
     23          1           0        2.645585    0.556317    2.146994
     24          1           0        3.206618   -0.744627   -1.904431
     25          1           0        1.407524   -2.463932   -1.608900
     26          7           0        4.062420    0.989875   -0.069454
     27          8           0        4.611578    1.047023   -1.167542
     28          8           0        4.326355    1.708407    0.892153
 ---------------------------------------------------------------------

 SCF Done:  E(RHF) =  -868.334858549     A.U. after   16 cycles
 E2 =    -0.2603304515D+01 EUMP2 =    -0.87093816306452D+03

 The electronic state is 1-A.
 Alpha  occ. eigenvalues --  -20.61320 -20.61307 -20.60836 -20.60827 -15.86378
 Alpha  occ. eigenvalues --  -15.85897 -11.31989 -11.31343 -11.28600 -11.28554
 Alpha  occ. eigenvalues --  -11.28448 -11.27999 -11.27951 -11.27738 -11.27709
 Alpha  occ. eigenvalues --  -11.27679 -11.27054 -11.26961  -1.60386  -1.59909
 Alpha  occ. eigenvalues --   -1.39933  -1.39461  -1.20206  -1.19560  -1.09605
 Alpha  occ. eigenvalues --   -1.08933  -1.05633  -1.04993  -0.96387  -0.95749
 Alpha  occ. eigenvalues --   -0.87045  -0.86390  -0.83197  -0.82593  -0.78163
 Alpha  occ. eigenvalues --   -0.77618  -0.72594  -0.72115  -0.71710  -0.71457
 Alpha  occ. eigenvalues --   -0.71234  -0.70662  -0.65865  -0.65671  -0.65221
 Alpha  occ. eigenvalues --   -0.65023  -0.62965  -0.62346  -0.56284  -0.55644
 Alpha  occ. eigenvalues --   -0.54051  -0.53738  -0.53103  -0.53052  -0.49372
 Alpha  occ. eigenvalues --   -0.49332  -0.48882  -0.48861  -0.45283  -0.44849
 Alpha  occ. eigenvalues --   -0.38501  -0.37524  -0.37036  -0.36466
 Alpha virt. eigenvalues --    0.04276   0.04986   0.10149   0.11222   0.15569
 Alpha virt. eigenvalues --    0.16467   0.19325   0.22019   0.25365   0.26213
 Alpha virt. eigenvalues --    0.27662   0.29251   0.29610   0.31425   0.32178

 Mulliken charges:
               1
     1  C   -0.184042
     2  C   -0.220852
     3  C   -0.170328
     4  C    0.161158
     5  C   -0.166821
     6  C   -0.213044
     7  H    0.222847
     8  H    0.223885
     9  H    0.277926
    10  H    0.279428
    11  H    0.221918
    12  N    0.487869
    13  O   -0.456410
    14  O   -0.458690
    15  C   -0.158204
    16  C   -0.220921
    17  C   -0.169011
    18  C    0.158389
    19  C   -0.170335
    20  C   -0.221758
    21  H    0.217766
    22  H    0.221688
    23  H    0.277490
    24  H    0.275570
    25  H    0.215370
    26  N    0.488345
    27  O   -0.460478
    28  O   -0.458753
 Sum of Mulliken charges =  -0.00000

 Dipole moment (field-independent basis, Debye):
    X=             -3.0426    Y=             -8.4018    Z=              0.4998  Tot=              8.9497
 Quadrupole moment (field-independent basis, Debye-Ang):
   XX=           -132.5690   YY=           -110.4212   ZZ=            -95.7858
   XY=              4.2114   XZ=             -0.5463   YZ=              1.4195

 Normal termination of Gaussian 16 at Thu May  6 00:25:37 2021.
