 Gaussian 16, Revision A.03,
 Gaussian 16:  EM64L-G16RevA.03 25-Dec-2016

 -------------
 #p 6-31g* mp2
 -------------

 ------------------------------------------------------
 Input file generated by CHIRIPA (05-May-2021 14:51:12)
 ------------------------------------------------------
 Symbolic Z-matrix:
 Charge =  0 Multiplicity = 1

                         Standard orientation:
 ---------------------------------------------------------------------
 Center     Atomic      Atomic             Coordinates (Angstroms)
 Number     Number       Type             X           Y           Z
 ---------------------------------------------------------------------
      1          6           0        4.964095   -0.449416   -0.024168
      2          6           0        6.437708   -0.342571   -0.417913
      3          6           0        7.217310   -1.629246   -0.145000
      4          1           0        4.893597   -0.703319    1.042372
      5          1           0        4.504091   -1.281718   -0.574681
      6          1           0        6.894454    0.490157    0.132144
      7          1           0        6.504704   -0.088704   -1.483596
      8          1           0        6.788252   -2.465940   -0.705762
      9          1           0        7.180217   -1.883790    0.919158
     10          1           0        8.268372   -1.530736   -0.433831
     11          6           0        4.171507    0.828997   -0.290989
     12          6           0        2.697895    0.722152    0.102756
     13          6           0        1.918293    2.008827   -0.170157
     14          1           0        4.631511    1.661299    0.259524
     15          1           0        4.242006    1.082900   -1.357529
     16          1           0        2.630899    0.468285    1.168439
     17          1           0        2.241148   -0.110576   -0.447301
     18          1           0        1.955385    2.263371   -1.234315
     19          1           0        2.347350    2.845521    0.390605
     20          1           0        0.867230    1.910317    0.118674
     21          6           0       -3.974066   -0.459664    0.555168
     22          6           0       -2.752946    0.459937    0.520741
     23          6           0       -1.573326   -0.093583    1.320684
     24          1           0       -4.278236   -0.615805    1.599221
     25          1           0       -3.692886   -1.445928    0.160687
     26          1           0       -3.036697    1.444589    0.913883
     27          1           0       -2.451763    0.614060   -0.523361
     28          1           0       -1.262300   -1.066039    0.925471
     29          1           0       -1.850556   -0.230791    2.370883
     30          1           0       -0.711215    0.579596    1.282543
     31          6           0       -5.161537    0.080083   -0.240011
     32          6           0       -6.382657   -0.839517   -0.205584
     33          6           0       -7.562276   -0.285997   -1.005527
     34          1           0       -5.442718    1.066348    0.154470
     35          1           0       -4.857366    0.236224   -1.284064
     36          1           0       -6.683839   -0.993641    0.838519
     37          1           0       -6.098906   -1.824170   -0.598727
     38          1           0       -7.285045   -0.148789   -2.055726
     39          1           0       -7.873303    0.686458   -0.610315
     40          1           0       -8.424387   -0.959176   -0.967387
 ---------------------------------------------------------------------

 SCF Done:  E(RHF) =  -470.733302722     A.U. after   11 cycles
 E2 =    -0.1582290380D+01 EUMP2 =    -0.47231559310171D+03

 The electronic state is 1-A.
 Alpha  occ. eigenvalues --  -11.21604 -11.21600 -11.21593 -11.21584 -11.21404
 Alpha  occ. eigenvalues --  -11.21395 -11.21345 -11.21335 -11.21070 -11.21064
 Alpha  occ. eigenvalues --  -11.21061 -11.21055  -1.08432  -1.08417  -1.03548
 Alpha  occ. eigenvalues --   -1.03503  -0.96020  -0.95934  -0.87035  -0.86951
 Alpha  occ. eigenvalues --   -0.79591  -0.79580  -0.78243  -0.78227  -0.65060
 Alpha  occ. eigenvalues --   -0.65047  -0.60933  -0.60908  -0.59677  -0.59120
 Alpha  occ. eigenvalues --   -0.57781  -0.57369  -0.55269  -0.55248  -0.52929
 Alpha  occ. eigenvalues --   -0.52556  -0.52460  -0.52163  -0.49917  -0.49909
 Alpha  occ. eigenvalues --   -0.47974  -0.47827  -0.46630  -0.46607  -0.45787
 Alpha  occ. eigenvalues --   -0.45770  -0.45708  -0.45695  -0.43868  -0.43679
 Alpha virt. eigenvalues --    0.21476   0.23026   0.23339   0.25107   0.26596
 Alpha virt. eigenvalues --    0.26642   0.26818   0.27368   0.27729   0.28867
 Alpha virt. eigenvalues --    0.30365   0.31322   0.31498   0.31701   0.32102

 Mulliken charges:
               1
     1  C   -0.298267
     2  C   -0.299654
     3  C   -0.475701
     4  H    0.149784
     5  H    0.149495
     6  H    0.151921
     7  H    0.151888
     8  H    0.155154
     9  H    0.155214
    10  H    0.160218
    11  C   -0.298351
    12  C   -0.299395
    13  C   -0.481729
    14  H    0.149501
    15  H    0.149584
    16  H    0.152378
    17  H    0.152340
    18  H    0.155343
    19  H    0.155238
    20  H    0.164951
    21  C   -0.298210
    22  C   -0.299878
    23  C   -0.482440
    24  H    0.149722
    25  H    0.149529
    26  H    0.151877
    27  H    0.152169
    28  H    0.155497
    29  H    0.155232
    30  H    0.166531
    31  C   -0.298286
    32  C   -0.299662
    33  C   -0.475708
    34  H    0.149567
    35  H    0.149669
    36  H    0.151944
    37  H    0.151909
    38  H    0.155179
    39  H    0.155203
    40  H    0.160245
 Sum of Mulliken charges =  -0.00000

 Dipole moment (field-independent basis, Debye):
    X=             -0.0003    Y=             -0.0037    Z=              0.0026  Tot=              0.0045
 Quadrupole moment (field-independent basis, Debye-Ang):
   XX=            -86.0387   YY=            -85.2737   ZZ=            -83.4779
   XY=              0.7402   XZ=             -0.6602   YZ=              1.0085

 Normal termination of Gaussian 16 at Thu May  6 00:45:39 2021.
