 Gaussian 16, Revision A.03,
 Gaussian 16:  EM64L-G16RevA.03 25-Dec-2016

 -------------
 #p 6-31g* mp2
 -------------

 ------------------------------------------------------
 Input file generated by CHIRIPA (05-May-2021 14:51:08)
 ------------------------------------------------------
 Symbolic Z-matrix:
 Charge =  0 Multiplicity = 1

                         Standard orientation:
 ---------------------------------------------------------------------
 Center     Atomic      Atomic             Coordinates (Angstroms)
 Number     Number       Type             X           Y           Z
 ---------------------------------------------------------------------
      1          6           0        2.225128    1.223033   -0.347230
      2          6           0        1.717708    1.878943    0.937407
      3          6           0        0.798116    3.070694    0.669314
      4          1           0        2.759071    1.972204   -0.947723
      5          1           0        1.365224    0.895955   -0.948046
      6          1           0        2.578338    2.203446    1.536264
      7          1           0        1.185076    1.128077    1.535001
      8          1           0       -0.078525    2.758727    0.092446
      9          1           0        1.322653    3.840206    0.093716
     10          1           0        0.447008    3.524500    1.601325
     11          6           0        3.145643    0.030106   -0.095622
     12          6           0        3.653062   -0.625804   -1.380259
     13          6           0        4.572655   -1.817555   -1.112166
     14          1           0        4.005546    0.357184    0.505195
     15          1           0        2.611699   -0.719065    0.504871
     16          1           0        4.185695    0.125062   -1.977853
     17          1           0        2.792432   -0.950307   -1.979116
     18          1           0        4.048118   -2.587067   -0.536568
     19          1           0        5.449296   -1.505588   -0.535297
     20          1           0        4.923763   -2.271361   -2.044176
     21          6           0       -3.011262   -0.087694   -0.210835
     22          6           0       -4.391146   -0.484457   -0.736655
     23          6           0       -5.030246    0.603866   -1.599730
     24          1           0       -3.100626    0.839224    0.372075
     25          1           0       -2.354026    0.140124   -1.061443
     26          1           0       -5.045181   -0.712797    0.114646
     27          1           0       -4.298517   -1.410642   -1.318220
     28          1           0       -4.400755    0.826732   -2.467298
     29          1           0       -5.151661    1.528542   -1.026290
     30          1           0       -6.015964    0.299316   -1.965063
     31          6           0       -2.359508   -1.165445    0.653686
     32          6           0       -0.979625   -0.768682    1.179506
     33          6           0       -0.340525   -1.857005    2.042582
     34          1           0       -3.016745   -1.393263    1.504294
     35          1           0       -2.270144   -2.092362    0.070777
     36          1           0       -1.072252    0.157503    1.761071
     37          1           0       -0.325590   -0.540341    0.328204
     38          1           0       -0.219109   -2.781680    1.469141
     39          1           0       -0.970016   -2.079871    2.910149
     40          1           0        0.645194   -1.552455    2.407915
 ---------------------------------------------------------------------

 SCF Done:  E(RHF) =  -470.732370067     A.U. after   11 cycles
 E2 =    -0.1584978662D+01 EUMP2 =    -0.47231734872893D+03

 The electronic state is 1-A.
 Alpha  occ. eigenvalues --  -11.21670 -11.21649 -11.21599 -11.21473 -11.21457
 Alpha  occ. eigenvalues --  -11.21414 -11.21373 -11.21311 -11.21179 -11.21102
 Alpha  occ. eigenvalues --  -11.21066 -11.20999  -1.08535  -1.08369  -1.03639
 Alpha  occ. eigenvalues --   -1.03454  -0.96056  -0.95942  -0.87073  -0.86953
 Alpha  occ. eigenvalues --   -0.79742  -0.79504  -0.78355  -0.78191  -0.65259
 Alpha  occ. eigenvalues --   -0.64959  -0.61003  -0.60949  -0.59405  -0.59276
 Alpha  occ. eigenvalues --   -0.57656  -0.57551  -0.55389  -0.55182  -0.52754
 Alpha  occ. eigenvalues --   -0.52632  -0.52475  -0.52366  -0.50026  -0.49873
 Alpha  occ. eigenvalues --   -0.48089  -0.47777  -0.46786  -0.46516  -0.46001
 Alpha  occ. eigenvalues --   -0.45856  -0.45538  -0.45509  -0.43853  -0.43742
 Alpha virt. eigenvalues --    0.20060   0.22872   0.23710   0.23854   0.25457
 Alpha virt. eigenvalues --    0.26061   0.26454   0.28087   0.29244   0.29635
 Alpha virt. eigenvalues --    0.30720   0.31462   0.31711   0.31796   0.32035

 Mulliken charges:
               1
     1  C   -0.299894
     2  C   -0.306500
     3  C   -0.476781
     4  H    0.150142
     5  H    0.149139
     6  H    0.151054
     7  H    0.162115
     8  H    0.156476
     9  H    0.154853
    10  H    0.159193
    11  C   -0.302831
    12  C   -0.299249
    13  C   -0.475768
    14  H    0.149680
    15  H    0.153428
    16  H    0.152072
    17  H    0.151100
    18  H    0.155300
    19  H    0.155239
    20  H    0.160141
    21  C   -0.299095
    22  C   -0.299689
    23  C   -0.475812
    24  H    0.150393
    25  H    0.148842
    26  H    0.152192
    27  H    0.152057
    28  H    0.155259
    29  H    0.155425
    30  H    0.160446
    31  C   -0.297180
    32  C   -0.308302
    33  C   -0.479450
    34  H    0.149822
    35  H    0.149592
    36  H    0.154121
    37  H    0.158408
    38  H    0.155470
    39  H    0.156059
    40  H    0.162531
 Sum of Mulliken charges =  -0.00000

 Dipole moment (field-independent basis, Debye):
    X=             -0.0433    Y=             -0.0259    Z=              0.0226  Tot=              0.0553
 Quadrupole moment (field-independent basis, Debye-Ang):
   XX=            -84.7638   YY=            -85.5801   ZZ=            -84.4869
   XY=              1.2831   XZ=             -0.7775   YZ=              0.7807

 Normal termination of Gaussian 16 at Wed May  5 21:18:16 2021.
