 Gaussian 16, Revision A.03,
 Gaussian 16:  EM64L-G16RevA.03 25-Dec-2016

 -------------
 #p 6-31g* mp2
 -------------

 ------------------------------------------------------
 Input file generated by CHIRIPA (05-May-2021 14:57:26)
 ------------------------------------------------------
 Symbolic Z-matrix:
 Charge =  0 Multiplicity = 1

                         Standard orientation:
 ---------------------------------------------------------------------
 Center     Atomic      Atomic             Coordinates (Angstroms)
 Number     Number       Type             X           Y           Z
 ---------------------------------------------------------------------
      1          6           0       -2.107164   -1.500976    1.402289
      2          6           0       -3.356871   -2.022019    1.051195
      3          6           0       -4.245883   -1.272678    0.274862
      4          6           0       -3.850888   -0.000172   -0.135014
      5          6           0       -2.612704    0.546610    0.198482
      6          6           0       -1.739717   -0.220582    0.975564
      7          1           0       -1.422782   -2.090016    2.005655
      8          1           0       -3.644908   -3.016096    1.381182
      9          1           0       -5.219480   -1.651650   -0.011332
     10          1           0       -2.353738    1.540657   -0.145357
     11          1           0       -0.769819    0.186625    1.246720
     12          7           0       -4.783563    0.802570   -0.957280
     13          8           0       -4.411795    1.921030   -1.305809
     14          8           0       -5.868702    0.298100   -1.237673
     15          6           0        2.643163    1.762707    1.611117
     16          6           0        2.283555    0.411440    1.646918
     17          6           0        2.861104   -0.500755    0.758727
     18          6           0        3.799070   -0.025131   -0.156311
     19          6           0        4.178089    1.315014   -0.216697
     20          6           0        3.587617    2.209394    0.681065
     21          1           0        2.189489    2.464403    2.304803
     22          1           0        1.550359    0.061710    2.368136
     23          1           0        2.601003   -1.552292    0.764630
     24          1           0        4.911917    1.633842   -0.946946
     25          1           0        3.868810    3.258236    0.650976
     26          7           0        4.417335   -0.981401   -1.101665
     27          8           0        5.241201   -0.537214   -1.898271
     28          8           0        4.066361   -2.157006   -1.028126
 ---------------------------------------------------------------------

 SCF Done:  E(RHF) =  -868.336873138     A.U. after   16 cycles
 E2 =    -0.2600086936D+01 EUMP2 =    -0.87093696007433D+03

 The electronic state is 1-A.
 Alpha  occ. eigenvalues --  -20.61357 -20.61345 -20.61033 -20.61025 -15.86417
 Alpha  occ. eigenvalues --  -15.86088 -11.31946 -11.31527 -11.28637 -11.28516
 Alpha  occ. eigenvalues --  -11.28358 -11.28127 -11.28083 -11.27920 -11.27721
 Alpha  occ. eigenvalues --  -11.27517 -11.27183 -11.27124  -1.60425  -1.60105
 Alpha  occ. eigenvalues --   -1.39975  -1.39656  -1.20162  -1.19714  -1.09522
 Alpha  occ. eigenvalues --   -1.09109  -1.05606  -1.05128  -0.96320  -0.95928
 Alpha  occ. eigenvalues --   -0.87000  -0.86533  -0.83162  -0.82755  -0.78186
 Alpha  occ. eigenvalues --   -0.77777  -0.72631  -0.72307  -0.71750  -0.71427
 Alpha  occ. eigenvalues --   -0.71251  -0.70856  -0.65817  -0.65732  -0.65375
 Alpha  occ. eigenvalues --   -0.65087  -0.62973  -0.62439  -0.56080  -0.55676
 Alpha  occ. eigenvalues --   -0.53942  -0.53734  -0.53450  -0.53148  -0.49403
 Alpha  occ. eigenvalues --   -0.49375  -0.49070  -0.49055  -0.45344  -0.45045
 Alpha  occ. eigenvalues --   -0.38142  -0.37719  -0.37204  -0.36717
 Alpha virt. eigenvalues --    0.04384   0.04759   0.10273   0.10912   0.15734
 Alpha virt. eigenvalues --    0.16228   0.19012   0.21907   0.25256   0.27107
 Alpha virt. eigenvalues --    0.27865   0.28701   0.30206   0.30840   0.31773

 Mulliken charges:
               1
     1  C   -0.171727
     2  C   -0.217660
     3  C   -0.170387
     4  C    0.159424
     5  C   -0.171581
     6  C   -0.221315
     7  H    0.221577
     8  H    0.225155
     9  H    0.277142
    10  H    0.275800
    11  H    0.220332
    12  N    0.488069
    13  O   -0.460228
    14  O   -0.459020
    15  C   -0.172003
    16  C   -0.223947
    17  C   -0.169258
    18  C    0.159028
    19  C   -0.168261
    20  C   -0.218184
    21  H    0.227948
    22  H    0.216437
    23  H    0.275032
    24  H    0.279128
    25  H    0.227376
    26  N    0.488243
    27  O   -0.457364
    28  O   -0.459756
 Sum of Mulliken charges =  -0.00000

 Dipole moment (field-independent basis, Debye):
    X=              1.2689    Y=              0.6007    Z=              6.0684  Tot=              6.2287
 Quadrupole moment (field-independent basis, Debye-Ang):
   XX=           -142.3484   YY=            -99.6636   ZZ=           -107.4507
   XY=             29.5542   XZ=             -0.0927   YZ=             -2.0271

 Normal termination of Gaussian 16 at Wed May  5 19:33:27 2021.
