 Gaussian 16, Revision A.03,
 Gaussian 16:  EM64L-G16RevA.03 25-Dec-2016

 -------------
 #p 6-31g* mp2
 -------------

 ------------------------------------------------------
 Input file generated by CHIRIPA (05-May-2021 14:57:23)
 ------------------------------------------------------
 Symbolic Z-matrix:
 Charge =  0 Multiplicity = 1

                         Standard orientation:
 ---------------------------------------------------------------------
 Center     Atomic      Atomic             Coordinates (Angstroms)
 Number     Number       Type             X           Y           Z
 ---------------------------------------------------------------------
      1          6           0       -4.800643    1.666954   -1.144988
      2          6           0       -3.541103    2.011699   -0.643760
      3          6           0       -2.782111    1.080257    0.071009
      4          6           0       -3.315740   -0.192598    0.266896
      5          6           0       -4.567402   -0.566255   -0.219941
      6          6           0       -5.308877    0.381343   -0.931855
      7          1           0       -5.383442    2.396796   -1.699129
      8          1           0       -3.143881    3.009378   -0.807759
      9          1           0       -1.804151    1.320519    0.470116
     10          1           0       -4.936804   -1.568617   -0.040415
     11          1           0       -6.286752    0.110818   -1.319955
     12          7           0       -2.521502   -1.187226    1.022079
     13          8           0       -3.014060   -2.302005    1.181111
     14          8           0       -1.421458   -0.833204    1.440659
     15          6           0        3.914022    2.360085    0.701360
     16          6           0        2.606219    1.863931    0.703528
     17          6           0        2.335575    0.573623    0.238335
     18          6           0        3.401455   -0.196721   -0.224008
     19          6           0        4.715190    0.269295   -0.238883
     20          6           0        4.962484    1.562589    0.230991
     21          1           0        4.115195    3.363588    1.064551
     22          1           0        1.790002    2.481037    1.068240
     23          1           0        1.332594    0.164532    0.228792
     24          1           0        5.508107   -0.369471   -0.608584
     25          1           0        5.979135    1.945290    0.228132
     26          7           0        3.127296   -1.564293   -0.718965
     27          8           0        4.083839   -2.223038   -1.121108
     28          8           0        1.961059   -1.951557   -0.695397
 ---------------------------------------------------------------------

 SCF Done:  E(RHF) =  -868.337436913     A.U. after   16 cycles
 E2 =    -0.2599697489D+01 EUMP2 =    -0.87093713440161D+03

 The electronic state is 1-A.
 Alpha  occ. eigenvalues --  -20.60876 -20.60839 -20.60147 -20.60098 -15.85904
 Alpha  occ. eigenvalues --  -15.85183 -11.31342 -11.30670 -11.28000 -11.27866
 Alpha  occ. eigenvalues --  -11.27649 -11.27316 -11.27196 -11.27117 -11.26983
 Alpha  occ. eigenvalues --  -11.26904 -11.26362 -11.26353  -1.59900  -1.59204
 Alpha  occ. eigenvalues --   -1.39464  -1.38748  -1.19512  -1.18884  -1.08885
 Alpha  occ. eigenvalues --   -1.08269  -1.04938  -1.04310  -0.95716  -0.95069
 Alpha  occ. eigenvalues --   -0.86332  -0.85704  -0.82559  -0.81901  -0.77608
 Alpha  occ. eigenvalues --   -0.76905  -0.72129  -0.71400  -0.71200  -0.70632
 Alpha  occ. eigenvalues --   -0.70533  -0.69994  -0.65174  -0.64948  -0.64541
 Alpha  occ. eigenvalues --   -0.64332  -0.62307  -0.61633  -0.55424  -0.54838
 Alpha  occ. eigenvalues --   -0.53242  -0.53042  -0.52638  -0.52408  -0.48884
 Alpha  occ. eigenvalues --   -0.48859  -0.48183  -0.48135  -0.44840  -0.44126
 Alpha  occ. eigenvalues --   -0.37476  -0.36901  -0.36538  -0.35919
 Alpha virt. eigenvalues --    0.04932   0.05626   0.11109   0.11732   0.16397
 Alpha virt. eigenvalues --    0.17066   0.20198   0.21993   0.25437   0.27474
 Alpha virt. eigenvalues --    0.28342   0.29186   0.31180   0.31321   0.32237

 Mulliken charges:
               1
     1  C   -0.170716
     2  C   -0.217567
     3  C   -0.169357
     4  C    0.161249
     5  C   -0.169902
     6  C   -0.217951
     7  H    0.226007
     8  H    0.221368
     9  H    0.265872
    10  H    0.277548
    11  H    0.224685
    12  N    0.491818
    13  O   -0.454222
    14  O   -0.466003
    15  C   -0.170921
    16  C   -0.219870
    17  C   -0.175010
    18  C    0.157133
    19  C   -0.170629
    20  C   -0.219404
    21  H    0.222791
    22  H    0.217418
    23  H    0.289752
    24  H    0.274625
    25  H    0.221490
    26  N    0.487031
    27  O   -0.464083
    28  O   -0.453152
 Sum of Mulliken charges =  -0.00000

 Dipole moment (field-independent basis, Debye):
    X=             -2.1451    Y=              8.0728    Z=             -0.9252  Tot=              8.4040
 Quadrupole moment (field-independent basis, Debye-Ang):
   XX=            -72.5361   YY=           -106.8653   ZZ=           -108.4778
   XY=              7.3817   XZ=             13.5872   YZ=              0.4349

 Normal termination of Gaussian 16 at Fri May  7 00:15:35 2021.
