 Gaussian 16, Revision A.03,
 Gaussian 16:  EM64L-G16RevA.03 25-Dec-2016

 -------------
 #p 6-31g* mp2
 -------------

 ------------------------------------------------------
 Input file generated by CHIRIPA (05-May-2021 14:53:16)
 ------------------------------------------------------
 Symbolic Z-matrix:
 Charge =  0 Multiplicity = 1

                         Standard orientation:
 ---------------------------------------------------------------------
 Center     Atomic      Atomic             Coordinates (Angstroms)
 Number     Number       Type             X           Y           Z
 ---------------------------------------------------------------------
      1          6           0        3.868610   -0.426174   -0.265048
      2          6           0        3.191937   -1.325346    0.770127
      3          6           0        1.912435   -1.975164    0.242484
      4          1           0        3.162717    0.354135   -0.580924
      5          1           0        4.099941   -1.019473   -1.160525
      6          1           0        2.963201   -0.730849    1.663922
      7          1           0        3.899587   -2.103490    1.083717
      8          1           0        2.127583   -2.591703   -0.636261
      9          1           0        1.185876   -1.211263   -0.052760
     10          1           0        1.445095   -2.613612    0.998683
     11          6           0        5.149052    0.230617    0.247612
     12          6           0        5.825725    1.129789   -0.787563
     13          6           0        7.105227    1.779607   -0.259920
     14          1           0        4.917722    0.823916    1.143089
     15          1           0        5.854945   -0.549692    0.563488
     16          1           0        5.118075    1.907934   -1.101153
     17          1           0        6.054461    0.535292   -1.681358
     18          1           0        7.831786    1.015706    0.035323
     19          1           0        6.890080    2.396146    0.618825
     20          1           0        7.572567    2.418055   -1.016119
     21          6           0       -4.950400    2.156218    0.044306
     22          6           0       -3.818420    2.069449    0.861383
     23          6           0       -3.019964    0.921906    0.848806
     24          6           0       -3.384482   -0.124681    0.003186
     25          6           0       -4.506210   -0.068323   -0.822550
     26          6           0       -5.290084    1.088936   -0.793575
     27          1           0       -5.564996    3.051432    0.060447
     28          1           0       -3.552205    2.896763    1.513093
     29          1           0       -2.138248    0.828178    1.471069
     30          1           0       -4.746166   -0.909378   -1.461665
     31          1           0       -6.168630    1.153539   -1.429205
     32          7           0       -2.546912   -1.344677   -0.018808
     33          8           0       -2.889514   -2.252920   -0.772703
     34          8           0       -1.563680   -1.369568    0.718263
 ---------------------------------------------------------------------

 SCF Done:  E(RHF) =  -669.535594193     A.U. after   15 cycles
 E2 =    -0.2090876335D+01 EUMP2 =    -0.67162647052731D+03

 The electronic state is 1-A.
 Alpha  occ. eigenvalues --  -20.60877 -20.60868 -15.85907 -11.31266 -11.27835
 Alpha  occ. eigenvalues --  -11.27829 -11.27575 -11.26848 -11.26838 -11.21204
 Alpha  occ. eigenvalues --  -11.20852 -11.20764 -11.20661 -11.20566 -11.19477
 Alpha  occ. eigenvalues --   -1.59939  -1.39495  -1.19438  -1.08835  -1.07763
 Alpha  occ. eigenvalues --   -1.04839  -1.02751  -0.95676  -0.95158  -0.86242
 Alpha  occ. eigenvalues --   -0.86163  -0.82504  -0.78845  -0.77574  -0.77521
 Alpha  occ. eigenvalues --   -0.72130  -0.71258  -0.70546  -0.65093  -0.64842
 Alpha  occ. eigenvalues --   -0.64407  -0.62187  -0.60156  -0.58603  -0.56769
 Alpha  occ. eigenvalues --   -0.55342  -0.54457  -0.53169  -0.52932  -0.51808
 Alpha  occ. eigenvalues --   -0.51592  -0.49189  -0.48889  -0.48810  -0.47145
 Alpha  occ. eigenvalues --   -0.45935  -0.45144  -0.45039  -0.44718  -0.42987
 Alpha  occ. eigenvalues --   -0.37417  -0.36443
 Alpha virt. eigenvalues --    0.04955   0.11212   0.16429   0.21336   0.23462
 Alpha virt. eigenvalues --    0.25128   0.27215   0.27298   0.28076   0.28170
 Alpha virt. eigenvalues --    0.28987   0.30888   0.32109   0.32353   0.32600

 Mulliken charges:
               1
     1  C   -0.297040
     2  C   -0.301102
     3  C   -0.471565
     4  H    0.146816
     5  H    0.148765
     6  H    0.147865
     7  H    0.147938
     8  H    0.149283
     9  H    0.163292
    10  H    0.167787
    11  C   -0.297304
    12  C   -0.298913
    13  C   -0.475221
    14  H    0.147368
    15  H    0.149043
    16  H    0.150176
    17  H    0.151731
    18  H    0.155017
    19  H    0.153943
    20  H    0.158666
    21  C   -0.170718
    22  C   -0.218499
    23  C   -0.171114
    24  C    0.158131
    25  C   -0.170789
    26  C   -0.218531
    27  H    0.225876
    28  H    0.223663
    29  H    0.275482
    30  H    0.275873
    31  H    0.223737
    32  N    0.488940
    33  O   -0.459159
    34  O   -0.459439
 Sum of Mulliken charges =  -0.00000

 Dipole moment (field-independent basis, Debye):
    X=             -3.2540    Y=              4.2291    Z=              0.0863  Tot=              5.3368
 Quadrupole moment (field-independent basis, Debye-Ang):
   XX=            -75.0576   YY=            -95.1749   ZZ=            -92.9354
   XY=            -14.0936   XZ=              1.7856   YZ=              1.7750

 Normal termination of Gaussian 16 at Wed May  5 21:59:33 2021.
