 Gaussian 16, Revision A.03,
 Gaussian 16:  EM64L-G16RevA.03 25-Dec-2016

 -------------
 #p 6-31g* mp2
 -------------

 ------------------------------------------------------
 Input file generated by CHIRIPA (05-May-2021 14:51:13)
 ------------------------------------------------------
 Symbolic Z-matrix:
 Charge =  0 Multiplicity = 1

                         Standard orientation:
 ---------------------------------------------------------------------
 Center     Atomic      Atomic             Coordinates (Angstroms)
 Number     Number       Type             X           Y           Z
 ---------------------------------------------------------------------
      1          6           0        3.454388    0.698230   -0.183466
      2          6           0        4.006397    2.036630    0.308423
      3          6           0        3.107878    3.217780   -0.059468
      4          1           0        3.328544    0.739297   -1.274072
      5          1           0        2.452698    0.544336    0.241185
      6          1           0        5.007316    2.187313   -0.115926
      7          1           0        4.131122    1.992306    1.397962
      8          1           0        2.111349    3.094251    0.376731
      9          1           0        2.992522    3.290365   -1.145758
     10          1           0        3.521370    4.164547    0.301804
     11          6           0        4.341553   -0.492135    0.176667
     12          6           0        3.789544   -1.830536   -0.315222
     13          6           0        4.688063   -3.011685    0.052669
     14          1           0        5.343243   -0.338241   -0.247984
     15          1           0        4.467397   -0.533202    1.267273
     16          1           0        3.664820   -1.786212   -1.404761
     17          1           0        2.788625   -1.981218    0.109126
     18          1           0        4.803419   -3.084270    1.138959
     19          1           0        5.684592   -2.888156   -0.383531
     20          1           0        4.274571   -3.958452   -0.308603
     21          6           0       -4.573272    0.187713   -0.203622
     22          6           0       -5.765226   -0.603527    0.335982
     23          6           0       -7.109215   -0.009516   -0.086676
     24          1           0       -4.642646    1.226921    0.145918
     25          1           0       -4.631273    0.222295   -1.300360
     26          1           0       -5.704245   -0.637785    1.431301
     27          1           0       -5.692904   -1.641019   -0.014725
     28          1           0       -7.195798    0.009754   -1.177882
     29          1           0       -7.207202    1.018688    0.276359
     30          1           0       -7.947537   -0.590686    0.309958
     31          6           0       -3.222668   -0.393808    0.210421
     32          6           0       -2.030716    0.397433   -0.329183
     33          6           0       -0.686727   -0.196579    0.093475
     34          1           0       -3.164667   -0.428391    1.307160
     35          1           0       -3.153295   -1.433016   -0.139119
     36          1           0       -2.103037    1.434925    0.021524
     37          1           0       -2.091696    0.431690   -1.424502
     38          1           0       -0.588739   -1.224783   -0.269560
     39          1           0       -0.600144   -0.215849    1.184683
     40          1           0        0.151595    0.384591   -0.303159
 ---------------------------------------------------------------------

 SCF Done:  E(RHF) =  -470.733255823     A.U. after   11 cycles
 E2 =    -0.1582666407D+01 EUMP2 =    -0.47231592223006D+03

 The electronic state is 1-A.
 Alpha  occ. eigenvalues --  -11.21609 -11.21605 -11.21575 -11.21544 -11.21409
 Alpha  occ. eigenvalues --  -11.21351 -11.21350 -11.21286 -11.21073 -11.21068
 Alpha  occ. eigenvalues --  -11.21064 -11.21033  -1.08437  -1.08388  -1.03537
 Alpha  occ. eigenvalues --   -1.03494  -0.95999  -0.95937  -0.87024  -0.86951
 Alpha  occ. eigenvalues --   -0.79618  -0.79548  -0.78263  -0.78188  -0.65066
 Alpha  occ. eigenvalues --   -0.65027  -0.60942  -0.60887  -0.59411  -0.59279
 Alpha  occ. eigenvalues --   -0.57644  -0.57513  -0.55281  -0.55233  -0.52784
 Alpha  occ. eigenvalues --   -0.52620  -0.52435  -0.52304  -0.49942  -0.49874
 Alpha  occ. eigenvalues --   -0.47977  -0.47819  -0.46648  -0.46567  -0.45800
 Alpha  occ. eigenvalues --   -0.45749  -0.45716  -0.45671  -0.43763  -0.43677
 Alpha virt. eigenvalues --    0.21907   0.23007   0.23739   0.24536   0.25791
 Alpha virt. eigenvalues --    0.26637   0.27030   0.27428   0.27964   0.29163
 Alpha virt. eigenvalues --    0.30291   0.31368   0.31779   0.31798   0.32228

 Mulliken charges:
               1
     1  C   -0.306479
     2  C   -0.298969
     3  C   -0.476482
     4  H    0.148706
     5  H    0.158956
     6  H    0.151797
     7  H    0.151768
     8  H    0.155243
     9  H    0.155034
    10  H    0.160382
    11  C   -0.297583
    12  C   -0.300746
    13  C   -0.475654
    14  H    0.149224
    15  H    0.149397
    16  H    0.151567
    17  H    0.153873
    18  H    0.155089
    19  H    0.155001
    20  H    0.160040
    21  C   -0.298251
    22  C   -0.299619
    23  C   -0.475703
    24  H    0.149667
    25  H    0.149581
    26  H    0.151887
    27  H    0.151943
    28  H    0.155206
    29  H    0.155193
    30  H    0.160253
    31  C   -0.298581
    32  C   -0.299423
    33  C   -0.482123
    34  H    0.149364
    35  H    0.149661
    36  H    0.151896
    37  H    0.152201
    38  H    0.155656
    39  H    0.153960
    40  H    0.167069
 Sum of Mulliken charges =  -0.00000

 Dipole moment (field-independent basis, Debye):
    X=             -0.0136    Y=             -0.0010    Z=             -0.0020  Tot=              0.0137
 Quadrupole moment (field-independent basis, Debye-Ang):
   XX=            -86.0722   YY=            -85.4857   ZZ=            -83.3748
   XY=              0.8909   XZ=             -0.7547   YZ=              0.6611

 Normal termination of Gaussian 16 at Thu May  6 05:33:37 2021.
