 Gaussian 16, Revision A.03,
 Gaussian 16:  EM64L-G16RevA.03 25-Dec-2016

 -------------
 #p 6-31g* mp2
 -------------

 ------------------------------------------------------
 Input file generated by CHIRIPA (05-May-2021 14:57:25)
 ------------------------------------------------------
 Symbolic Z-matrix:
 Charge =  0 Multiplicity = 1

                         Standard orientation:
 ---------------------------------------------------------------------
 Center     Atomic      Atomic             Coordinates (Angstroms)
 Number     Number       Type             X           Y           Z
 ---------------------------------------------------------------------
      1          6           0       -1.178138   -0.956384    0.771896
      2          6           0       -1.537473   -0.889082   -0.578241
      3          6           0       -2.824140   -0.489398   -0.951453
      4          6           0       -3.730398   -0.162688    0.056142
      5          6           0       -3.402494   -0.219775    1.409844
      6          6           0       -2.110152   -0.622105    1.759888
      7          1           0       -0.176419   -1.267895    1.052817
      8          1           0       -0.815724   -1.148101   -1.347677
      9          1           0       -3.128895   -0.428500   -1.989160
     10          1           0       -4.143733    0.044608    2.154213
     11          1           0       -1.833873   -0.673450    2.809210
     12          7           0       -5.095539    0.261840   -0.326697
     13          8           0       -5.875579    0.544454    0.580112
     14          8           0       -5.359648    0.303932   -1.526327
     15          6           0        2.636106    2.600803   -0.073217
     16          6           0        1.802202    1.556944   -0.487323
     17          6           0        2.273214    0.240956   -0.516800
     18          6           0        3.589447    0.003711   -0.123687
     19          6           0        4.444686    1.022307    0.293830
     20          6           0        3.952366    2.330628    0.315354
     21          1           0        2.261936    3.620117   -0.053408
     22          1           0        0.779531    1.763812   -0.789644
     23          1           0        1.649162   -0.586070   -0.833034
     24          1           0        5.459445    0.784968    0.589380
     25          1           0        4.602243    3.139321    0.637411
     26          7           0        4.099366   -1.385408   -0.150684
     27          8           0        5.262926   -1.568143    0.200562
     28          8           0        3.325825   -2.265162   -0.522577
 ---------------------------------------------------------------------

 SCF Done:  E(RHF) =  -868.337647951     A.U. after   16 cycles
 E2 =    -0.2600867502D+01 EUMP2 =    -0.87093851545249D+03

 The electronic state is 1-A.
 Alpha  occ. eigenvalues --  -20.61618 -20.61583 -20.61135 -20.61129 -15.86651
 Alpha  occ. eigenvalues --  -15.86194 -11.32021 -11.31631 -11.28641 -11.28492
 Alpha  occ. eigenvalues --  -11.28265 -11.28207 -11.28195 -11.27945 -11.27531
 Alpha  occ. eigenvalues --  -11.27504 -11.27307 -11.27179  -1.60675  -1.60211
 Alpha  occ. eigenvalues --   -1.40232  -1.39762  -1.20158  -1.19828  -1.09531
 Alpha  occ. eigenvalues --   -1.09203  -1.05562  -1.05242  -0.96387  -0.96013
 Alpha  occ. eigenvalues --   -0.86952  -0.86639  -0.83212  -0.82846  -0.78303
 Alpha  occ. eigenvalues --   -0.77880  -0.72866  -0.72409  -0.72002  -0.71539
 Alpha  occ. eigenvalues --   -0.71322  -0.70834  -0.65809  -0.65603  -0.65453
 Alpha  occ. eigenvalues --   -0.65218  -0.62962  -0.62502  -0.56008  -0.55708
 Alpha  occ. eigenvalues --   -0.53888  -0.53661  -0.53523  -0.53304  -0.49638
 Alpha  occ. eigenvalues --   -0.49609  -0.49173  -0.49158  -0.45636  -0.45151
 Alpha  occ. eigenvalues --   -0.38099  -0.37880  -0.37078  -0.36858
 Alpha virt. eigenvalues --    0.04164   0.04713   0.10425   0.10666   0.15668
 Alpha virt. eigenvalues --    0.16227   0.19026   0.21808   0.24879   0.27121
 Alpha virt. eigenvalues --    0.27583   0.28909   0.30335   0.30663   0.31317

 Mulliken charges:
               1
     1  C   -0.172513
     2  C   -0.229886
     3  C   -0.171160
     4  C    0.157938
     5  C   -0.170242
     6  C   -0.219569
     7  H    0.233187
     8  H    0.223737
     9  H    0.277116
    10  H    0.277170
    11  H    0.226434
    12  N    0.487993
    13  O   -0.459191
    14  O   -0.459717
    15  C   -0.171124
    16  C   -0.218731
    17  C   -0.181574
    18  C    0.160428
    19  C   -0.170645
    20  C   -0.217590
    21  H    0.229488
    22  H    0.228431
    23  H    0.268450
    24  H    0.277685
    25  H    0.226638
    26  N    0.487988
    27  O   -0.456062
    28  O   -0.464679
 Sum of Mulliken charges =  -0.00000

 Dipole moment (field-independent basis, Debye):
    X=              3.0704    Y=              3.5396    Z=              1.5732  Tot=              4.9428
 Quadrupole moment (field-independent basis, Debye-Ang):
   XX=           -149.0168   YY=           -104.6519   ZZ=           -100.1298
   XY=             24.4745   XZ=             -3.8279   YZ=              0.2172

 Normal termination of Gaussian 16 at Fri May  7 08:06:32 2021.
