 Gaussian 16, Revision A.03,
 Gaussian 16:  EM64L-G16RevA.03 25-Dec-2016

 -------------
 #p 6-31g* mp2
 -------------

 ------------------------------------------------------
 Input file generated by CHIRIPA (05-May-2021 14:57:26)
 ------------------------------------------------------
 Symbolic Z-matrix:
 Charge =  0 Multiplicity = 1

                         Standard orientation:
 ---------------------------------------------------------------------
 Center     Atomic      Atomic             Coordinates (Angstroms)
 Number     Number       Type             X           Y           Z
 ---------------------------------------------------------------------
      1          6           0        2.410401    2.350697   -0.792070
      2          6           0        3.625578    2.326962   -0.099754
      3          6           0        4.169704    1.115887    0.338166
      4          6           0        3.468782   -0.057815    0.065362
      5          6           0        2.256074   -0.066867   -0.622058
      6          6           0        1.730725    1.155813   -1.050557
      7          1           0        1.995004    3.295996   -1.128597
      8          1           0        4.155619    3.253371    0.102403
      9          1           0        5.108691    1.068660    0.876208
     10          1           0        1.750843   -1.006720   -0.808699
     11          1           0        0.786818    1.171221   -1.588001
     12          7           0        4.034884   -1.346068    0.523981
     13          8           0        3.397836   -2.366287    0.271079
     14          8           0        5.104925   -1.311189    1.127665
     15          6           0       -3.955783    2.192501    0.731846
     16          6           0       -4.750878    1.117281    1.142028
     17          6           0       -4.438816   -0.187362    0.748235
     18          6           0       -3.319380   -0.381404   -0.059540
     19          6           0       -2.507681    0.669180   -0.484635
     20          6           0       -2.838692    1.965419   -0.078747
     21          1           0       -4.205560    3.202714    1.042452
     22          1           0       -5.619023    1.290658    1.771559
     23          1           0       -5.037123   -1.038010    1.051293
     24          1           0       -1.648557    0.464965   -1.112027
     25          1           0       -2.219405    2.798535   -0.398816
     26          7           0       -2.978984   -1.758123   -0.482833
     27          8           0       -1.987453   -1.902577   -1.194617
     28          8           0       -3.710158   -2.666671   -0.094812
 ---------------------------------------------------------------------

 SCF Done:  E(RHF) =  -868.336702204     A.U. after   16 cycles
 E2 =    -0.2599981570D+01 EUMP2 =    -0.87093668377451D+03

 The electronic state is 1-A.
 Alpha  occ. eigenvalues --  -20.61238 -20.61206 -20.60618 -20.60589 -15.86281
 Alpha  occ. eigenvalues --  -15.85666 -11.31728 -11.31179 -11.28414 -11.28243
 Alpha  occ. eigenvalues --  -11.28031 -11.27817 -11.27738 -11.27675 -11.27396
 Alpha  occ. eigenvalues --  -11.27270 -11.26942 -11.26867  -1.60288  -1.59682
 Alpha  occ. eigenvalues --   -1.39846  -1.39228  -1.19900  -1.19406  -1.09270
 Alpha  occ. eigenvalues --   -1.08793  -1.05333  -1.04833  -0.96100  -0.95583
 Alpha  occ. eigenvalues --   -0.86724  -0.86239  -0.82943  -0.82414  -0.77997
 Alpha  occ. eigenvalues --   -0.77407  -0.72498  -0.71881  -0.71607  -0.71023
 Alpha  occ. eigenvalues --   -0.71010  -0.70531  -0.65563  -0.65369  -0.65065
 Alpha  occ. eigenvalues --   -0.64873  -0.62742  -0.62111  -0.55810  -0.55386
 Alpha  occ. eigenvalues --   -0.53629  -0.53467  -0.53154  -0.52907  -0.49262
 Alpha  occ. eigenvalues --   -0.49242  -0.48663  -0.48619  -0.45233  -0.44600
 Alpha  occ. eigenvalues --   -0.37857  -0.37437  -0.36932  -0.36424
 Alpha virt. eigenvalues --    0.04568   0.05128   0.10722   0.11180   0.16057
 Alpha virt. eigenvalues --    0.16506   0.18579   0.22063   0.24640   0.26959
 Alpha virt. eigenvalues --    0.28141   0.29333   0.30134   0.31074   0.32584

 Mulliken charges:
               1
     1  C   -0.171479
     2  C   -0.218934
     3  C   -0.170007
     4  C    0.158065
     5  C   -0.171539
     6  C   -0.222443
     7  H    0.221383
     8  H    0.222783
     9  H    0.276167
    10  H    0.288065
    11  H    0.217319
    12  N    0.487615
    13  O   -0.454976
    14  O   -0.461796
    15  C   -0.170359
    16  C   -0.218083
    17  C   -0.169274
    18  C    0.160712
    19  C   -0.173388
    20  C   -0.217477
    21  H    0.226760
    22  H    0.225823
    23  H    0.278099
    24  H    0.269892
    25  H    0.218083
    26  N    0.488455
    27  O   -0.463903
    28  O   -0.455565
 Sum of Mulliken charges =  -0.00000

 Dipole moment (field-independent basis, Debye):
    X=             -3.3251    Y=              9.1659    Z=              0.0145  Tot=              9.7504
 Quadrupole moment (field-independent basis, Debye-Ang):
   XX=           -103.9169   YY=           -108.2495   ZZ=           -104.6175
   XY=              3.7751   XZ=            -11.5972   YZ=             -0.1868

 Normal termination of Gaussian 16 at Fri May  7 00:28:26 2021.
