 Gaussian 16, Revision A.03,
 Gaussian 16:  EM64L-G16RevA.03 25-Dec-2016

 -------------
 #p 6-31g* mp2
 -------------

 ------------------------------------------------------
 Input file generated by CHIRIPA (05-May-2021 14:53:12)
 ------------------------------------------------------
 Symbolic Z-matrix:
 Charge =  0 Multiplicity = 1

                         Standard orientation:
 ---------------------------------------------------------------------
 Center     Atomic      Atomic             Coordinates (Angstroms)
 Number     Number       Type             X           Y           Z
 ---------------------------------------------------------------------
      1          6           0        3.375793   -0.169017   -0.461113
      2          6           0        3.281317   -1.450308    0.367953
      3          6           0        4.497569   -2.359849    0.191151
      4          1           0        3.486637   -0.433416   -1.521656
      5          1           0        4.286811    0.376249   -0.178047
      6          1           0        2.370029   -1.992306    0.084389
      7          1           0        3.170492   -1.182826    1.426626
      8          1           0        5.413442   -1.841350    0.492710
      9          1           0        4.608430   -2.655429   -0.857154
     10          1           0        4.409159   -3.269890    0.792706
     11          6           0        2.167274    0.750552   -0.294971
     12          6           0        2.261750    2.031843   -1.124038
     13          6           0        1.045497    2.941384   -0.947235
     14          1           0        1.256256    0.205286   -0.578037
     15          1           0        2.056430    1.014952    0.765572
     16          1           0        2.372574    1.764361   -2.182710
     17          1           0        3.173038    2.573841   -0.840473
     18          1           0        0.934636    3.236964    0.101070
     19          1           0        0.129625    2.422885   -1.248794
     20          1           0        1.133907    3.851425   -1.548790
     21          6           0       -1.143817    1.292359    2.031328
     22          6           0       -1.009315   -0.094926    2.149109
     23          6           0       -1.571141   -0.946439    1.193167
     24          6           0       -2.264009   -0.374064    0.127517
     25          6           0       -2.415203    1.004120   -0.017533
     26          6           0       -1.845095    1.836494    0.950287
     27          1           0       -0.704161    1.946401    2.778541
     28          1           0       -0.465234   -0.520305    2.987603
     29          1           0       -1.482178   -2.023959    1.259906
     30          1           0       -2.963255    1.398689   -0.864512
     31          1           0       -1.951141    2.913507    0.856255
     32          7           0       -2.863173   -1.265392   -0.890784
     33          8           0       -3.468793   -0.736249   -1.820230
     34          8           0       -2.715832   -2.476282   -0.740201
 ---------------------------------------------------------------------

 SCF Done:  E(RHF) =  -669.534715805     A.U. after   15 cycles
 E2 =    -0.2094344549D+01 EUMP2 =    -0.67162906035362D+03

 The electronic state is 1-A.
 Alpha  occ. eigenvalues --  -20.60819 -20.60814 -15.85872 -11.31252 -11.27773
 Alpha  occ. eigenvalues --  -11.27762 -11.27491 -11.26812 -11.26783 -11.21875
 Alpha  occ. eigenvalues --  -11.21866 -11.21609 -11.21549 -11.21433 -11.21256
 Alpha  occ. eigenvalues --   -1.59896  -1.39448  -1.19400  -1.08806  -1.08656
 Alpha  occ. eigenvalues --   -1.04801  -1.03793  -0.96245  -0.95630  -0.87277
 Alpha  occ. eigenvalues --   -0.86187  -0.82459  -0.79874  -0.78484  -0.77507
 Alpha  occ. eigenvalues --   -0.72087  -0.71221  -0.70497  -0.65304  -0.65048
 Alpha  occ. eigenvalues --   -0.64792  -0.62143  -0.61198  -0.59621  -0.57870
 Alpha  occ. eigenvalues --   -0.55537  -0.55292  -0.53261  -0.52971  -0.52869
 Alpha  occ. eigenvalues --   -0.52620  -0.50195  -0.48848  -0.48843  -0.48155
 Alpha  occ. eigenvalues --   -0.46902  -0.46011  -0.45897  -0.44851  -0.44038
 Alpha  occ. eigenvalues --   -0.37317  -0.36311
 Alpha virt. eigenvalues --    0.04968   0.11186   0.16410   0.20840   0.22768
 Alpha virt. eigenvalues --    0.23922   0.26053   0.26460   0.27199   0.28256
 Alpha virt. eigenvalues --    0.28417   0.30591   0.30887   0.31712   0.31833

 Mulliken charges:
               1
     1  C   -0.298770
     2  C   -0.299374
     3  C   -0.475676
     4  H    0.152255
     5  H    0.148613
     6  H    0.153637
     7  H    0.146224
     8  H    0.154820
     9  H    0.157723
    10  H    0.160169
    11  C   -0.297833
    12  C   -0.300157
    13  C   -0.475367
    14  H    0.154282
    15  H    0.143483
    16  H    0.154794
    17  H    0.150997
    18  H    0.145577
    19  H    0.158325
    20  H    0.159286
    21  C   -0.170804
    22  C   -0.215105
    23  C   -0.172553
    24  C    0.158929
    25  C   -0.175170
    26  C   -0.211034
    27  H    0.225120
    28  H    0.223804
    29  H    0.275641
    30  H    0.275719
    31  H    0.225181
    32  N    0.487836
    33  O   -0.460279
    34  O   -0.460292
 Sum of Mulliken charges =  -0.00000

 Dipole moment (field-independent basis, Debye):
    X=              2.0627    Y=              3.0902    Z=              3.5646  Tot=              5.1488
 Quadrupole moment (field-independent basis, Debye-Ang):
   XX=           -104.9787   YY=            -94.7674   ZZ=            -92.4679
   XY=             -8.9585   XZ=             -6.7685   YZ=             -2.7529

 Normal termination of Gaussian 16 at Thu May  6 05:44:59 2021.
