 Gaussian 16, Revision A.03,
 Gaussian 16:  EM64L-G16RevA.03 25-Dec-2016

 -------------
 #p 6-31g* mp2
 -------------

 ------------------------------------------------------
 Input file generated by CHIRIPA (05-May-2021 14:57:23)
 ------------------------------------------------------
 Symbolic Z-matrix:
 Charge =  0 Multiplicity = 1

                         Standard orientation:
 ---------------------------------------------------------------------
 Center     Atomic      Atomic             Coordinates (Angstroms)
 Number     Number       Type             X           Y           Z
 ---------------------------------------------------------------------
      1          6           0        6.004758    0.158772   -0.834896
      2          6           0        5.583309   -1.058679   -0.290180
      3          6           0        4.282666   -1.204213    0.201447
      4          6           0        3.425924   -0.106716    0.132276
      5          6           0        3.816193    1.119158   -0.404577
      6          6           0        5.121413    1.241895   -0.890258
      7          1           0        7.016906    0.262971   -1.214494
      8          1           0        6.267166   -1.901545   -0.245889
      9          1           0        3.930248   -2.135341    0.628319
     10          1           0        3.111727    1.941482   -0.435073
     11          1           0        5.445975    2.188577   -1.312749
     12          7           0        2.046570   -0.248719    0.649592
     13          8           0        1.310997    0.733278    0.577123
     14          8           0        1.727123   -1.339329    1.117738
     15          6           0       -3.012384    2.472413    0.450382
     16          6           0       -2.316097    1.420549    1.054771
     17          6           0       -2.662535    0.092929    0.786527
     18          6           0       -3.715216   -0.147657   -0.095103
     19          6           0       -4.428039    0.878708   -0.712961
     20          6           0       -4.064278    2.198618   -0.430003
     21          1           0       -2.736536    3.500745    0.664474
     22          1           0       -1.498752    1.630203    1.738903
     23          1           0       -2.140341   -0.740477    1.240582
     24          1           0       -5.238274    0.638331   -1.390571
     25          1           0       -4.606790    3.013509   -0.900831
     26          7           0       -4.091143   -1.549067   -0.386869
     27          8           0       -5.022385   -1.734528   -1.167272
     28          8           0       -3.447434   -2.435497    0.170374
 ---------------------------------------------------------------------

 SCF Done:  E(RHF) =  -868.339766636     A.U. after   16 cycles
 E2 =    -0.2598774176D+01 EUMP2 =    -0.87093854081179D+03

 The electronic state is 1-A.
 Alpha  occ. eigenvalues --  -20.61438 -20.61397 -20.59722 -20.59695 -15.86437
 Alpha  occ. eigenvalues --  -15.84753 -11.31599 -11.29936 -11.28165 -11.28118
 Alpha  occ. eigenvalues --  -11.27850 -11.27126 -11.27093 -11.26563 -11.26313
 Alpha  occ. eigenvalues --  -11.26231 -11.25603 -11.25290  -1.60479  -1.58791
 Alpha  occ. eigenvalues --   -1.40037  -1.38347  -1.19752  -1.18090  -1.09188
 Alpha  occ. eigenvalues --   -1.07542  -1.05125  -1.03431  -0.96057  -0.94401
 Alpha  occ. eigenvalues --   -0.86533  -0.84861  -0.82896  -0.81213  -0.77966
 Alpha  occ. eigenvalues --   -0.76270  -0.72674  -0.71773  -0.70980  -0.70860
 Alpha  occ. eigenvalues --   -0.70111  -0.69232  -0.65410  -0.65128  -0.63738
 Alpha  occ. eigenvalues --   -0.63427  -0.62475  -0.60764  -0.55636  -0.54017
 Alpha  occ. eigenvalues --   -0.53464  -0.53216  -0.51821  -0.51513  -0.49438
 Alpha  occ. eigenvalues --   -0.49411  -0.47742  -0.47719  -0.45480  -0.43791
 Alpha  occ. eigenvalues --   -0.37720  -0.36718  -0.36116  -0.35001
 Alpha virt. eigenvalues --    0.04557   0.06216   0.10940   0.12615   0.16089
 Alpha virt. eigenvalues --    0.17741   0.21092   0.22715   0.27016   0.27945
 Alpha virt. eigenvalues --    0.28769   0.29532   0.30684   0.32083   0.32305

 Mulliken charges:
               1
     1  C   -0.169990
     2  C   -0.218532
     3  C   -0.169996
     4  C    0.158182
     5  C   -0.170567
     6  C   -0.218491
     7  H    0.227110
     8  H    0.225439
     9  H    0.277726
    10  H    0.273653
    11  H    0.224014
    12  N    0.490192
    13  O   -0.469763
    14  O   -0.456892
    15  C   -0.173845
    16  C   -0.211350
    17  C   -0.170021
    18  C    0.156105
    19  C   -0.173855
    20  C   -0.219338
    21  H    0.220394
    22  H    0.234451
    23  H    0.284202
    24  H    0.270763
    25  H    0.217536
    26  N    0.487823
    27  O   -0.465982
    28  O   -0.458965
 Sum of Mulliken charges =  -0.00000

 Dipole moment (field-independent basis, Debye):
    X=              6.7433    Y=              5.2936    Z=             -0.6468  Tot=              8.5973
 Quadrupole moment (field-independent basis, Debye-Ang):
   XX=            -80.5361   YY=           -102.3019   ZZ=           -104.6211
   XY=            -19.7094   XZ=             -7.4956   YZ=             -2.8993

 Normal termination of Gaussian 16 at Thu May  6 05:00:52 2021.
