 Gaussian 16, Revision A.03,
 Gaussian 16:  EM64L-G16RevA.03 25-Dec-2016

 -------------
 #p 6-31g* mp2
 -------------

 ------------------------------------------------------
 Input file generated by CHIRIPA (05-May-2021 14:57:24)
 ------------------------------------------------------
 Symbolic Z-matrix:
 Charge =  0 Multiplicity = 1

                         Standard orientation:
 ---------------------------------------------------------------------
 Center     Atomic      Atomic             Coordinates (Angstroms)
 Number     Number       Type             X           Y           Z
 ---------------------------------------------------------------------
      1          6           0       -6.317794   -0.383324   -0.770117
      2          6           0       -6.130328    0.100336    0.528902
      3          6           0       -4.842094    0.260423    1.047912
      4          6           0       -3.759029   -0.074425    0.236655
      5          6           0       -3.913271   -0.558642   -1.061433
      6          6           0       -5.210619   -0.710692   -1.559747
      7          1           0       -7.322066   -0.504561   -1.165258
      8          1           0       -6.988321    0.355378    1.144407
      9          1           0       -4.668256    0.632795    2.050178
     10          1           0       -3.038450   -0.804419   -1.651093
     11          1           0       -5.353199   -1.086525   -2.568937
     12          7           0       -2.390409    0.090798    0.775153
     13          8           0       -1.452717   -0.211347    0.040251
     14          8           0       -2.281291    0.519315    1.921932
     15          6           0        5.778367   -1.603431    0.342998
     16          6           0        6.115481   -0.253071    0.203702
     17          6           0        5.129850    0.700385   -0.068331
     18          6           0        3.811179    0.266497   -0.195363
     19          6           0        3.443754   -1.071606   -0.062068
     20          6           0        4.445928   -2.007676    0.209903
     21          1           0        6.550454   -2.337346    0.554295
     22          1           0        7.149449    0.063751    0.306550
     23          1           0        5.362993    1.752224   -0.181012
     24          1           0        2.404397   -1.357092   -0.170023
     25          1           0        4.181203   -3.055709    0.317574
     26          7           0        2.758979    1.266675   -0.483318
     27          8           0        1.604526    0.858807   -0.590649
     28          8           0        3.108640    2.439545   -0.596235
 ---------------------------------------------------------------------

 SCF Done:  E(RHF) =  -868.335913128     A.U. after   16 cycles
 E2 =    -0.2600016071D+01 EUMP2 =    -0.87093592919975D+03

 The electronic state is 1-A.
 Alpha  occ. eigenvalues --  -20.60012 -20.59937 -20.59631 -20.59506 -15.85032
 Alpha  occ. eigenvalues --  -15.84614 -11.30640 -11.30272 -11.27247 -11.27229
 Alpha  occ. eigenvalues --  -11.27039 -11.26922 -11.26825 -11.26723 -11.26319
 Alpha  occ. eigenvalues --  -11.26307 -11.26001 -11.25959  -1.59045  -1.58655
 Alpha  occ. eigenvalues --   -1.38593  -1.38190  -1.18838  -1.18487  -1.08190
 Alpha  occ. eigenvalues --   -1.07839  -1.04279  -1.03931  -0.94984  -0.94614
 Alpha  occ. eigenvalues --   -0.85666  -0.85316  -0.81820  -0.81427  -0.76824
 Alpha  occ. eigenvalues --   -0.76424  -0.71305  -0.70750  -0.70372  -0.69993
 Alpha  occ. eigenvalues --   -0.69950  -0.69596  -0.64487  -0.64289  -0.64126
 Alpha  occ. eigenvalues --   -0.63946  -0.61624  -0.61265  -0.54779  -0.54447
 Alpha  occ. eigenvalues --   -0.52595  -0.52377  -0.52253  -0.52028  -0.48036
 Alpha  occ. eigenvalues --   -0.47993  -0.47623  -0.47557  -0.43941  -0.43523
 Alpha  occ. eigenvalues --   -0.36837  -0.36501  -0.35894  -0.35549
 Alpha virt. eigenvalues --    0.05722   0.06105   0.11757   0.12101   0.17164
 Alpha virt. eigenvalues --    0.17530   0.21849   0.22178   0.27743   0.28068
 Alpha virt. eigenvalues --    0.28758   0.29128   0.31381   0.31693   0.33015

 Mulliken charges:
               1
     1  C   -0.171634
     2  C   -0.218583
     3  C   -0.171302
     4  C    0.159115
     5  C   -0.170966
     6  C   -0.218614
     7  H    0.223636
     8  H    0.221695
     9  H    0.274924
    10  H    0.276518
    11  H    0.221802
    12  N    0.488087
    13  O   -0.450759
    14  O   -0.463422
    15  C   -0.171817
    16  C   -0.218956
    17  C   -0.171705
    18  C    0.158098
    19  C   -0.171444
    20  C   -0.219135
    21  H    0.222239
    22  H    0.220248
    23  H    0.273755
    24  H    0.283505
    25  H    0.221080
    26  N    0.487449
    27  O   -0.445478
    28  O   -0.468335
 Sum of Mulliken charges =  -0.00000

 Dipole moment (field-independent basis, Debye):
    X=             -1.2663    Y=             -4.1120    Z=             -0.9212  Tot=              4.4001
 Quadrupole moment (field-independent basis, Debye-Ang):
   XX=            -40.9648   YY=           -104.9176   ZZ=           -103.6398
   XY=             -8.0314   XZ=              7.4951   YZ=              2.7015

 Normal termination of Gaussian 16 at Fri May  7 12:35:23 2021.
