 Gaussian 16, Revision A.03,
 Gaussian 16:  EM64L-G16RevA.03 25-Dec-2016

 -------------
 #p 6-31g* mp2
 -------------

 ------------------------------------------------------
 Input file generated by CHIRIPA (05-May-2021 14:53:14)
 ------------------------------------------------------
 Symbolic Z-matrix:
 Charge =  0 Multiplicity = 1

                         Standard orientation:
 ---------------------------------------------------------------------
 Center     Atomic      Atomic             Coordinates (Angstroms)
 Number     Number       Type             X           Y           Z
 ---------------------------------------------------------------------
      1          6           0        5.284884   -0.019472   -0.554195
      2          6           0        6.807251    0.052107   -0.430673
      3          6           0        7.489535    0.435647   -1.744135
      4          1           0        5.020403   -0.748005   -1.332806
      5          1           0        4.905470    0.953824   -0.894980
      6          1           0        7.183552   -0.920621   -0.088893
      7          1           0        7.068134    0.780413    0.347868
      8          1           0        7.142251    1.415742   -2.086786
      9          1           0        7.258324   -0.294958   -2.526029
     10          1           0        8.577416    0.480962   -1.633138
     11          6           0        4.588515   -0.401760    0.750663
     12          6           0        3.066147   -0.473339    0.627142
     13          6           0        2.383864   -0.856880    1.940603
     14          1           0        4.967928   -1.375056    1.091449
     15          1           0        4.852995    0.326772    1.529275
     16          1           0        2.805264   -1.201646   -0.151399
     17          1           0        2.689846    0.499389    0.285362
     18          1           0        2.615074   -0.126275    2.722498
     19          1           0        2.731147   -1.836974    2.283255
     20          1           0        1.295982   -0.902195    1.829607
     21          6           0       -1.877230    1.461353    0.798198
     22          6           0       -3.028427    2.137849    0.381521
     23          6           0       -4.131241    1.429574   -0.104995
     24          6           0       -4.048173    0.039174   -0.161332
     25          6           0       -2.915333   -0.663525    0.246318
     26          6           0       -1.824449    0.065287    0.729388
     27          1           0       -1.025172    2.019535    1.174797
     28          1           0       -3.072236    3.222002    0.433830
     29          1           0       -5.034923    1.927980   -0.434186
     30          1           0       -2.901368   -1.744783    0.182264
     31          1           0       -0.931721   -0.462742    1.052290
     32          7           0       -5.209357   -0.721515   -0.674561
     33          8           0       -5.111096   -1.946022   -0.714139
     34          8           0       -6.195769   -0.078834   -1.027534
 ---------------------------------------------------------------------

 SCF Done:  E(RHF) =  -669.535462037     A.U. after   15 cycles
 E2 =    -0.2090762445D+01 EUMP2 =    -0.67162622448203D+03

 The electronic state is 1-A.
 Alpha  occ. eigenvalues --  -20.60738 -20.60733 -15.85791 -11.31154 -11.27726
 Alpha  occ. eigenvalues --  -11.27719 -11.27465 -11.26742 -11.26721 -11.22500
 Alpha  occ. eigenvalues --  -11.22191 -11.22081 -11.22056 -11.21924 -11.21448
 Alpha  occ. eigenvalues --   -1.59814  -1.39367  -1.19327  -1.09093  -1.08723
 Alpha  occ. eigenvalues --   -1.04732  -1.04226  -0.96683  -0.95557  -0.87701
 Alpha  occ. eigenvalues --   -0.86131  -0.82391  -0.80291  -0.78866  -0.77441
 Alpha  occ. eigenvalues --   -0.72010  -0.71137  -0.70435  -0.65717  -0.64980
 Alpha  occ. eigenvalues --   -0.64774  -0.62122  -0.61612  -0.60078  -0.58281
 Alpha  occ. eigenvalues --   -0.55949  -0.55234  -0.53479  -0.53154  -0.53060
 Alpha  occ. eigenvalues --   -0.52691  -0.50604  -0.48775  -0.48765  -0.48597
 Alpha  occ. eigenvalues --   -0.47313  -0.46416  -0.46317  -0.44773  -0.44474
 Alpha  occ. eigenvalues --   -0.37308  -0.36334
 Alpha virt. eigenvalues --    0.05098   0.11316   0.16591   0.19348   0.22490
 Alpha virt. eigenvalues --    0.23738   0.25654   0.26006   0.26878   0.28008
 Alpha virt. eigenvalues --    0.28685   0.29742   0.30786   0.31460   0.32012

 Mulliken charges:
               1
     1  C   -0.298740
     2  C   -0.300168
     3  C   -0.476052
     4  H    0.151184
     5  H    0.149351
     6  H    0.152979
     7  H    0.152176
     8  H    0.155336
     9  H    0.156146
    10  H    0.161629
    11  C   -0.298941
    12  C   -0.299789
    13  C   -0.480807
    14  H    0.151796
    15  H    0.150252
    16  H    0.154594
    17  H    0.149094
    18  H    0.157751
    19  H    0.161552
    20  H    0.151312
    21  C   -0.173679
    22  C   -0.218576
    23  C   -0.171238
    24  C    0.159046
    25  C   -0.173172
    26  C   -0.226020
    27  H    0.225806
    28  H    0.223249
    29  H    0.275474
    30  H    0.276263
    31  H    0.235241
    32  N    0.487984
    33  O   -0.460426
    34  O   -0.460608
 Sum of Mulliken charges =  -0.00000

 Dipole moment (field-independent basis, Debye):
    X=              4.3203    Y=              2.6633    Z=              1.7963  Tot=              5.3838
 Quadrupole moment (field-independent basis, Debye-Ang):
   XX=           -126.7175   YY=            -90.0459   ZZ=            -96.7591
   XY=            -13.6067   XZ=             -7.0286   YZ=             -0.5863

 Normal termination of Gaussian 16 at Thu May  6 18:48:19 2021.
