 Gaussian 16, Revision A.03,
 Gaussian 16:  EM64L-G16RevA.03 25-Dec-2016

 -------------
 #p 6-31g* mp2
 -------------

 ------------------------------------------------------
 Input file generated by CHIRIPA (05-May-2021 14:55:23)
 ------------------------------------------------------
 Symbolic Z-matrix:
 Charge =  0 Multiplicity = 1

                         Standard orientation:
 ---------------------------------------------------------------------
 Center     Atomic      Atomic             Coordinates (Angstroms)
 Number     Number       Type             X           Y           Z
 ---------------------------------------------------------------------
      1          6           0        4.011886    1.211675   -1.266464
      2          6           0        4.542898    0.145152   -0.533609
      3          6           0        3.698385   -0.762769    0.112166
      4          6           0        2.321577   -0.573272    0.003619
      5          6           0        1.762129    0.479347   -0.719085
      6          6           0        2.625641    1.375080   -1.356704
      7          1           0        4.675303    1.912236   -1.764950
      8          1           0        5.619072    0.015780   -0.461804
      9          1           0        4.082662   -1.597245    0.686099
     10          1           0        0.685112    0.582298   -0.772500
     11          1           0        2.210440    2.202433   -1.925160
     12          7           0        1.417473   -1.527995    0.682955
     13          8           0        0.208078   -1.339086    0.571988
     14          8           0        1.935350   -2.447139    1.313522
     15          6           0       -2.572397    1.017547    0.137064
     16          6           0       -2.140281    1.451408    1.538143
     17          6           0       -0.958994    2.421957    1.518418
     18          1           0       -1.719996    0.549552   -0.374150
     19          1           0       -2.838029    1.908033   -0.449339
     20          1           0       -1.876865    0.560262    2.122169
     21          1           0       -2.993863    1.918252    2.046151
     22          1           0       -1.214012    3.327873    0.959057
     23          1           0       -0.090668    1.962167    1.035508
     24          1           0       -0.666604    2.719108    2.530380
     25          6           0       -3.752300    0.047213    0.140297
     26          6           0       -4.184415   -0.386649   -1.260783
     27          6           0       -5.365703   -1.357198   -1.241057
     28          1           0       -3.486667   -0.843273    0.726699
     29          1           0       -4.604701    0.515207    0.651510
     30          1           0       -3.330833   -0.853492   -1.768790
     31          1           0       -4.447831    0.504498   -1.844809
     32          1           0       -6.234029   -0.897407   -0.758146
     33          1           0       -5.110684   -2.263114   -0.681696
     34          1           0       -5.658093   -1.654348   -2.253020
 ---------------------------------------------------------------------

 SCF Done:  E(RHF) =  -669.535306844     A.U. after   15 cycles
 E2 =    -0.2093837831D+01 EUMP2 =    -0.67162914467567D+03

 The electronic state is 1-A.
 Alpha  occ. eigenvalues --  -20.60989 -20.60975 -15.86016 -11.31306 -11.27862
 Alpha  occ. eigenvalues --  -11.27832 -11.27589 -11.26867 -11.26852 -11.21029
 Alpha  occ. eigenvalues --  -11.20951 -11.20804 -11.20790 -11.20659 -11.20539
 Alpha  occ. eigenvalues --   -1.60046  -1.39604  -1.19474  -1.08880  -1.07811
 Alpha  occ. eigenvalues --   -1.04867  -1.02996  -0.95731  -0.95477  -0.86508
 Alpha  occ. eigenvalues --   -0.86266  -0.82565  -0.79068  -0.77799  -0.77489
 Alpha  occ. eigenvalues --   -0.72258  -0.71357  -0.70593  -0.65149  -0.64927
 Alpha  occ. eigenvalues --   -0.64332  -0.62244  -0.60333  -0.58847  -0.57105
 Alpha  occ. eigenvalues --   -0.55375  -0.54780  -0.53198  -0.52966  -0.52185
 Alpha  occ. eigenvalues --   -0.51927  -0.49452  -0.49005  -0.48965  -0.47389
 Alpha  occ. eigenvalues --   -0.46034  -0.45213  -0.45047  -0.44952  -0.43226
 Alpha  occ. eigenvalues --   -0.37442  -0.36434
 Alpha virt. eigenvalues --    0.04858   0.11096   0.16383   0.20707   0.23521
 Alpha virt. eigenvalues --    0.24509   0.26074   0.27503   0.27955   0.28423
 Alpha virt. eigenvalues --    0.29438   0.31034   0.31632   0.32163   0.32289

 Mulliken charges:
               1
     1  C   -0.169949
     2  C   -0.218689
     3  C   -0.169774
     4  C    0.154195
     5  C   -0.171565
     6  C   -0.223598
     7  H    0.226250
     8  H    0.223921
     9  H    0.275851
    10  H    0.287762
    11  H    0.225575
    12  N    0.490910
    13  O   -0.467629
    14  O   -0.458499
    15  C   -0.306675
    16  C   -0.299438
    17  C   -0.479654
    18  H    0.160365
    19  H    0.141084
    20  H    0.167340
    21  H    0.148410
    22  H    0.149573
    23  H    0.149778
    24  H    0.160721
    25  C   -0.298559
    26  C   -0.299841
    27  C   -0.475797
    28  H    0.161297
    29  H    0.146226
    30  H    0.153786
    31  H    0.147112
    32  H    0.153393
    33  H    0.158429
    34  H    0.157692
 Sum of Mulliken charges =  -0.00000

 Dipole moment (field-independent basis, Debye):
    X=              3.3399    Y=              3.1249    Z=             -2.3060  Tot=              5.1223
 Quadrupole moment (field-independent basis, Debye-Ang):
   XX=            -77.5173   YY=            -98.2130   ZZ=            -94.9108
   XY=              3.2031   XZ=             -4.6482   YZ=             -0.0252

 Normal termination of Gaussian 16 at Thu May  6 09:25:28 2021.
