 Gaussian 16, Revision A.03,
 Gaussian 16:  EM64L-G16RevA.03 25-Dec-2016

 -------------
 #p 6-31g* mp2
 -------------

 ------------------------------------------------------
 Input file generated by CHIRIPA (05-May-2021 14:53:12)
 ------------------------------------------------------
 Symbolic Z-matrix:
 Charge =  0 Multiplicity = 1

                         Standard orientation:
 ---------------------------------------------------------------------
 Center     Atomic      Atomic             Coordinates (Angstroms)
 Number     Number       Type             X           Y           Z
 ---------------------------------------------------------------------
      1          6           0       -3.902579   -0.452647   -0.216778
      2          6           0       -5.398426   -0.430318    0.099338
      3          6           0       -5.935399   -1.800369    0.514568
      4          1           0       -3.714494   -1.180074   -1.018289
      5          1           0       -3.353803   -0.810624    0.665318
      6          1           0       -5.944099   -0.071175   -0.782633
      7          1           0       -5.582998    0.297279    0.900058
      8          1           0       -5.417095   -2.162565    1.408310
      9          1           0       -5.780249   -2.533113   -0.283941
     10          1           0       -7.006544   -1.761498    0.735921
     11          6           0       -3.351038    0.909675   -0.633441
     12          6           0       -1.855191    0.887346   -0.949557
     13          6           0       -1.318218    2.257396   -1.364786
     14          1           0       -3.899813    1.267652   -1.515537
     15          1           0       -3.539123    1.637101    0.168070
     16          1           0       -1.670619    0.159749   -1.750277
     17          1           0       -1.309518    0.528203   -0.067586
     18          1           0       -1.473368    2.990140   -0.566278
     19          1           0       -1.836521    2.619593   -2.258529
     20          1           0       -0.247073    2.218526   -1.586140
     21          6           0        1.073108    0.968172    1.729337
     22          6           0        2.211469    1.671635    1.322159
     23          6           0        3.193286    1.046390    0.547787
     24          6           0        3.003627   -0.289385    0.197038
     25          6           0        1.880454   -1.017061    0.587242
     26          6           0        0.911518   -0.371570    1.361228
     27          1           0        0.315412    1.461741    2.330737
     28          1           0        2.339613    2.712184    1.606556
     29          1           0        4.084276    1.567343    0.218907
     30          1           0        1.780648   -2.053398    0.288140
     31          1           0        0.028470   -0.920367    1.676016
     32          7           0        4.036214   -0.962021   -0.622550
     33          8           0        3.845540   -2.139628   -0.918388
     34          8           0        5.016677   -0.298889   -0.953586
 ---------------------------------------------------------------------

 SCF Done:  E(RHF) =  -669.534669550     A.U. after   15 cycles
 E2 =    -0.2093110661D+01 EUMP2 =    -0.67162778021124D+03

 The electronic state is 1-A.
 Alpha  occ. eigenvalues --  -20.60802 -20.60797 -15.85856 -11.31244 -11.27809
 Alpha  occ. eigenvalues --  -11.27798 -11.27566 -11.26839 -11.26826 -11.22092
 Alpha  occ. eigenvalues --  -11.21988 -11.21969 -11.21867 -11.21510 -11.21488
 Alpha  occ. eigenvalues --   -1.59877  -1.39430  -1.19425  -1.08957  -1.08808
 Alpha  occ. eigenvalues --   -1.04832  -1.03988  -0.96447  -0.95645  -0.87463
 Alpha  occ. eigenvalues --   -0.86235  -0.82474  -0.80061  -0.78773  -0.77513
 Alpha  occ. eigenvalues --   -0.72075  -0.71200  -0.70530  -0.65622  -0.65074
 Alpha  occ. eigenvalues --   -0.64824  -0.62182  -0.61404  -0.59815  -0.58064
 Alpha  occ. eigenvalues --   -0.55767  -0.55330  -0.53259  -0.53003  -0.52924
 Alpha  occ. eigenvalues --   -0.52856  -0.50402  -0.48838  -0.48827  -0.48372
 Alpha  occ. eigenvalues --   -0.47110  -0.46304  -0.46249  -0.44830  -0.44258
 Alpha  occ. eigenvalues --   -0.37340  -0.36371
 Alpha virt. eigenvalues --    0.05003   0.11115   0.16461   0.20244   0.22777
 Alpha virt. eigenvalues --    0.23886   0.25197   0.26417   0.27394   0.28240
 Alpha virt. eigenvalues --    0.28746   0.30896   0.31142   0.31483   0.31668

 Mulliken charges:
               1
     1  C   -0.296946
     2  C   -0.299757
     3  C   -0.475860
     4  H    0.152235
     5  H    0.141153
     6  H    0.154190
     7  H    0.151258
     8  H    0.153510
     9  H    0.156664
    10  H    0.161904
    11  C   -0.298017
    12  C   -0.304508
    13  C   -0.475463
    14  H    0.151979
    15  H    0.146354
    16  H    0.154298
    17  H    0.151224
    18  H    0.149043
    19  H    0.157150
    20  H    0.164232
    21  C   -0.168092
    22  C   -0.218298
    23  C   -0.171484
    24  C    0.158412
    25  C   -0.171453
    26  C   -0.218072
    27  H    0.225999
    28  H    0.224034
    29  H    0.275906
    30  H    0.276098
    31  H    0.224665
    32  N    0.488055
    33  O   -0.460141
    34  O   -0.460272
 Sum of Mulliken charges =  -0.00000

 Dipole moment (field-independent basis, Debye):
    X=             -3.6165    Y=              2.3559    Z=              2.8381  Tot=              5.1657
 Quadrupole moment (field-independent basis, Debye-Ang):
   XX=           -115.7613   YY=            -93.6332   ZZ=            -93.4286
   XY=             10.5473   XZ=              8.5401   YZ=              0.1160

 Normal termination of Gaussian 16 at Thu May  6 18:40:55 2021.
