 Gaussian 16, Revision A.03,
 Gaussian 16:  EM64L-G16RevA.03 25-Dec-2016

 -------------
 #p 6-31g* mp2
 -------------

 ------------------------------------------------------
 Input file generated by CHIRIPA (05-May-2021 14:53:16)
 ------------------------------------------------------
 Symbolic Z-matrix:
 Charge =  0 Multiplicity = 1

                         Standard orientation:
 ---------------------------------------------------------------------
 Center     Atomic      Atomic             Coordinates (Angstroms)
 Number     Number       Type             X           Y           Z
 ---------------------------------------------------------------------
      1          6           0       -2.399367    0.078440   -0.006662
      2          6           0       -3.689430   -0.670379   -0.342809
      3          6           0       -3.579272   -2.176021   -0.100523
      4          1           0       -1.577149   -0.332070   -0.608646
      5          1           0       -2.139562   -0.106636    1.044833
      6          1           0       -3.947471   -0.482828   -1.392978
      7          1           0       -4.508710   -0.257910    0.259905
      8          1           0       -3.345432   -2.381209    0.949152
      9          1           0       -2.781004   -2.607404   -0.713123
     10          1           0       -4.512577   -2.691698   -0.347258
     11          6           0       -2.493837    1.584633   -0.243696
     12          6           0       -1.203775    2.333452    0.092450
     13          6           0       -1.313933    3.839094   -0.149835
     14          1           0       -2.753643    1.769709   -1.295192
     15          1           0       -3.316055    1.995143    0.358287
     16          1           0       -0.384495    1.920983   -0.510264
     17          1           0       -0.945734    2.145900    1.142619
     18          1           0       -2.112201    4.270477    0.462764
     19          1           0       -1.547773    4.044282   -1.199510
     20          1           0       -0.380628    4.354771    0.096899
     21          6           0        0.462647   -2.705000    0.303951
     22          6           0        0.452832   -1.737476    1.314061
     23          6           0        1.251489   -0.594693    1.210409
     24          6           0        2.051469   -0.450933    0.077866
     25          6           0        2.083164   -1.397141   -0.945353
     26          6           0        1.276346   -2.532049   -0.820549
     27          1           0       -0.160939   -3.589682    0.392686
     28          1           0       -0.178106   -1.869150    2.188489
     29          1           0        1.263230    0.170003    1.977560
     30          1           0        2.722571   -1.238052   -1.805159
     31          1           0        1.285996   -3.281799   -1.606569
     32          7           0        2.901291    0.754712   -0.043061
     33          8           0        3.597246    0.857870   -1.050852
     34          8           0        2.855335    1.573708    0.872236
 ---------------------------------------------------------------------

 SCF Done:  E(RHF) =  -669.534504802     A.U. after   15 cycles
 E2 =    -0.2095291095D+01 EUMP2 =    -0.67162979589664D+03

 The electronic state is 1-A.
 Alpha  occ. eigenvalues --  -20.60802 -20.60789 -15.85847 -11.31208 -11.27776
 Alpha  occ. eigenvalues --  -11.27726 -11.27472 -11.26802 -11.26733 -11.22005
 Alpha  occ. eigenvalues --  -11.21776 -11.21571 -11.21520 -11.21420 -11.20784
 Alpha  occ. eigenvalues --   -1.59870  -1.39423  -1.19377  -1.08781  -1.08594
 Alpha  occ. eigenvalues --   -1.04773  -1.03703  -0.96159  -0.95601  -0.87188
 Alpha  occ. eigenvalues --   -0.86170  -0.82436  -0.79794  -0.78416  -0.77474
 Alpha  occ. eigenvalues --   -0.72064  -0.71192  -0.70466  -0.65257  -0.65019
 Alpha  occ. eigenvalues --   -0.64776  -0.62119  -0.61112  -0.59554  -0.57755
 Alpha  occ. eigenvalues --   -0.55483  -0.55250  -0.53272  -0.52877  -0.52772
 Alpha  occ. eigenvalues --   -0.52562  -0.50132  -0.48824  -0.48820  -0.48106
 Alpha  occ. eigenvalues --   -0.46834  -0.45928  -0.45799  -0.44803  -0.43925
 Alpha  occ. eigenvalues --   -0.37300  -0.36278
 Alpha virt. eigenvalues --    0.04998   0.11191   0.16373   0.20262   0.22987
 Alpha virt. eigenvalues --    0.23850   0.25225   0.26597   0.27039   0.28686
 Alpha virt. eigenvalues --    0.29152   0.29548   0.31327   0.31461   0.32063

 Mulliken charges:
               1
     1  C   -0.298166
     2  C   -0.299263
     3  C   -0.475852
     4  H    0.156191
     5  H    0.141121
     6  H    0.153675
     7  H    0.152839
     8  H    0.148060
     9  H    0.151139
    10  H    0.162381
    11  C   -0.298737
    12  C   -0.297583
    13  C   -0.477184
    14  H    0.149994
    15  H    0.148666
    16  H    0.152340
    17  H    0.148225
    18  H    0.152845
    19  H    0.154718
    20  H    0.169120
    21  C   -0.170759
    22  C   -0.213306
    23  C   -0.167870
    24  C    0.157783
    25  C   -0.172484
    26  C   -0.220092
    27  H    0.227158
    28  H    0.222832
    29  H    0.275408
    30  H    0.275541
    31  H    0.223523
    32  N    0.488387
    33  O   -0.460656
    34  O   -0.459993
 Sum of Mulliken charges =  -0.00000

 Dipole moment (field-independent basis, Debye):
    X=             -2.9186    Y=             -4.1596    Z=              0.3999  Tot=              5.0971
 Quadrupole moment (field-independent basis, Debye-Ang):
   XX=           -107.4269   YY=            -91.9888   ZZ=            -90.1298
   XY=             -8.1991   XZ=             -1.2348   YZ=              1.3963

 Normal termination of Gaussian 16 at Thu May  6 18:53:31 2021.
