 Gaussian 16, Revision A.03,
 Gaussian 16:  EM64L-G16RevA.03 25-Dec-2016

 -------------
 #p 6-31g* mp2
 -------------

 ------------------------------------------------------
 Input file generated by CHIRIPA (05-May-2021 14:55:19)
 ------------------------------------------------------
 Symbolic Z-matrix:
 Charge =  0 Multiplicity = 1

                         Standard orientation:
 ---------------------------------------------------------------------
 Center     Atomic      Atomic             Coordinates (Angstroms)
 Number     Number       Type             X           Y           Z
 ---------------------------------------------------------------------
      1          6           0        5.317948   -0.034704    0.211379
      2          6           0        4.676252   -1.134960   -0.366708
      3          6           0        3.285148   -1.153808   -0.504627
      4          6           0        2.563515   -0.050508   -0.051564
      5          6           0        3.173805    1.060433    0.528647
      6          6           0        4.566002    1.057555    0.656427
      7          1           0        6.399015   -0.028501    0.314579
      8          1           0        5.257675   -1.984615   -0.713231
      9          1           0        2.762738   -1.992592   -0.948414
     10          1           0        2.567365    1.892740    0.864673
     11          1           0        5.061664    1.913391    1.105770
     12          7           0        1.090237   -0.058962   -0.192205
     13          8           0        0.477144    0.925433    0.214885
     14          8           0        0.576470   -1.049822   -0.706867
     15          6           0       -3.354362    0.666633   -0.366632
     16          6           0       -3.684879    2.005152    0.294510
     17          6           0       -3.202909    3.203559   -0.523609
     18          1           0       -2.268227    0.597191   -0.516412
     19          1           0       -3.810242    0.636746   -1.365970
     20          1           0       -3.229671    2.031948    1.292851
     21          1           0       -4.770335    2.071333    0.442907
     22          1           0       -3.666797    3.204641   -1.515279
     23          1           0       -2.117379    3.165032   -0.660507
     24          1           0       -3.449558    4.150125   -0.032654
     25          6           0       -3.829840   -0.540898    0.439296
     26          6           0       -3.499323   -1.879417   -0.221846
     27          6           0       -3.981292   -3.077824    0.596273
     28          1           0       -3.373960   -0.511010    1.438633
     29          1           0       -4.915975   -0.471457    0.589074
     30          1           0       -2.413867   -1.945598   -0.370244
     31          1           0       -3.954531   -1.906213   -1.220187
     32          1           0       -5.066822   -3.039297    0.733169
     33          1           0       -3.517405   -3.078906    1.587941
     34          1           0       -3.734643   -4.024391    0.105317
 ---------------------------------------------------------------------

 SCF Done:  E(RHF) =  -669.537530094     A.U. after   15 cycles
 E2 =    -0.2092332353D+01 EUMP2 =    -0.67162986244680D+03

 The electronic state is 1-A.
 Alpha  occ. eigenvalues --  -20.61311 -20.61299 -15.86278 -11.31487 -11.28027
 Alpha  occ. eigenvalues --  -11.28023 -11.27743 -11.27005 -11.26995 -11.20055
 Alpha  occ. eigenvalues --  -11.19928 -11.19831 -11.19749 -11.19688 -11.19361
 Alpha  occ. eigenvalues --   -1.60323  -1.39883  -1.19636  -1.09064  -1.06740
 Alpha  occ. eigenvalues --   -1.05012  -1.02007  -0.95923  -0.94480  -0.86418
 Alpha  occ. eigenvalues --   -0.85508  -0.82762  -0.78064  -0.77831  -0.76530
 Alpha  occ. eigenvalues --   -0.72485  -0.71615  -0.70743  -0.65292  -0.65017
 Alpha  occ. eigenvalues --   -0.63351  -0.62359  -0.59395  -0.57860  -0.56100
 Alpha  occ. eigenvalues --   -0.55523  -0.53766  -0.53350  -0.53101  -0.51246
 Alpha  occ. eigenvalues --   -0.50930  -0.49331  -0.49264  -0.48382  -0.46394
 Alpha  occ. eigenvalues --   -0.45324  -0.45042  -0.44128  -0.43785  -0.42211
 Alpha  occ. eigenvalues --   -0.37608  -0.36606
 Alpha virt. eigenvalues --    0.04688   0.11052   0.16209   0.21184   0.24551
 Alpha virt. eigenvalues --    0.25688   0.27130   0.27954   0.28398   0.29230
 Alpha virt. eigenvalues --    0.29577   0.30846   0.32216   0.32787   0.33134

 Mulliken charges:
               1
     1  C   -0.170114
     2  C   -0.218631
     3  C   -0.170449
     4  C    0.158297
     5  C   -0.170350
     6  C   -0.218607
     7  H    0.226744
     8  H    0.224546
     9  H    0.276305
    10  H    0.276210
    11  H    0.224559
    12  N    0.489892
    13  O   -0.458769
    14  O   -0.458705
    15  C   -0.311821
    16  C   -0.295534
    17  C   -0.477519
    18  H    0.182892
    19  H    0.140355
    20  H    0.151132
    21  H    0.143989
    22  H    0.150174
    23  H    0.163719
    24  H    0.152422
    25  C   -0.295104
    26  C   -0.307425
    27  C   -0.474269
    28  H    0.147382
    29  H    0.141121
    30  H    0.173614
    31  H    0.146048
    32  H    0.150186
    33  H    0.152186
    34  H    0.155523
 Sum of Mulliken charges =  -0.00000

 Dipole moment (field-independent basis, Debye):
    X=              5.8720    Y=              0.0027    Z=              0.4533  Tot=              5.8895
 Quadrupole moment (field-independent basis, Debye-Ang):
   XX=            -70.1036   YY=            -92.6954   ZZ=            -94.8414
   XY=             -0.6729   XZ=              1.6360   YZ=              2.8834

 Normal termination of Gaussian 16 at Thu May  6 20:37:43 2021.
