 Gaussian 16, Revision A.03,
 Gaussian 16:  EM64L-G16RevA.03 25-Dec-2016

 -------------
 #p 6-31g* mp2
 -------------

 ------------------------------------------------------
 Input file generated by CHIRIPA (05-May-2021 14:57:26)
 ------------------------------------------------------
 Symbolic Z-matrix:
 Charge =  0 Multiplicity = 1

                         Standard orientation:
 ---------------------------------------------------------------------
 Center     Atomic      Atomic             Coordinates (Angstroms)
 Number     Number       Type             X           Y           Z
 ---------------------------------------------------------------------
      1          6           0       -3.580588    2.170090    1.029727
      2          6           0       -4.152513    1.059140    1.658387
      3          6           0       -3.965428   -0.225187    1.138723
      4          6           0       -3.197180   -0.362700   -0.016342
      5          6           0       -2.614331    0.724533   -0.665574
      6          6           0       -2.814673    1.999542   -0.128205
      7          1           0       -3.731070    3.164167    1.440292
      8          1           0       -4.747809    1.188593    2.557781
      9          1           0       -4.396699   -1.102571    1.605220
     10          1           0       -2.025927    0.563904   -1.560782
     11          1           0       -2.369304    2.860504   -0.618547
     12          7           0       -2.992104   -1.717427   -0.575859
     13          8           0       -2.311041   -1.811911   -1.594614
     14          8           0       -3.516312   -2.659126    0.014942
     15          6           0        1.669208    1.704620   -1.291175
     16          6           0        1.376332    0.338682   -1.220738
     17          6           0        2.234490   -0.537801   -0.550001
     18          6           0        3.381965   -0.011893    0.041618
     19          6           0        3.701226    1.344045   -0.011244
     20          6           0        2.828676    2.202065   -0.687268
     21          1           0        0.996980    2.378321   -1.814274
     22          1           0        0.476589   -0.050441   -1.688810
     23          1           0        2.031986   -1.599656   -0.480191
     24          1           0        4.605669    1.702422    0.465166
     25          1           0        3.058667    3.262408   -0.740369
     26          7           0        4.298076   -0.930012    0.754496
     27          8           0        5.302641   -0.441764    1.267428
     28          8           0        3.994212   -2.120500    0.786820
 ---------------------------------------------------------------------

 SCF Done:  E(RHF) =  -868.337600279     A.U. after   16 cycles
 E2 =    -0.2600281314D+01 EUMP2 =    -0.87093788159282D+03

 The electronic state is 1-A.
 Alpha  occ. eigenvalues --  -20.61586 -20.61529 -20.60675 -20.60659 -15.86598
 Alpha  occ. eigenvalues --  -15.85723 -11.31931 -11.31150 -11.28602 -11.28424
 Alpha  occ. eigenvalues --  -11.28187 -11.27751 -11.27648 -11.27584 -11.27557
 Alpha  occ. eigenvalues --  -11.27425 -11.26832 -11.26710  -1.60617  -1.59744
 Alpha  occ. eigenvalues --   -1.40179  -1.39294  -1.20091  -1.19337  -1.09481
 Alpha  occ. eigenvalues --   -1.08750  -1.05504  -1.04729  -0.96330  -0.95567
 Alpha  occ. eigenvalues --   -0.86906  -0.86148  -0.83173  -0.82377  -0.78248
 Alpha  occ. eigenvalues --   -0.77389  -0.72816  -0.71943  -0.71930  -0.71211
 Alpha  occ. eigenvalues --   -0.71068  -0.70505  -0.65750  -0.65543  -0.64995
 Alpha  occ. eigenvalues --   -0.64739  -0.62886  -0.62026  -0.55978  -0.55333
 Alpha  occ. eigenvalues --   -0.53813  -0.53623  -0.53073  -0.52790  -0.49586
 Alpha  occ. eigenvalues --   -0.49554  -0.48708  -0.48688  -0.45585  -0.44685
 Alpha  occ. eigenvalues --   -0.38039  -0.37438  -0.37044  -0.36299
 Alpha virt. eigenvalues --    0.04282   0.05114   0.10446   0.11366   0.15808
 Alpha virt. eigenvalues --    0.16575   0.18938   0.22077   0.25246   0.26203
 Alpha virt. eigenvalues --    0.27950   0.29425   0.29949   0.31282   0.32105

 Mulliken charges:
               1
     1  C   -0.169777
     2  C   -0.217613
     3  C   -0.169369
     4  C    0.159305
     5  C   -0.171000
     6  C   -0.216833
     7  H    0.227826
     8  H    0.226736
     9  H    0.278436
    10  H    0.267568
    11  H    0.219635
    12  N    0.489090
    13  O   -0.468342
    14  O   -0.453695
    15  C   -0.172250
    16  C   -0.225873
    17  C   -0.171833
    18  C    0.158932
    19  C   -0.171530
    20  C   -0.218327
    21  H    0.216699
    22  H    0.234554
    23  H    0.282444
    24  H    0.275236
    25  H    0.221335
    26  N    0.487746
    27  O   -0.461519
    28  O   -0.457579
 Sum of Mulliken charges =  -0.00000

 Dipole moment (field-independent basis, Debye):
    X=             -4.1605    Y=              7.8228    Z=             -0.3200  Tot=              8.8661
 Quadrupole moment (field-independent basis, Debye-Ang):
   XX=           -118.8290   YY=           -105.3343   ZZ=           -103.3103
   XY=             -0.4289   XZ=            -17.2153   YZ=             -1.0795

 Normal termination of Gaussian 16 at Thu May  6 01:59:19 2021.
