 Gaussian 16, Revision A.03,
 Gaussian 16:  EM64L-G16RevA.03 25-Dec-2016

 -------------
 #p 6-31g* mp2
 -------------

 ------------------------------------------------------
 Input file generated by CHIRIPA (05-May-2021 14:53:18)
 ------------------------------------------------------
 Symbolic Z-matrix:
 Charge =  0 Multiplicity = 1

                         Standard orientation:
 ---------------------------------------------------------------------
 Center     Atomic      Atomic             Coordinates (Angstroms)
 Number     Number       Type             X           Y           Z
 ---------------------------------------------------------------------
      1          6           0       -2.897038    1.022074    0.549870
      2          6           0       -2.398061    2.307074   -0.111782
      3          6           0       -1.585256    3.185060    0.840207
      4          1           0       -3.509144    1.281366    1.424535
      5          1           0       -2.035678    0.454436    0.928342
      6          1           0       -3.260010    2.871451   -0.490117
      7          1           0       -1.787229    2.044696   -0.985085
      8          1           0       -0.707570    2.644095    1.208481
      9          1           0       -2.188719    3.475548    1.706261
     10          1           0       -1.238470    4.098303    0.346661
     11          6           0       -3.711249    0.133845   -0.389192
     12          6           0       -4.210226   -1.151155    0.272460
     13          6           0       -5.023031   -2.029142   -0.679529
     14          1           0       -4.572608    0.701483   -0.767664
     15          1           0       -3.099143   -0.125448   -1.263857
     16          1           0       -4.821057   -0.888777    1.145763
     17          1           0       -3.348277   -1.715532    0.650795
     18          1           0       -4.419568   -2.319629   -1.545583
     19          1           0       -5.900717   -1.488176   -1.047803
     20          1           0       -5.369816   -2.942384   -0.185983
     21          6           0        0.313629   -1.531448    0.176164
     22          6           0        0.456306   -0.362656   -0.578880
     23          6           0        1.708003    0.244323   -0.718092
     24          6           0        2.800598   -0.347128   -0.085863
     25          6           0        2.690603   -1.511263    0.673069
     26          6           0        1.429266   -2.101018    0.798631
     27          1           0       -0.662464   -1.996272    0.279005
     28          1           0       -0.408360    0.081897   -1.063411
     29          1           0        1.846836    1.149479   -1.296741
     30          1           0        3.571006   -1.931051    1.144332
     31          1           0        1.321434   -3.008683    1.385625
     32          7           0        4.130816    0.286334   -0.226015
     33          8           0        5.077809   -0.254460    0.340891
     34          8           0        4.201262    1.311643   -0.900120
 ---------------------------------------------------------------------

 SCF Done:  E(RHF) =  -669.534679530     A.U. after   15 cycles
 E2 =    -0.2094066917D+01 EUMP2 =    -0.67162874644718D+03

 The electronic state is 1-A.
 Alpha  occ. eigenvalues --  -20.60780 -20.60775 -15.85833 -11.31220 -11.27786
 Alpha  occ. eigenvalues --  -11.27777 -11.27519 -11.26803 -11.26760 -11.22738
 Alpha  occ. eigenvalues --  -11.22534 -11.22509 -11.22312 -11.21999 -11.21668
 Alpha  occ. eigenvalues --   -1.59855  -1.39408  -1.19393  -1.09485  -1.08776
 Alpha  occ. eigenvalues --   -1.04804  -1.04459  -0.96878  -0.95615  -0.87889
 Alpha  occ. eigenvalues --   -0.86195  -0.82448  -0.80545  -0.79275  -0.77498
 Alpha  occ. eigenvalues --   -0.72053  -0.71178  -0.70518  -0.66403  -0.65039
 Alpha  occ. eigenvalues --   -0.64601  -0.62281  -0.61696  -0.60244  -0.58488
 Alpha  occ. eigenvalues --   -0.56166  -0.55301  -0.53540  -0.53287  -0.53121
 Alpha  occ. eigenvalues --   -0.52877  -0.50804  -0.48855  -0.48805  -0.48787
 Alpha  occ. eigenvalues --   -0.47622  -0.46783  -0.46746  -0.44809  -0.44729
 Alpha  occ. eigenvalues --   -0.37345  -0.36378
 Alpha virt. eigenvalues --    0.05010   0.11134   0.16414   0.18080   0.22247
 Alpha virt. eigenvalues --    0.23592   0.24835   0.25330   0.26814   0.28460
 Alpha virt. eigenvalues --    0.29603   0.30410   0.30933   0.31464   0.32485

 Mulliken charges:
               1
     1  C   -0.307633
     2  C   -0.300865
     3  C   -0.478263
     4  H    0.155689
     5  H    0.150910
     6  H    0.156796
     7  H    0.142567
     8  H    0.159058
     9  H    0.157960
    10  H    0.163912
    11  C   -0.301377
    12  C   -0.301424
    13  C   -0.476276
    14  H    0.155925
    15  H    0.142662
    16  H    0.157540
    17  H    0.143819
    18  H    0.154599
    19  H    0.159260
    20  H    0.162772
    21  C   -0.177078
    22  C   -0.223689
    23  C   -0.173826
    24  C    0.158632
    25  C   -0.170730
    26  C   -0.219591
    27  H    0.231255
    28  H    0.234000
    29  H    0.276104
    30  H    0.275781
    31  H    0.223957
    32  N    0.488033
    33  O   -0.460360
    34  O   -0.460120
 Sum of Mulliken charges =  -0.00000

 Dipole moment (field-independent basis, Debye):
    X=             -4.8501    Y=             -2.1420    Z=              0.5706  Tot=              5.3326
 Quadrupole moment (field-independent basis, Debye-Ang):
   XX=           -119.3538   YY=            -90.9089   ZZ=            -94.0337
   XY=             -7.3346   XZ=              2.3871   YZ=             -2.5052

 Normal termination of Gaussian 16 at Wed May  5 22:05:43 2021.
