 Gaussian 16, Revision A.03,
 Gaussian 16:  EM64L-G16RevA.03 25-Dec-2016

 -------------
 #p 6-31g* mp2
 -------------

 ------------------------------------------------------
 Input file generated by CHIRIPA (05-May-2021 14:57:26)
 ------------------------------------------------------
 Symbolic Z-matrix:
 Charge =  0 Multiplicity = 1

                         Standard orientation:
 ---------------------------------------------------------------------
 Center     Atomic      Atomic             Coordinates (Angstroms)
 Number     Number       Type             X           Y           Z
 ---------------------------------------------------------------------
      1          6           0        2.602642   -1.399454    1.472870
      2          6           0        3.949525   -1.774308    1.429144
      3          6           0        4.854151   -1.079046    0.621177
      4          6           0        4.375509   -0.009101   -0.133416
      5          6           0        3.039586    0.388530   -0.111279
      6          6           0        2.152764   -0.321132    0.703874
      7          1           0        1.906822   -1.945143    2.103309
      8          1           0        4.301719   -2.611339    2.025285
      9          1           0        5.902165   -1.347933    0.568418
     10          1           0        2.718146    1.227225   -0.716824
     11          1           0        1.107313   -0.027781    0.735850
     12          7           0        5.323771    0.734564   -0.992578
     13          8           0        4.877060    1.673555   -1.647850
     14          8           0        6.495776    0.364376   -0.994449
     15          6           0       -2.982937    1.882111    1.323528
     16          6           0       -2.361789    0.666534    1.018455
     17          6           0       -3.037244   -0.310594    0.281212
     18          6           0       -4.338743   -0.037560   -0.136930
     19          6           0       -4.984634    1.163744    0.151143
     20          6           0       -4.290072    2.126405    0.889663
     21          1           0       -2.450805    2.635549    1.896733
     22          1           0       -1.346728    0.474071    1.354094
     23          1           0       -2.580220   -1.260307    0.031023
     24          1           0       -5.997308    1.326715   -0.197209
     25          1           0       -4.774962    3.069532    1.125118
     26          7           0       -5.063931   -1.064345   -0.918093
     27          8           0       -6.209869   -0.799416   -1.274850
     28          8           0       -4.472663   -2.114626   -1.158820
 ---------------------------------------------------------------------

 SCF Done:  E(RHF) =  -868.336620274     A.U. after   16 cycles
 E2 =    -0.2599356990D+01 EUMP2 =    -0.87093597726392D+03

 The electronic state is 1-A.
 Alpha  occ. eigenvalues --  -20.61262 -20.61252 -20.61149 -20.61142 -15.86321
 Alpha  occ. eigenvalues --  -15.86208 -11.31802 -11.31677 -11.28469 -11.28365
 Alpha  occ. eigenvalues --  -11.28316 -11.28245 -11.28182 -11.28077 -11.27578
 Alpha  occ. eigenvalues --  -11.27440 -11.27373 -11.27266  -1.60333  -1.60222
 Alpha  occ. eigenvalues --   -1.39884  -1.39772  -1.20005  -1.19879  -1.09374
 Alpha  occ. eigenvalues --   -1.09261  -1.05447  -1.05309  -0.96183  -0.96070
 Alpha  occ. eigenvalues --   -0.86847  -0.86704  -0.83034  -0.82904  -0.78071
 Alpha  occ. eigenvalues --   -0.77920  -0.72536  -0.72424  -0.71659  -0.71546
 Alpha  occ. eigenvalues --   -0.71101  -0.70992  -0.65665  -0.65631  -0.65539
 Alpha  occ. eigenvalues --   -0.65229  -0.62871  -0.62584  -0.55931  -0.55814
 Alpha  occ. eigenvalues --   -0.53748  -0.53666  -0.53618  -0.53304  -0.49307
 Alpha  occ. eigenvalues --   -0.49283  -0.49192  -0.49171  -0.45264  -0.45154
 Alpha  occ. eigenvalues --   -0.37978  -0.37869  -0.37048  -0.36909
 Alpha virt. eigenvalues --    0.04508   0.04628   0.10579   0.10733   0.15915
 Alpha virt. eigenvalues --    0.16081   0.17835   0.21896   0.24427   0.27661
 Alpha virt. eigenvalues --    0.27759   0.28462   0.29594   0.31530   0.31775

 Mulliken charges:
               1
     1  C   -0.171430
     2  C   -0.218266
     3  C   -0.169764
     4  C    0.159185
     5  C   -0.171230
     6  C   -0.222568
     7  H    0.225059
     8  H    0.225767
     9  H    0.277638
    10  H    0.276866
    11  H    0.218589
    12  N    0.488037
    13  O   -0.459676
    14  O   -0.458761
    15  C   -0.170676
    16  C   -0.223352
    17  C   -0.171132
    18  C    0.159009
    19  C   -0.169300
    20  C   -0.218301
    21  H    0.227669
    22  H    0.218007
    23  H    0.274329
    24  H    0.278093
    25  H    0.226288
    26  N    0.488174
    27  O   -0.458193
    28  O   -0.460061
 Sum of Mulliken charges =  -0.00000

 Dipole moment (field-independent basis, Debye):
    X=             -0.8223    Y=              1.0223    Z=              5.7353  Tot=              5.8835
 Quadrupole moment (field-independent basis, Debye-Ang):
   XX=           -148.8028   YY=           -101.9996   ZZ=           -107.4440
   XY=            -33.2175   XZ=              2.9909   YZ=             -1.5163

 Normal termination of Gaussian 16 at Wed May  5 22:50:03 2021.
