 Gaussian 16, Revision A.03,
 Gaussian 16:  EM64L-G16RevA.03 25-Dec-2016

 -------------
 #p 6-31g* mp2
 -------------

 ------------------------------------------------------
 Input file generated by CHIRIPA (05-May-2021 14:55:21)
 ------------------------------------------------------
 Symbolic Z-matrix:
 Charge =  0 Multiplicity = 1

                         Standard orientation:
 ---------------------------------------------------------------------
 Center     Atomic      Atomic             Coordinates (Angstroms)
 Number     Number       Type             X           Y           Z
 ---------------------------------------------------------------------
      1          6           0       -5.274349    0.855433   -0.270140
      2          6           0       -5.265929   -0.452485    0.225643
      3          6           0       -4.064536   -1.156251    0.351804
      4          6           0       -2.884794   -0.518666   -0.028962
      5          6           0       -2.860536    0.783374   -0.526351
      6          6           0       -4.073742    1.468108   -0.643895
      7          1           0       -6.212209    1.394743   -0.364798
      8          1           0       -6.196815   -0.930808    0.516682
      9          1           0       -4.029211   -2.169743    0.732598
     10          1           0       -1.916549    1.233719   -0.808302
     11          1           0       -4.077262    2.483755   -1.029244
     12          7           0       -1.606679   -1.253637    0.100038
     13          8           0       -0.580861   -0.669575   -0.242315
     14          8           0       -1.654913   -2.399853    0.541059
     15          6           0        4.693165    0.311829    0.165571
     16          6           0        5.065087   -1.007451   -0.512040
     17          6           0        6.530723   -1.388123   -0.300390
     18          1           0        5.340525    1.110681   -0.221348
     19          1           0        4.901185    0.234642    1.241751
     20          1           0        4.855130   -0.928273   -1.586407
     21          1           0        4.416638   -1.803218   -0.123604
     22          1           0        6.750868   -1.494525    0.766764
     23          1           0        7.191851   -0.614608   -0.704352
     24          1           0        6.774931   -2.334375   -0.793167
     25          6           0        3.231167    0.705856   -0.037001
     26          6           0        2.859245    2.025137    0.640611
     27          6           0        1.393609    2.405808    0.428959
     28          1           0        3.023147    0.783043   -1.113182
     29          1           0        2.583807   -0.092996    0.349917
     30          1           0        3.507694    2.820904    0.252174
     31          1           0        3.069202    1.945958    1.714977
     32          1           0        0.732481    1.632294    0.832922
     33          1           0        1.173464    2.512211   -0.638193
     34          1           0        1.149401    3.352060    0.921736
 ---------------------------------------------------------------------

 SCF Done:  E(RHF) =  -669.536246893     A.U. after   15 cycles
 E2 =    -0.2091434417D+01 EUMP2 =    -0.67162768130954D+03

 The electronic state is 1-A.
 Alpha  occ. eigenvalues --  -20.60940 -20.60934 -15.85962 -11.31257 -11.27826
 Alpha  occ. eigenvalues --  -11.27800 -11.27560 -11.26828 -11.26812 -11.20777
 Alpha  occ. eigenvalues --  -11.20735 -11.20490 -11.20375 -11.20269 -11.20212
 Alpha  occ. eigenvalues --   -1.60000  -1.39556  -1.19427  -1.08839  -1.07498
 Alpha  occ. eigenvalues --   -1.04818  -1.02694  -0.95685  -0.95145  -0.86225
 Alpha  occ. eigenvalues --   -0.86169  -0.82518  -0.78769  -0.77584  -0.77250
 Alpha  occ. eigenvalues --   -0.72185  -0.71312  -0.70535  -0.65084  -0.64822
 Alpha  occ. eigenvalues --   -0.64128  -0.62164  -0.60097  -0.58511  -0.56747
 Alpha  occ. eigenvalues --   -0.55328  -0.54430  -0.53154  -0.52912  -0.51899
 Alpha  occ. eigenvalues --   -0.51570  -0.49154  -0.48949  -0.48870  -0.47074
 Alpha  occ. eigenvalues --   -0.45813  -0.45026  -0.44819  -0.44595  -0.42926
 Alpha  occ. eigenvalues --   -0.37409  -0.36418
 Alpha virt. eigenvalues --    0.04918   0.11225   0.16394   0.21180   0.23771
 Alpha virt. eigenvalues --    0.24851   0.26525   0.27627   0.27677   0.28612
 Alpha virt. eigenvalues --    0.29230   0.30982   0.31793   0.32254   0.32640

 Mulliken charges:
               1
     1  C   -0.170441
     2  C   -0.218746
     3  C   -0.170702
     4  C    0.157354
     5  C   -0.172326
     6  C   -0.219029
     7  H    0.225867
     8  H    0.223622
     9  H    0.275571
    10  H    0.279524
    11  H    0.224118
    12  N    0.489661
    13  O   -0.461402
    14  O   -0.459342
    15  C   -0.298137
    16  C   -0.299493
    17  C   -0.475231
    18  H    0.145189
    19  H    0.147302
    20  H    0.151029
    21  H    0.156941
    22  H    0.153970
    23  H    0.152665
    24  H    0.158762
    25  C   -0.301566
    26  C   -0.298573
    27  C   -0.481074
    28  H    0.147862
    29  H    0.169013
    30  H    0.146876
    31  H    0.149611
    32  H    0.170989
    33  H    0.149094
    34  H    0.151042
 Sum of Mulliken charges =  -0.00000

 Dipole moment (field-independent basis, Debye):
    X=             -4.7464    Y=              2.3889    Z=             -0.4489  Tot=              5.3326
 Quadrupole moment (field-independent basis, Debye-Ang):
   XX=            -70.0145   YY=            -95.1328   ZZ=            -94.2397
   XY=             -2.9136   XZ=              0.1980   YZ=             -2.0616

 Normal termination of Gaussian 16 at Wed May  5 23:48:57 2021.
