 Gaussian 16, Revision A.03,
 Gaussian 16:  EM64L-G16RevA.03 25-Dec-2016

 -------------
 #p 6-31g* mp2
 -------------

 ------------------------------------------------------
 Input file generated by CHIRIPA (05-May-2021 14:55:19)
 ------------------------------------------------------
 Symbolic Z-matrix:
 Charge =  0 Multiplicity = 1

                         Standard orientation:
 ---------------------------------------------------------------------
 Center     Atomic      Atomic             Coordinates (Angstroms)
 Number     Number       Type             X           Y           Z
 ---------------------------------------------------------------------
      1          6           0       -2.516650   -2.208671    0.258003
      2          6           0       -1.842954   -1.160568    0.893717
      3          6           0       -2.319836    0.150297    0.800098
      4          6           0       -3.478509    0.378145    0.059251
      5          6           0       -4.172069   -0.644879   -0.585487
      6          6           0       -3.677012   -1.947941   -0.478272
      7          1           0       -2.139138   -3.223952    0.336010
      8          1           0       -0.941563   -1.360101    1.466191
      9          1           0       -1.817994    0.980435    1.282222
     10          1           0       -5.068110   -0.414861   -1.149066
     11          1           0       -4.202280   -2.759949   -0.973027
     12          7           0       -3.992983    1.761768   -0.047056
     13          8           0       -5.015895    1.936235   -0.705730
     14          8           0       -3.363576    2.645587    0.530307
     15          6           0        3.873684   -0.669295    0.268601
     16          6           0        2.834187   -1.318458   -0.645740
     17          6           0        1.900708   -2.270370    0.102771
     18          1           0        4.464790   -1.455741    0.757519
     19          1           0        3.356924   -0.122983    1.069787
     20          1           0        3.352738   -1.862233   -1.445759
     21          1           0        2.245613   -0.530370   -1.132686
     22          1           0        1.357440   -1.737493    0.889857
     23          1           0        2.470855   -3.076924    0.575005
     24          1           0        1.165649   -2.723286   -0.569848
     25          6           0        4.814233    0.285022   -0.465137
     26          6           0        5.853730    0.934184    0.449204
     27          6           0        6.787209    1.886097   -0.299309
     28          1           0        5.330993   -0.261290   -1.266323
     29          1           0        4.223127    1.071468   -0.954056
     30          1           0        6.442303    0.146097    0.936149
     31          1           0        5.335179    1.477961    1.249222
     32          1           0        6.217062    2.692651   -0.771541
     33          1           0        7.330477    1.353220   -1.086394
     34          1           0        7.522267    2.339012    0.373312
 ---------------------------------------------------------------------

 SCF Done:  E(RHF) =  -669.535365173     A.U. after   15 cycles
 E2 =    -0.2091069595D+01 EUMP2 =    -0.67162643476712D+03

 The electronic state is 1-A.
 Alpha  occ. eigenvalues --  -20.60749 -20.60744 -15.85802 -11.31160 -11.27724
 Alpha  occ. eigenvalues --  -11.27715 -11.27454 -11.26742 -11.26699 -11.22239
 Alpha  occ. eigenvalues --  -11.22031 -11.21899 -11.21877 -11.21724 -11.21266
 Alpha  occ. eigenvalues --   -1.59825  -1.39379  -1.19327  -1.08894  -1.08721
 Alpha  occ. eigenvalues --   -1.04731  -1.04026  -0.96501  -0.95559  -0.87531
 Alpha  occ. eigenvalues --   -0.86122  -0.82394  -0.80101  -0.78673  -0.77444
 Alpha  occ. eigenvalues --   -0.72020  -0.71148  -0.70431  -0.65541  -0.64978
 Alpha  occ. eigenvalues --   -0.64745  -0.62130  -0.61383  -0.59881  -0.58087
 Alpha  occ. eigenvalues --   -0.55823  -0.55211  -0.53259  -0.53037  -0.52993
 Alpha  occ. eigenvalues --   -0.52723  -0.50418  -0.48779  -0.48776  -0.48405
 Alpha  occ. eigenvalues --   -0.47109  -0.46224  -0.46124  -0.44786  -0.44270
 Alpha  occ. eigenvalues --   -0.37299  -0.36325
 Alpha virt. eigenvalues --    0.05082   0.11273   0.16547   0.20367   0.22602
 Alpha virt. eigenvalues --    0.23948   0.25431   0.26508   0.27049   0.27728
 Alpha virt. eigenvalues --    0.28914   0.29534   0.31193   0.31645   0.32425

 Mulliken charges:
               1
     1  C   -0.172866
     2  C   -0.218740
     3  C   -0.172813
     4  C    0.158749
     5  C   -0.171194
     6  C   -0.218585
     7  H    0.226357
     8  H    0.228429
     9  H    0.275053
    10  H    0.275432
    11  H    0.223253
    12  N    0.488083
    13  O   -0.460511
    14  O   -0.460672
    15  C   -0.298592
    16  C   -0.299898
    17  C   -0.477964
    18  H    0.150135
    19  H    0.148296
    20  H    0.154595
    21  H    0.155461
    22  H    0.146835
    23  H    0.157524
    24  H    0.159229
    25  C   -0.299007
    26  C   -0.300040
    27  C   -0.476098
    28  H    0.150311
    29  H    0.151678
    30  H    0.151857
    31  H    0.152477
    32  H    0.156564
    33  H    0.155410
    34  H    0.161249
 Sum of Mulliken charges =  -0.00000

 Dipole moment (field-independent basis, Debye):
    X=              1.9657    Y=             -4.8679    Z=              0.3130  Tot=              5.2591
 Quadrupole moment (field-independent basis, Debye-Ang):
   XX=           -104.4702   YY=            -98.4138   ZZ=            -93.8666
   XY=             18.2822   XZ=              1.3496   YZ=              1.4104

 Normal termination of Gaussian 16 at Wed May  5 23:43:56 2021.
