 Gaussian 16, Revision A.03,
 Gaussian 16:  EM64L-G16RevA.03 25-Dec-2016

 -------------
 #p 6-31g* mp2
 -------------

 ------------------------------------------------------
 Input file generated by CHIRIPA (05-May-2021 14:55:19)
 ------------------------------------------------------
 Symbolic Z-matrix:
 Charge =  0 Multiplicity = 1

                         Standard orientation:
 ---------------------------------------------------------------------
 Center     Atomic      Atomic             Coordinates (Angstroms)
 Number     Number       Type             X           Y           Z
 ---------------------------------------------------------------------
      1          6           0       -3.078931    2.419691   -0.050481
      2          6           0       -2.175842    1.369619   -0.246184
      3          6           0       -2.615268    0.042546   -0.228049
      4          6           0       -3.970806   -0.199327   -0.010551
      5          6           0       -4.895072    0.825243    0.187639
      6          6           0       -4.433276    2.144636    0.165426
      7          1           0       -2.728885    3.447610   -0.066153
      8          1           0       -1.123469    1.580255   -0.414080
      9          1           0       -1.937741   -0.789482   -0.376727
     10          1           0       -5.938116    0.583918    0.352682
     11          1           0       -5.136893    2.958134    0.317708
     12          7           0       -4.447848   -1.600175    0.010807
     13          8           0       -5.647155   -1.786795    0.204386
     14          8           0       -3.613413   -2.485014   -0.166436
     15          6           0        5.654053   -0.082407   -0.342549
     16          6           0        6.841257   -0.253634    0.605721
     17          6           0        8.178779   -0.336128   -0.130502
     18          1           0        5.633691   -0.922820   -1.049823
     19          1           0        5.800519    0.826926   -0.941761
     20          1           0        6.691925   -1.161627    1.203938
     21          1           0        6.858684    0.587185    1.310941
     22          1           0        8.354113    0.573514   -0.713949
     23          1           0        8.186407   -1.185234   -0.821560
     24          1           0        9.013778   -0.458391    0.566412
     25          6           0        4.309936    0.001640    0.378570
     26          6           0        3.122733    0.172867   -0.569700
     27          6           0        1.785211    0.255359    0.166522
     28          1           0        4.163471   -0.907694    0.977782
     29          1           0        4.330299    0.842052    1.085843
     30          1           0        3.105306   -0.667952   -1.274920
     31          1           0        3.272064    1.080859   -1.167918
     32          1           0        1.777583    1.104466    0.857581
     33          1           0        1.609877   -0.654282    0.749970
     34          1           0        0.950211    0.377623   -0.530391
 ---------------------------------------------------------------------

 SCF Done:  E(RHF) =  -669.535509081     A.U. after   15 cycles
 E2 =    -0.2090846500D+01 EUMP2 =    -0.67162635558121D+03

 The electronic state is 1-A.
 Alpha  occ. eigenvalues --  -20.60707 -20.60702 -15.85759 -11.31109 -11.27680
 Alpha  occ. eigenvalues --  -11.27658 -11.27415 -11.26698 -11.26639 -11.22259
 Alpha  occ. eigenvalues --  -11.22039 -11.21890 -11.21865 -11.21734 -11.21302
 Alpha  occ. eigenvalues --   -1.59782  -1.39336  -1.19278  -1.08893  -1.08678
 Alpha  occ. eigenvalues --   -1.04680  -1.04040  -0.96514  -0.95516  -0.87542
 Alpha  occ. eigenvalues --   -0.86076  -0.82350  -0.80107  -0.78668  -0.77397
 Alpha  occ. eigenvalues --   -0.71978  -0.71105  -0.70392  -0.65515  -0.64932
 Alpha  occ. eigenvalues --   -0.64702  -0.62086  -0.61425  -0.59887  -0.58100
 Alpha  occ. eigenvalues --   -0.55784  -0.55190  -0.53337  -0.53014  -0.52943
 Alpha  occ. eigenvalues --   -0.52641  -0.50431  -0.48735  -0.48734  -0.48418
 Alpha  occ. eigenvalues --   -0.47112  -0.46221  -0.46119  -0.44745  -0.44289
 Alpha  occ. eigenvalues --   -0.37263  -0.36278
 Alpha virt. eigenvalues --    0.05133   0.11370   0.16622   0.20118   0.22585
 Alpha virt. eigenvalues --    0.23796   0.25815   0.26217   0.27078   0.28236
 Alpha virt. eigenvalues --    0.28744   0.30290   0.30956   0.31572   0.32505

 Mulliken charges:
               1
     1  C   -0.171420
     2  C   -0.223102
     3  C   -0.172748
     4  C    0.158633
     5  C   -0.171239
     6  C   -0.218501
     7  H    0.225477
     8  H    0.230120
     9  H    0.275677
    10  H    0.275283
    11  H    0.223004
    12  N    0.488142
    13  O   -0.460778
    14  O   -0.460586
    15  C   -0.298779
    16  C   -0.300067
    17  C   -0.475989
    18  H    0.151182
    19  H    0.149452
    20  H    0.153154
    21  H    0.151937
    22  H    0.155141
    23  H    0.156031
    24  H    0.161270
    25  C   -0.299414
    26  C   -0.299109
    27  C   -0.481580
    28  H    0.152075
    29  H    0.149699
    30  H    0.155666
    31  H    0.151762
    32  H    0.155722
    33  H    0.162464
    34  H    0.151420
 Sum of Mulliken charges =  -0.00000

 Dipole moment (field-independent basis, Debye):
    X=              1.9067    Y=              4.8971    Z=             -0.0434  Tot=              5.2553
 Quadrupole moment (field-independent basis, Debye-Ang):
   XX=           -104.2632   YY=            -95.7629   ZZ=            -95.6571
   XY=            -21.7943   XZ=             -0.2143   YZ=              0.3232

 Normal termination of Gaussian 16 at Wed May  5 23:44:31 2021.
