 Gaussian 16, Revision A.03,
 Gaussian 16:  EM64L-G16RevA.03 25-Dec-2016

 -------------
 #p 6-31g* mp2
 -------------

 ------------------------------------------------------
 Input file generated by CHIRIPA (05-May-2021 14:55:25)
 ------------------------------------------------------
 Symbolic Z-matrix:
 Charge =  0 Multiplicity = 1

                         Standard orientation:
 ---------------------------------------------------------------------
 Center     Atomic      Atomic             Coordinates (Angstroms)
 Number     Number       Type             X           Y           Z
 ---------------------------------------------------------------------
      1          6           0       -1.284582    0.188424    0.364128
      2          6           0       -1.960448   -0.800915    1.085886
      3          6           0       -3.330358   -1.006559    0.897188
      4          6           0       -3.996182   -0.201126   -0.025442
      5          6           0       -3.350796    0.792675   -0.759693
      6          6           0       -1.980686    0.980665   -0.554738
      7          1           0       -0.220326    0.341316    0.517027
      8          1           0       -1.422408   -1.417669    1.800150
      9          1           0       -3.878293   -1.765326    1.442585
     10          1           0       -3.914156    1.391793   -1.464748
     11          1           0       -1.458389    1.749748   -1.116666
     12          7           0       -5.446550   -0.409487   -0.233813
     13          8           0       -6.010334    0.313349   -1.052527
     14          8           0       -5.992102   -1.291691    0.425525
     15          6           0        4.109952    0.504014   -0.112166
     16          6           0        3.897778    1.836864    0.606499
     17          6           0        2.494225    2.405431    0.395395
     18          1           0        3.925930    0.640677   -1.186598
     19          1           0        3.363046   -0.219260    0.243364
     20          1           0        4.645739    2.557002    0.250728
     21          1           0        4.082514    1.697055    1.679318
     22          1           0        1.736279    1.708447    0.767327
     23          1           0        2.302705    2.573279   -0.669381
     24          1           0        2.364332    3.358361    0.917805
     25          6           0        5.508337   -0.077042    0.089382
     26          6           0        5.720511   -1.409892   -0.629282
     27          6           0        7.124064   -1.978459   -0.418179
     28          1           0        6.255244    0.646231   -0.266148
     29          1           0        5.692359   -0.213706    1.163814
     30          1           0        5.535776   -1.270083   -1.702103
     31          1           0        4.972550   -2.130029   -0.273512
     32          1           0        7.315585   -2.146307    0.646597
     33          1           0        7.882011   -1.281475   -0.790110
     34          1           0        7.253957   -2.931389   -0.940589
 ---------------------------------------------------------------------

 SCF Done:  E(RHF) =  -669.535536649     A.U. after   15 cycles
 E2 =    -0.2090811756D+01 EUMP2 =    -0.67162634840463D+03

 The electronic state is 1-A.
 Alpha  occ. eigenvalues --  -20.60719 -20.60714 -15.85773 -11.31128 -11.27700
 Alpha  occ. eigenvalues --  -11.27692 -11.27411 -11.26712 -11.26691 -11.22569
 Alpha  occ. eigenvalues --  -11.22335 -11.22291 -11.22208 -11.22077 -11.21568
 Alpha  occ. eigenvalues --   -1.59795  -1.39349  -1.19299  -1.09246  -1.08693
 Alpha  occ. eigenvalues --   -1.04702  -1.04353  -0.96823  -0.95531  -0.87842
 Alpha  occ. eigenvalues --   -0.86097  -0.82367  -0.80426  -0.79032  -0.77414
 Alpha  occ. eigenvalues --   -0.71991  -0.71118  -0.70426  -0.65875  -0.64950
 Alpha  occ. eigenvalues --   -0.64706  -0.62050  -0.61755  -0.60194  -0.58424
 Alpha  occ. eigenvalues --   -0.56189  -0.55180  -0.53499  -0.53227  -0.53029
 Alpha  occ. eigenvalues --   -0.52792  -0.50764  -0.48768  -0.48746  -0.48715
 Alpha  occ. eigenvalues --   -0.47449  -0.46579  -0.46483  -0.44756  -0.44591
 Alpha  occ. eigenvalues --   -0.37274  -0.36308
 Alpha virt. eigenvalues --    0.05117   0.11347   0.16597   0.19467   0.22372
 Alpha virt. eigenvalues --    0.23690   0.25081   0.26129   0.26879   0.27451
 Alpha virt. eigenvalues --    0.28954   0.29979   0.31059   0.31332   0.32249

 Mulliken charges:
               1
     1  C   -0.176161
     2  C   -0.220419
     3  C   -0.170750
     4  C    0.158297
     5  C   -0.170925
     6  C   -0.221592
     7  H    0.235134
     8  H    0.223343
     9  H    0.275303
    10  H    0.275428
    11  H    0.224302
    12  N    0.488014
    13  O   -0.460578
    14  O   -0.460625
    15  C   -0.298176
    16  C   -0.299726
    17  C   -0.480810
    18  H    0.150898
    19  H    0.144036
    20  H    0.156366
    21  H    0.154346
    22  H    0.146652
    23  H    0.155717
    24  H    0.166350
    25  C   -0.298843
    26  C   -0.300077
    27  C   -0.476157
    28  H    0.151709
    29  H    0.150681
    30  H    0.152892
    31  H    0.151321
    32  H    0.155780
    33  H    0.156291
    34  H    0.161978
 Sum of Mulliken charges =  -0.00000

 Dipole moment (field-independent basis, Debye):
    X=              5.3745    Y=              0.7853    Z=              0.7186  Tot=              5.4789
 Quadrupole moment (field-independent basis, Debye-Ang):
   XX=           -136.1244   YY=            -92.5079   ZZ=            -92.2695
   XY=             -3.1696   XZ=             -3.3742   YZ=             -3.4641

 Normal termination of Gaussian 16 at Thu May  6 09:31:46 2021.
