 Gaussian 16, Revision A.03,
 Gaussian 16:  EM64L-G16RevA.03 25-Dec-2016

 -------------
 #p 6-31g* mp2
 -------------

 ------------------------------------------------------
 Input file generated by CHIRIPA (05-May-2021 14:57:23)
 ------------------------------------------------------
 Symbolic Z-matrix:
 Charge =  0 Multiplicity = 1

                         Standard orientation:
 ---------------------------------------------------------------------
 Center     Atomic      Atomic             Coordinates (Angstroms)
 Number     Number       Type             X           Y           Z
 ---------------------------------------------------------------------
      1          6           0        1.908064    1.830841   -0.065448
      2          6           0        1.716540    0.711356   -0.881899
      3          6           0        2.662023   -0.318161   -0.908460
      4          6           0        3.792524   -0.194931   -0.102190
      5          6           0        4.011783    0.907874    0.721847
      6          6           0        3.053056    1.925361    0.732412
      7          1           0        1.168446    2.625922   -0.051028
      8          1           0        0.828275    0.635263   -1.502576
      9          1           0        2.538844   -1.195918   -1.531187
     10          1           0        4.907270    0.955408    1.329516
     11          1           0        3.204427    2.793606    1.367457
     12          7           0        4.800474   -1.278466   -0.121842
     13          8           0        5.787987   -1.145991    0.597815
     14          8           0        4.583908   -2.239699   -0.856531
     15          6           0       -2.070919    1.998705   -0.030171
     16          6           0       -1.961654    1.090982    1.028423
     17          6           0       -2.818164   -0.010956    1.110103
     18          6           0       -3.776780   -0.175296    0.111434
     19          6           0       -3.910515    0.711616   -0.955708
     20          6           0       -3.043287    1.806463   -1.017118
     21          1           0       -1.401398    2.851962   -0.085748
     22          1           0       -1.207441    1.237764    1.796319
     23          1           0       -2.755521   -0.729104    1.918655
     24          1           0       -4.672272    0.538793   -1.706227
     25          1           0       -3.130445    2.509796   -1.840387
     26          7           0       -4.689202   -1.338114    0.187175
     27          8           0       -5.525368   -1.460523   -0.705282
     28          8           0       -4.550916   -2.105107    1.137563
 ---------------------------------------------------------------------

 SCF Done:  E(RHF) =  -868.336602785     A.U. after   16 cycles
 E2 =    -0.2600866177D+01 EUMP2 =    -0.87093746896148D+03

 The electronic state is 1-A.
 Alpha  occ. eigenvalues --  -20.61340 -20.61333 -20.61186 -20.61179 -15.86397
 Alpha  occ. eigenvalues --  -15.86241 -11.31969 -11.31765 -11.28526 -11.28503
 Alpha  occ. eigenvalues --  -11.28450 -11.28329 -11.28293 -11.28230 -11.27661
 Alpha  occ. eigenvalues --  -11.27634 -11.27451 -11.27385  -1.60410  -1.60256
 Alpha  occ. eigenvalues --   -1.39957  -1.39805  -1.20166  -1.19953  -1.09566
 Alpha  occ. eigenvalues --   -1.09344  -1.05574  -1.05360  -0.96365  -0.96144
 Alpha  occ. eigenvalues --   -0.86980  -0.86762  -0.83164  -0.82964  -0.78142
 Alpha  occ. eigenvalues --   -0.77961  -0.72612  -0.72458  -0.71735  -0.71581
 Alpha  occ. eigenvalues --   -0.71556  -0.70952  -0.65822  -0.65623  -0.65569
 Alpha  occ. eigenvalues --   -0.65352  -0.62894  -0.62687  -0.56395  -0.55761
 Alpha  occ. eigenvalues --   -0.53976  -0.53715  -0.53614  -0.53430  -0.49388
 Alpha  occ. eigenvalues --   -0.49354  -0.49229  -0.49202  -0.45315  -0.45174
 Alpha  occ. eigenvalues --   -0.38346  -0.37906  -0.37183  -0.36889
 Alpha virt. eigenvalues --    0.04318   0.04540   0.10252   0.10890   0.15621
 Alpha virt. eigenvalues --    0.15925   0.18535   0.21844   0.24948   0.26495
 Alpha virt. eigenvalues --    0.26835   0.29287   0.29705   0.31628   0.31984

 Mulliken charges:
               1
     1  C   -0.176084
     2  C   -0.217674
     3  C   -0.170933
     4  C    0.159653
     5  C   -0.170805
     6  C   -0.219164
     7  H    0.215901
     8  H    0.226798
     9  H    0.278650
    10  H    0.277372
    11  H    0.223653
    12  N    0.487823
    13  O   -0.459039
    14  O   -0.457881
    15  C   -0.179706
    16  C   -0.216446
    17  C   -0.170698
    18  C    0.159685
    19  C   -0.170894
    20  C   -0.219654
    21  H    0.218912
    22  H    0.225725
    23  H    0.279291
    24  H    0.278250
    25  H    0.225130
    26  N    0.487808
    27  O   -0.458318
    28  O   -0.457356
 Sum of Mulliken charges =  -0.00000

 Dipole moment (field-independent basis, Debye):
    X=             -0.4099    Y=              7.6406    Z=             -0.1844  Tot=              7.6538
 Quadrupole moment (field-independent basis, Debye-Ang):
   XX=           -153.2407   YY=           -107.5999   ZZ=            -99.6127
   XY=             -0.0220   XZ=              6.2351   YZ=              0.6029

 Normal termination of Gaussian 16 at Thu May  6 12:59:04 2021.
