 Gaussian 16, Revision A.03,
 Gaussian 16:  EM64L-G16RevA.03 25-Dec-2016

 -------------
 #p 6-31g* mp2
 -------------

 ------------------------------------------------------
 Input file generated by CHIRIPA (05-May-2021 14:57:23)
 ------------------------------------------------------
 Symbolic Z-matrix:
 Charge =  0 Multiplicity = 1

                         Standard orientation:
 ---------------------------------------------------------------------
 Center     Atomic      Atomic             Coordinates (Angstroms)
 Number     Number       Type             X           Y           Z
 ---------------------------------------------------------------------
      1          6           0       -1.877393    2.267446    0.136588
      2          6           0       -1.898465    1.453606    1.274016
      3          6           0       -2.463755    0.175974    1.222524
      4          6           0       -3.001411   -0.257883    0.011746
      5          6           0       -2.995541    0.529399   -1.138664
      6          6           0       -2.425033    1.803563   -1.064005
      7          1           0       -1.436235    3.258594    0.185587
      8          1           0       -1.473898    1.811244    2.207762
      9          1           0       -2.493414   -0.474869    2.087938
     10          1           0       -3.426539    0.145286   -2.055243
     11          1           0       -2.410067    2.433422   -1.948933
     12          7           0       -3.602621   -1.608619   -0.055030
     13          8           0       -4.069737   -1.967545   -1.133738
     14          8           0       -3.595348   -2.282824    0.972605
     15          6           0        1.671975    2.234596    0.100161
     16          6           0        2.109342    1.745258   -1.135063
     17          6           0        2.792012    0.527839   -1.215069
     18          6           0        3.021270   -0.177358   -0.034634
     19          6           0        2.598068    0.283760    1.210982
     20          6           0        1.917302    1.503575    1.267184
     21          1           0        1.142400    3.181247    0.153065
     22          1           0        1.920221    2.310840   -2.043027
     23          1           0        3.141688    0.125697   -2.158164
     24          1           0        2.801373   -0.302588    2.098833
     25          1           0        1.578797    1.881157    2.227856
     26          7           0        3.742975   -1.467452   -0.106732
     27          8           0        3.932472   -2.069694    0.947797
     28          8           0        4.105484   -1.851959   -1.216407
 ---------------------------------------------------------------------

 SCF Done:  E(RHF) =  -868.334762596     A.U. after   16 cycles
 E2 =    -0.2602612588D+01 EUMP2 =    -0.87093737518394D+03

 The electronic state is 1-A.
 Alpha  occ. eigenvalues --  -20.61083 -20.61077 -20.61036 -20.61030 -15.86145
 Alpha  occ. eigenvalues --  -15.86098 -11.31685 -11.31622 -11.28285 -11.28280
 Alpha  occ. eigenvalues --  -11.28243 -11.28223 -11.28197 -11.28137 -11.27420
 Alpha  occ. eigenvalues --  -11.27380 -11.27360 -11.27304  -1.60154  -1.60107
 Alpha  occ. eigenvalues --   -1.39703  -1.39657  -1.19911  -1.19829  -1.09346
 Alpha  occ. eigenvalues --   -1.09183  -1.05345  -1.05264  -0.96156  -0.95976
 Alpha  occ. eigenvalues --   -0.86794  -0.86643  -0.82979  -0.82810  -0.77920
 Alpha  occ. eigenvalues --   -0.77841  -0.72365  -0.72316  -0.71478  -0.71432
 Alpha  occ. eigenvalues --   -0.71415  -0.70750  -0.65593  -0.65516  -0.65476
 Alpha  occ. eigenvalues --   -0.65209  -0.62728  -0.62579  -0.56289  -0.55549
 Alpha  occ. eigenvalues --   -0.54001  -0.53508  -0.53352  -0.53220  -0.49139
 Alpha  occ. eigenvalues --   -0.49103  -0.49086  -0.49058  -0.45069  -0.45027
 Alpha  occ. eigenvalues --   -0.38564  -0.37263  -0.37123  -0.36536
 Alpha virt. eigenvalues --    0.04273   0.05031   0.10077   0.11377   0.15521
 Alpha virt. eigenvalues --    0.16663   0.18319   0.22333   0.24545   0.25540
 Alpha virt. eigenvalues --    0.27825   0.28960   0.30170   0.31515   0.33118

 Mulliken charges:
               1
     1  C   -0.169695
     2  C   -0.213555
     3  C   -0.169638
     4  C    0.159880
     5  C   -0.169366
     6  C   -0.218844
     7  H    0.216278
     8  H    0.217173
     9  H    0.277415
    10  H    0.277572
    11  H    0.221978
    12  N    0.488067
    13  O   -0.458686
    14  O   -0.458202
    15  C   -0.164707
    16  C   -0.218104
    17  C   -0.169096
    18  C    0.159527
    19  C   -0.169894
    20  C   -0.217240
    21  H    0.214816
    22  H    0.221567
    23  H    0.277598
    24  H    0.277122
    25  H    0.217216
    26  N    0.488151
    27  O   -0.458697
    28  O   -0.458635
 Sum of Mulliken charges =  -0.00000

 Dipole moment (field-independent basis, Debye):
    X=             -0.4316    Y=              8.9928    Z=              0.4044  Tot=              9.0122
 Quadrupole moment (field-independent basis, Debye-Ang):
   XX=           -133.6336   YY=           -110.7332   ZZ=            -95.2521
   XY=             -0.7494   XZ=              0.9085   YZ=             -1.7748

 Normal termination of Gaussian 16 at Fri May  7 00:15:44 2021.
