 Gaussian 16, Revision A.03,
 Gaussian 16:  EM64L-G16RevA.03 25-Dec-2016

 -------------
 #p 6-31g* mp2
 -------------

 ------------------------------------------------------
 Input file generated by CHIRIPA (05-May-2021 14:55:20)
 ------------------------------------------------------
 Symbolic Z-matrix:
 Charge =  0 Multiplicity = 1

                         Standard orientation:
 ---------------------------------------------------------------------
 Center     Atomic      Atomic             Coordinates (Angstroms)
 Number     Number       Type             X           Y           Z
 ---------------------------------------------------------------------
      1          6           0        2.740539    2.753428    0.446200
      2          6           0        3.438903    2.283834   -0.671070
      3          6           0        3.523506    0.912728   -0.930797
      4          6           0        2.895060    0.035382   -0.048409
      5          6           0        2.191894    0.472364    1.073150
      6          6           0        2.120357    1.847791    1.313215
      7          1           0        2.679893    3.820214    0.640325
      8          1           0        3.921520    2.984855   -1.346122
      9          1           0        4.057654    0.521931   -1.788341
     10          1           0        1.721073   -0.250777    1.727989
     11          1           0        1.577317    2.209627    2.181678
     12          7           0        2.977709   -1.418434   -0.312963
     13          8           0        2.415372   -2.170838    0.479693
     14          8           0        3.603261   -1.778003   -1.307966
     15          6           0       -2.939468   -0.426970    0.137105
     16          6           0       -2.499780   -1.878880    0.328467
     17          6           0       -0.999199   -2.012598    0.589556
     18          1           0       -2.379635    0.011680   -0.700223
     19          1           0       -2.668926    0.151636    1.031205
     20          1           0       -2.772313   -2.454875   -0.565160
     21          1           0       -3.060864   -2.314182    1.165315
     22          1           0       -0.714730   -1.462492    1.492365
     23          1           0       -0.424540   -1.603986   -0.247943
     24          1           0       -0.706642   -3.058714    0.723392
     25          6           0       -4.437014   -0.277000   -0.124799
     26          6           0       -4.876702    1.174910   -0.316161
     27          6           0       -6.377283    1.308629   -0.577250
     28          1           0       -4.707556   -0.855606   -1.018899
     29          1           0       -4.996847   -0.715649    0.712529
     30          1           0       -4.315618    1.610212   -1.153008
     31          1           0       -4.604169    1.750906    0.577467
     32          1           0       -6.951941    0.900016    0.260249
     33          1           0       -6.661751    0.758523   -1.480058
     34          1           0       -6.669840    2.354744   -0.711086
 ---------------------------------------------------------------------

 SCF Done:  E(RHF) =  -669.535473122     A.U. after   15 cycles
 E2 =    -0.2091956057D+01 EUMP2 =    -0.67162742917860D+03

 The electronic state is 1-A.
 Alpha  occ. eigenvalues --  -20.60810 -20.60779 -15.85821 -11.31174 -11.27753
 Alpha  occ. eigenvalues --  -11.27727 -11.27495 -11.26763 -11.26748 -11.21619
 Alpha  occ. eigenvalues --  -11.21314 -11.21254 -11.21195 -11.21092 -11.20470
 Alpha  occ. eigenvalues --   -1.59859  -1.39412  -1.19350  -1.08751  -1.08290
 Alpha  occ. eigenvalues --   -1.04751  -1.03325  -0.95771  -0.95571  -0.86768
 Alpha  occ. eigenvalues --   -0.86147  -0.82419  -0.79404  -0.78119  -0.77447
 Alpha  occ. eigenvalues --   -0.72048  -0.71176  -0.70462  -0.65006  -0.64929
 Alpha  occ. eigenvalues --   -0.64757  -0.62106  -0.60728  -0.59132  -0.57371
 Alpha  occ. eigenvalues --   -0.55265  -0.55056  -0.53087  -0.52866  -0.52388
 Alpha  occ. eigenvalues --   -0.52172  -0.49727  -0.48821  -0.48804  -0.47708
 Alpha  occ. eigenvalues --   -0.46467  -0.45675  -0.45587  -0.44723  -0.43533
 Alpha  occ. eigenvalues --   -0.37333  -0.36345
 Alpha virt. eigenvalues --    0.05042   0.11266   0.16519   0.21122   0.22976
 Alpha virt. eigenvalues --    0.24334   0.25969   0.26958   0.27692   0.27721
 Alpha virt. eigenvalues --    0.28912   0.30596   0.31415   0.31837   0.32379

 Mulliken charges:
               1
     1  C   -0.170527
     2  C   -0.218789
     3  C   -0.171028
     4  C    0.156478
     5  C   -0.170072
     6  C   -0.219271
     7  H    0.225562
     8  H    0.223314
     9  H    0.275423
    10  H    0.279048
    11  H    0.223339
    12  N    0.487700
    13  O   -0.457221
    14  O   -0.460445
    15  C   -0.297113
    16  C   -0.303041
    17  C   -0.465764
    18  H    0.148845
    19  H    0.144076
    20  H    0.152938
    21  H    0.150057
    22  H    0.142233
    23  H    0.153719
    24  H    0.171900
    25  C   -0.297831
    26  C   -0.299111
    27  C   -0.475539
    28  H    0.150549
    29  H    0.149536
    30  H    0.151152
    31  H    0.149546
    32  H    0.155282
    33  H    0.155881
    34  H    0.159172
 Sum of Mulliken charges =  -0.00000

 Dipole moment (field-independent basis, Debye):
    X=             -0.1794    Y=              4.9947    Z=              0.9066  Tot=              5.0794
 Quadrupole moment (field-independent basis, Debye-Ang):
   XX=            -97.0969   YY=            -94.5143   ZZ=            -90.8779
   XY=             15.8832   XZ=             -0.1316   YZ=             -0.9267

 Normal termination of Gaussian 16 at Thu May  6 20:39:32 2021.
