 Gaussian 16, Revision A.03,
 Gaussian 16:  EM64L-G16RevA.03 25-Dec-2016

 -------------
 #p 6-31g* mp2
 -------------

 ------------------------------------------------------
 Input file generated by CHIRIPA (05-May-2021 14:57:22)
 ------------------------------------------------------
 Symbolic Z-matrix:
 Charge =  0 Multiplicity = 1

                         Standard orientation:
 ---------------------------------------------------------------------
 Center     Atomic      Atomic             Coordinates (Angstroms)
 Number     Number       Type             X           Y           Z
 ---------------------------------------------------------------------
      1          6           0        2.919345    2.735128   -0.130166
      2          6           0        4.188663    2.165538    0.014475
      3          6           0        4.350758    0.777119   -0.009356
      4          6           0        3.216753   -0.015383   -0.180421
      5          6           0        1.938935    0.522140   -0.327184
      6          6           0        1.800505    1.913061   -0.300234
      7          1           0        2.802618    3.814656   -0.110442
      8          1           0        5.059352    2.801511    0.146702
      9          1           0        5.321804    0.309715    0.100278
     10          1           0        1.089775   -0.137697   -0.457414
     11          1           0        0.813519    2.352640   -0.412809
     12          7           0        3.375829   -1.486564   -0.207301
     13          8           0        2.360909   -2.162921   -0.359342
     14          8           0        4.512421   -1.935462   -0.075819
     15          6           0       -5.205433    1.015529   -0.696948
     16          6           0       -4.759281   -0.139480   -1.347656
     17          6           0       -3.643975   -0.836023   -0.872822
     18          6           0       -2.995743   -0.347217    0.260383
     19          6           0       -3.416020    0.800555    0.930665
     20          6           0       -4.533563    1.481040    0.438135
     21          1           0       -6.072698    1.550384   -1.072683
     22          1           0       -5.279106   -0.503315   -2.229388
     23          1           0       -3.277195   -1.732834   -1.357198
     24          1           0       -2.877202    1.138872    1.807383
     25          1           0       -4.877809    2.377760    0.945515
     26          7           0       -1.813833   -1.076115    0.772435
     27          8           0       -1.260158   -0.624900    1.772677
     28          8           0       -1.463508   -2.084840    0.163844
 ---------------------------------------------------------------------

 SCF Done:  E(RHF) =  -868.336543530     A.U. after   16 cycles
 E2 =    -0.2600377954D+01 EUMP2 =    -0.87093692148353D+03

 The electronic state is 1-A.
 Alpha  occ. eigenvalues --  -20.61047 -20.60975 -20.59745 -20.59659 -15.86048
 Alpha  occ. eigenvalues --  -15.84760 -11.31515 -11.30324 -11.28110 -11.28052
 Alpha  occ. eigenvalues --  -11.27827 -11.27123 -11.27079 -11.26985 -11.26885
 Alpha  occ. eigenvalues --  -11.26802 -11.26050 -11.26026  -1.60097  -1.58785
 Alpha  occ. eigenvalues --   -1.39636  -1.38324  -1.19693  -1.18544  -1.09067
 Alpha  occ. eigenvalues --   -1.07918  -1.05097  -1.03983  -0.95878  -0.94708
 Alpha  occ. eigenvalues --   -0.86489  -0.85377  -0.82696  -0.81537  -0.77742
 Alpha  occ. eigenvalues --   -0.76532  -0.72222  -0.71487  -0.70963  -0.70778
 Alpha  occ. eigenvalues --   -0.70114  -0.69664  -0.65328  -0.65085  -0.64202
 Alpha  occ. eigenvalues --   -0.64015  -0.62433  -0.61321  -0.55580  -0.54524
 Alpha  occ. eigenvalues --   -0.53440  -0.53177  -0.52298  -0.52094  -0.49014
 Alpha  occ. eigenvalues --   -0.48980  -0.47777  -0.47706  -0.45002  -0.43686
 Alpha  occ. eigenvalues --   -0.37685  -0.36712  -0.36563  -0.35579
 Alpha virt. eigenvalues --    0.04747   0.06015   0.10936   0.12068   0.16228
 Alpha virt. eigenvalues --    0.17437   0.21108   0.22022   0.27031   0.27637
 Alpha virt. eigenvalues --    0.28145   0.28889   0.30752   0.31475   0.32299

 Mulliken charges:
               1
     1  C   -0.171365
     2  C   -0.219360
     3  C   -0.171036
     4  C    0.156429
     5  C   -0.165382
     6  C   -0.218386
     7  H    0.221102
     8  H    0.220096
     9  H    0.273855
    10  H    0.282738
    11  H    0.217340
    12  N    0.486626
    13  O   -0.448657
    14  O   -0.466701
    15  C   -0.171030
    16  C   -0.218565
    17  C   -0.171532
    18  C    0.155380
    19  C   -0.174242
    20  C   -0.218898
    21  H    0.226504
    22  H    0.225265
    23  H    0.279092
    24  H    0.274954
    25  H    0.223479
    26  N    0.482258
    27  O   -0.461457
    28  O   -0.448507
 Sum of Mulliken charges =  -0.00000

 Dipole moment (field-independent basis, Debye):
    X=             -5.0024    Y=              7.4293    Z=             -1.7232  Tot=              9.1207
 Quadrupole moment (field-independent basis, Debye-Ang):
   XX=            -79.8864   YY=           -105.5909   ZZ=           -104.2444
   XY=             11.2004   XZ=              6.2769   YZ=              3.3903

 Normal termination of Gaussian 16 at Wed May  5 19:20:44 2021.
