 Gaussian 16, Revision A.03,
 Gaussian 16:  EM64L-G16RevA.03 25-Dec-2016

 -------------
 #p 6-31g* mp2
 -------------

 ------------------------------------------------------
 Input file generated by CHIRIPA (05-May-2021 14:53:15)
 ------------------------------------------------------
 Symbolic Z-matrix:
 Charge =  0 Multiplicity = 1

                         Standard orientation:
 ---------------------------------------------------------------------
 Center     Atomic      Atomic             Coordinates (Angstroms)
 Number     Number       Type             X           Y           Z
 ---------------------------------------------------------------------
      1          6           0       -4.372780    0.245913   -0.292900
      2          6           0       -5.524448   -0.690717   -0.659464
      3          6           0       -6.445813   -0.104131   -1.729417
      4          1           0       -4.783938    1.201885    0.059251
      5          1           0       -3.789991    0.470396   -1.196980
      6          1           0       -6.104073   -0.914470    0.245293
      7          1           0       -5.110502   -1.644639   -1.010602
      8          1           0       -5.886895    0.102798   -2.647781
      9          1           0       -6.886111    0.837115   -1.384750
     10          1           0       -7.262065   -0.790154   -1.976325
     11          6           0       -3.442968   -0.326522    0.775508
     12          6           0       -2.291299    0.610107    1.142073
     13          6           0       -1.369935    0.023521    2.212025
     14          1           0       -4.025756   -0.551005    1.679588
     15          1           0       -3.031809   -1.282495    0.423358
     16          1           0       -2.705245    1.564029    1.493210
     17          1           0       -1.711674    0.833861    0.237316
     18          1           0       -0.929637   -0.917725    1.867358
     19          1           0       -1.928853   -0.183408    3.130389
     20          1           0       -0.553683    0.709545    2.458934
     21          6           0        2.568454    2.507581   -0.197354
     22          6           0        3.594441    1.992233   -0.996284
     23          6           0        3.871769    0.621968   -0.999329
     24          6           0        3.099873   -0.207892   -0.187664
     25          6           0        2.071005    0.275334    0.619315
     26          6           0        1.811346    1.648999    0.606478
     27          1           0        2.359881    3.573357   -0.201157
     28          1           0        4.184046    2.656654   -1.621548
     29          1           0        4.660186    0.196329   -1.608140
     30          1           0        1.500381   -0.411911    1.232096
     31          1           0        1.013936    2.046429    1.227953
     32          7           0        3.384116   -1.660331   -0.182482
     33          8           0        2.689617   -2.370401    0.541470
     34          8           0        4.296023   -2.061179   -0.902470
 ---------------------------------------------------------------------

 SCF Done:  E(RHF) =  -669.535068421     A.U. after   15 cycles
 E2 =    -0.2092152803D+01 EUMP2 =    -0.67162722122402D+03

 The electronic state is 1-A.
 Alpha  occ. eigenvalues --  -20.60734 -20.60729 -15.85785 -11.31119 -11.27711
 Alpha  occ. eigenvalues --  -11.27637 -11.27450 -11.26721 -11.26681 -11.22260
 Alpha  occ. eigenvalues --  -11.21937 -11.21812 -11.21786 -11.21678 -11.21246
 Alpha  occ. eigenvalues --   -1.59809  -1.39364  -1.19301  -1.08840  -1.08704
 Alpha  occ. eigenvalues --   -1.04714  -1.03987  -0.96460  -0.95538  -0.87482
 Alpha  occ. eigenvalues --   -0.86103  -0.82376  -0.80065  -0.78612  -0.77427
 Alpha  occ. eigenvalues --   -0.72006  -0.71132  -0.70420  -0.65467  -0.64959
 Alpha  occ. eigenvalues --   -0.64732  -0.62238  -0.61307  -0.59789  -0.58040
 Alpha  occ. eigenvalues --   -0.55736  -0.55184  -0.53172  -0.53031  -0.53021
 Alpha  occ. eigenvalues --   -0.52635  -0.50349  -0.48761  -0.48759  -0.48373
 Alpha  occ. eigenvalues --   -0.47062  -0.46162  -0.46055  -0.44775  -0.44237
 Alpha  occ. eigenvalues --   -0.37290  -0.36297
 Alpha virt. eigenvalues --    0.05090   0.11332   0.16529   0.20046   0.22756
 Alpha virt. eigenvalues --    0.23900   0.26033   0.26151   0.26649   0.27957
 Alpha virt. eigenvalues --    0.28873   0.30065   0.31259   0.31573   0.32476

 Mulliken charges:
               1
     1  C   -0.298804
     2  C   -0.300306
     3  C   -0.475975
     4  H    0.148894
     5  H    0.150095
     6  H    0.152520
     7  H    0.154185
     8  H    0.155498
     9  H    0.154713
    10  H    0.161545
    11  C   -0.299460
    12  C   -0.302497
    13  C   -0.485103
    14  H    0.151205
    15  H    0.154705
    16  H    0.151341
    17  H    0.152601
    18  H    0.164502
    19  H    0.162774
    20  H    0.148793
    21  C   -0.170915
    22  C   -0.218994
    23  C   -0.170515
    24  C    0.158205
    25  C   -0.175257
    26  C   -0.224388
    27  H    0.225583
    28  H    0.223158
    29  H    0.275324
    30  H    0.282252
    31  H    0.227900
    32  N    0.488118
    33  O   -0.461061
    34  O   -0.460638
 Sum of Mulliken charges =  -0.00000

 Dipole moment (field-independent basis, Debye):
    X=             -1.1847    Y=              5.0283    Z=             -0.0294  Tot=              5.1661
 Quadrupole moment (field-independent basis, Debye-Ang):
   XX=            -98.4323   YY=            -97.3420   ZZ=            -93.0900
   XY=             17.0188   XZ=             -3.7807   YZ=             -1.1274

 Normal termination of Gaussian 16 at Wed May  5 18:38:23 2021.
