 Gaussian 16, Revision A.03,
 Gaussian 16:  EM64L-G16RevA.03 25-Dec-2016

 -------------
 #p 6-31g* mp2
 -------------

 ------------------------------------------------------
 Input file generated by CHIRIPA (05-May-2021 14:51:10)
 ------------------------------------------------------
 Symbolic Z-matrix:
 Charge =  0 Multiplicity = 1

                         Standard orientation:
 ---------------------------------------------------------------------
 Center     Atomic      Atomic             Coordinates (Angstroms)
 Number     Number       Type             X           Y           Z
 ---------------------------------------------------------------------
      1          6           0        3.148283   -1.059480    0.317637
      2          6           0        1.619246   -1.056048    0.321769
      3          6           0        1.026237   -2.398517    0.750618
      4          1           0        3.505019   -1.851246   -0.355260
      5          1           0        3.510147   -1.316918    1.322712
      6          1           0        1.260379   -0.797338   -0.682671
      7          1           0        1.266108   -0.264073    0.994588
      8          1           0        1.355949   -2.660059    1.761304
      9          1           0        1.350187   -3.196354    0.074516
     10          1           0       -0.067943   -2.373749    0.746481
     11          6           0        3.755943    0.275633   -0.108922
     12          6           0        5.284981    0.272201   -0.113054
     13          6           0        5.877990    1.614670   -0.541903
     14          1           0        3.394080    0.533071   -1.113997
     15          1           0        3.399207    1.067399    0.563975
     16          1           0        5.638118   -0.519774   -0.785873
     17          1           0        5.643847    0.013491    0.891385
     18          1           0        5.554039    2.412507    0.134199
     19          1           0        5.548277    1.876212   -1.552589
     20          1           0        6.972170    1.589902   -0.537766
     21          6           0       -3.036586    1.031635   -0.143578
     22          6           0       -3.790616    2.274493    0.330476
     23          6           0       -2.946141    3.546313    0.246030
     24          1           0       -2.126736    0.910101    0.460034
     25          1           0       -2.705832    1.185110   -1.180131
     26          1           0       -4.121048    2.118168    1.365364
     27          1           0       -4.698876    2.392975   -0.274208
     28          1           0       -2.628003    3.729723   -0.785353
     29          1           0       -2.046893    3.453354    0.863535
     30          1           0       -3.504603    4.422588    0.589719
     31          6           0       -3.867640   -0.247788   -0.065136
     32          6           0       -3.113610   -1.490647   -0.539191
     33          6           0       -3.958086   -2.762465   -0.454744
     34          1           0       -4.198395   -0.401263    0.971416
     35          1           0       -4.777490   -0.126254   -0.668749
     36          1           0       -2.205351   -1.609128    0.065494
     37          1           0       -2.783178   -1.334321   -1.574078
     38          1           0       -4.857333   -2.669507   -1.072250
     39          1           0       -4.276223   -2.945876    0.576638
     40          1           0       -3.399623   -3.638741   -0.798433
 ---------------------------------------------------------------------

 SCF Done:  E(RHF) =  -470.733361853     A.U. after   11 cycles
 E2 =    -0.1582646233D+01 EUMP2 =    -0.47231600808627D+03

 The electronic state is 1-A.
 Alpha  occ. eigenvalues --  -11.21602 -11.21600 -11.21599 -11.21596 -11.21404
 Alpha  occ. eigenvalues --  -11.21400 -11.21344 -11.21340 -11.21072 -11.21067
 Alpha  occ. eigenvalues --  -11.21065 -11.21063  -1.08437  -1.08420  -1.03547
 Alpha  occ. eigenvalues --   -1.03512  -0.95989  -0.95966  -0.87013  -0.86976
 Alpha  occ. eigenvalues --   -0.79624  -0.79560  -0.78259  -0.78223  -0.65069
 Alpha  occ. eigenvalues --   -0.65057  -0.60960  -0.60921  -0.59458  -0.59243
 Alpha  occ. eigenvalues --   -0.57653  -0.57523  -0.55270  -0.55256  -0.52725
 Alpha  occ. eigenvalues --   -0.52646  -0.52439  -0.52367  -0.49917  -0.49914
 Alpha  occ. eigenvalues --   -0.48016  -0.47808  -0.46624  -0.46607  -0.45804
 Alpha  occ. eigenvalues --   -0.45752  -0.45716  -0.45687  -0.43799  -0.43739
 Alpha virt. eigenvalues --    0.21188   0.23103   0.23610   0.24577   0.26107
 Alpha virt. eigenvalues --    0.26640   0.27023   0.27401   0.28068   0.29086
 Alpha virt. eigenvalues --    0.30209   0.31378   0.31641   0.31846   0.32067

 Mulliken charges:
               1
     1  C   -0.298349
     2  C   -0.299412
     3  C   -0.482798
     4  H    0.149732
     5  H    0.149452
     6  H    0.152993
     7  H    0.151199
     8  H    0.155025
     9  H    0.155438
    10  H    0.166351
    11  C   -0.298243
    12  C   -0.299666
    13  C   -0.475703
    14  H    0.149672
    15  H    0.149598
    16  H    0.151933
    17  H    0.151884
    18  H    0.155200
    19  H    0.155217
    20  H    0.160234
    21  C   -0.298696
    22  C   -0.299687
    23  C   -0.475632
    24  H    0.150214
    25  H    0.149521
    26  H    0.151854
    27  H    0.151934
    28  H    0.155238
    29  H    0.155156
    30  H    0.160184
    31  C   -0.297602
    32  C   -0.308125
    33  C   -0.475451
    34  H    0.149382
    35  H    0.149710
    36  H    0.159325
    37  H    0.151971
    38  H    0.155302
    39  H    0.155097
    40  H    0.160547
 Sum of Mulliken charges =  -0.00000

 Dipole moment (field-independent basis, Debye):
    X=             -0.0020    Y=             -0.0011    Z=             -0.0103  Tot=              0.0106
 Quadrupole moment (field-independent basis, Debye-Ang):
   XX=            -85.2813   YY=            -86.5130   ZZ=            -82.9802
   XY=             -1.0461   XZ=              0.4862   YZ=              0.4318

 Normal termination of Gaussian 16 at Thu May  6 02:13:21 2021.
