 Gaussian 16, Revision A.03,
 Gaussian 16:  EM64L-G16RevA.03 25-Dec-2016

 -------------
 #p 6-31g* mp2
 -------------

 ------------------------------------------------------
 Input file generated by CHIRIPA (05-May-2021 14:55:25)
 ------------------------------------------------------
 Symbolic Z-matrix:
 Charge =  0 Multiplicity = 1

                         Standard orientation:
 ---------------------------------------------------------------------
 Center     Atomic      Atomic             Coordinates (Angstroms)
 Number     Number       Type             X           Y           Z
 ---------------------------------------------------------------------
      1          6           0       -1.480805    0.565976   -0.253912
      2          6           0       -2.484526    1.500720   -0.528355
      3          6           0       -3.832657    1.139691   -0.446205
      4          6           0       -4.142623   -0.170581   -0.085096
      5          6           0       -3.165450   -1.124686    0.194380
      6          6           0       -1.823866   -0.741439    0.105945
      7          1           0       -0.436087    0.855061   -0.320170
      8          1           0       -2.221044    2.516784   -0.808063
      9          1           0       -4.629874    1.843224   -0.653337
     10          1           0       -3.459126   -2.130082    0.470699
     11          1           0       -1.046477   -1.469482    0.319640
     12          7           0       -5.566363   -0.564547    0.005199
     13          8           0       -5.813251   -1.725202    0.325454
     14          8           0       -6.408445    0.294778   -0.245992
     15          6           0        4.475419    0.673421    0.000373
     16          6           0        3.280106    0.589206    0.950174
     17          6           0        2.234817    1.672473    0.682409
     18          1           0        4.940295    1.664489    0.093209
     19          1           0        4.118216    0.591522   -1.035528
     20          1           0        3.639605    0.669852    1.984037
     21          1           0        2.818138   -0.401845    0.855207
     22          1           0        1.848270    1.590839   -0.338629
     23          1           0        2.674406    2.668625    0.796615
     24          1           0        1.389109    1.593679    1.372649
     25          6           0        5.528992   -0.402956    0.255570
     26          6           0        6.724305   -0.318742   -0.694230
     27          6           0        7.769594   -1.402007   -0.426466
     28          1           0        5.886195   -0.321057    1.291472
     29          1           0        5.064116   -1.394025    0.162735
     30          1           0        7.186273    0.672309   -0.599262
     31          1           0        6.364806   -0.399386   -1.728093
     32          1           0        7.330005   -2.398160   -0.540672
     33          1           0        8.156141   -1.320375    0.594573
     34          1           0        8.615302   -1.323214   -1.116705
 ---------------------------------------------------------------------

 SCF Done:  E(RHF) =  -669.535351732     A.U. after   15 cycles
 E2 =    -0.2091113017D+01 EUMP2 =    -0.67162646474920D+03

 The electronic state is 1-A.
 Alpha  occ. eigenvalues --  -20.60702 -20.60697 -15.85756 -11.31102 -11.27676
 Alpha  occ. eigenvalues --  -11.27671 -11.27316 -11.26673 -11.26659 -11.22694
 Alpha  occ. eigenvalues --  -11.22445 -11.22249 -11.22177 -11.22063 -11.21547
 Alpha  occ. eigenvalues --   -1.59779  -1.39333  -1.19270  -1.09258  -1.08660
 Alpha  occ. eigenvalues --   -1.04675  -1.04397  -0.96868  -0.95498  -0.87891
 Alpha  occ. eigenvalues --   -0.86068  -0.82341  -0.80473  -0.79017  -0.77395
 Alpha  occ. eigenvalues --   -0.71973  -0.71102  -0.70389  -0.65889  -0.64917
 Alpha  occ. eigenvalues --   -0.64683  -0.62027  -0.61805  -0.60266  -0.58438
 Alpha  occ. eigenvalues --   -0.56296  -0.55078  -0.53508  -0.53280  -0.52991
 Alpha  occ. eigenvalues --   -0.52763  -0.50777  -0.48776  -0.48730  -0.48729
 Alpha  occ. eigenvalues --   -0.47487  -0.46570  -0.46464  -0.44743  -0.44622
 Alpha  occ. eigenvalues --   -0.37234  -0.36288
 Alpha virt. eigenvalues --    0.05131   0.11367   0.16584   0.20064   0.22482
 Alpha virt. eigenvalues --    0.23822   0.25742   0.26130   0.26778   0.27487
 Alpha virt. eigenvalues --    0.29298   0.30200   0.30810   0.31162   0.32113

 Mulliken charges:
               1
     1  C   -0.178137
     2  C   -0.222061
     3  C   -0.170690
     4  C    0.158047
     5  C   -0.170678
     6  C   -0.222342
     7  H    0.239944
     8  H    0.223605
     9  H    0.275231
    10  H    0.275162
    11  H    0.222901
    12  N    0.488023
    13  O   -0.460753
    14  O   -0.460690
    15  C   -0.299228
    16  C   -0.299315
    17  C   -0.485748
    18  H    0.152065
    19  H    0.149549
    20  H    0.157223
    21  H    0.148911
    22  H    0.149184
    23  H    0.163247
    24  H    0.161830
    25  C   -0.298855
    26  C   -0.300242
    27  C   -0.476136
    28  H    0.151222
    29  H    0.149679
    30  H    0.152983
    31  H    0.152354
    32  H    0.155648
    33  H    0.156085
    34  H    0.161983
 Sum of Mulliken charges =  -0.00000

 Dipole moment (field-independent basis, Debye):
    X=              5.3265    Y=              1.4280    Z=             -0.2726  Tot=              5.5213
 Quadrupole moment (field-independent basis, Debye-Ang):
   XX=           -136.1101   YY=            -91.0603   ZZ=            -94.7215
   XY=             -7.1113   XZ=              1.7129   YZ=             -0.9414

 Normal termination of Gaussian 16 at Wed May  5 22:27:45 2021.
