 Gaussian 16, Revision A.03,
 Gaussian 16:  EM64L-G16RevA.03 25-Dec-2016

 -------------
 #p 6-31g* mp2
 -------------

 ------------------------------------------------------
 Input file generated by CHIRIPA (05-May-2021 14:55:21)
 ------------------------------------------------------
 Symbolic Z-matrix:
 Charge =  0 Multiplicity = 1

                         Standard orientation:
 ---------------------------------------------------------------------
 Center     Atomic      Atomic             Coordinates (Angstroms)
 Number     Number       Type             X           Y           Z
 ---------------------------------------------------------------------
      1          6           0        2.123736    2.792071    0.295089
      2          6           0        3.377300    2.326370    0.705237
      3          6           0        3.751640    0.999107    0.475480
      4          6           0        2.843637    0.161156   -0.170011
      5          6           0        1.587522    0.595400   -0.590600
      6          6           0        1.234416    1.926625   -0.350383
      7          1           0        1.841188    3.824660    0.477633
      8          1           0        4.069988    2.996238    1.206741
      9          1           0        4.715791    0.612331    0.782460
     10          1           0        0.918409   -0.096053   -1.088193
     11          1           0        0.260220    2.285543   -0.670014
     12          7           0        3.228695   -1.246056   -0.418782
     13          8           0        2.410682   -1.964286   -0.989428
     14          8           0        4.341224   -1.604152   -0.038411
     15          6           0       -3.195417   -0.993322    0.624741
     16          6           0       -1.895573   -1.534293    0.028301
     17          6           0       -1.180461   -2.513657    0.959565
     18          1           0       -2.974759   -0.498218    1.580318
     19          1           0       -3.862931   -1.835048    0.855641
     20          1           0       -1.231260   -0.691707   -0.202686
     21          1           0       -2.119323   -2.027998   -0.926060
     22          1           0       -1.821806   -3.372886    1.180936
     23          1           0       -0.928696   -2.029003    1.908420
     24          1           0       -0.253796   -2.887999    0.513450
     25          6           0       -3.921832   -0.012967   -0.294473
     26          6           0       -5.221677    0.528005    0.301966
     27          6           0       -5.936788    1.507370   -0.629299
     28          1           0       -3.254318    0.828760   -0.525373
     29          1           0       -4.142490   -0.508070   -1.250050
     30          1           0       -4.997925    1.021710    1.256328
     31          1           0       -5.885989   -0.314580    0.532954
     32          1           0       -6.188553    1.022715   -1.578153
     33          1           0       -5.295443    2.366598   -0.850669
     34          1           0       -6.863453    1.881711   -0.183183
 ---------------------------------------------------------------------

 SCF Done:  E(RHF) =  -669.535807112     A.U. after   15 cycles
 E2 =    -0.2092062502D+01 EUMP2 =    -0.67162786961402D+03

 The electronic state is 1-A.
 Alpha  occ. eigenvalues --  -20.60859 -20.60851 -15.85893 -11.31221 -11.27800
 Alpha  occ. eigenvalues --  -11.27762 -11.27541 -11.26811 -11.26801 -11.21877
 Alpha  occ. eigenvalues --  -11.21715 -11.21695 -11.21527 -11.21364 -11.20731
 Alpha  occ. eigenvalues --   -1.59918  -1.39473  -1.19400  -1.08801  -1.08631
 Alpha  occ. eigenvalues --   -1.04802  -1.03649  -0.96068  -0.95639  -0.87078
 Alpha  occ. eigenvalues --   -0.86199  -0.82476  -0.79739  -0.78473  -0.77518
 Alpha  occ. eigenvalues --   -0.72115  -0.71231  -0.70517  -0.65292  -0.65052
 Alpha  occ. eigenvalues --   -0.64802  -0.62194  -0.61026  -0.59430  -0.57667
 Alpha  occ. eigenvalues --   -0.55394  -0.55283  -0.53127  -0.52896  -0.52707
 Alpha  occ. eigenvalues --   -0.52480  -0.50024  -0.48875  -0.48870  -0.48023
 Alpha  occ. eigenvalues --   -0.46790  -0.45993  -0.45925  -0.44882  -0.43881
 Alpha  occ. eigenvalues --   -0.37380  -0.36387
 Alpha virt. eigenvalues --    0.04953   0.11221   0.16409   0.20299   0.22804
 Alpha virt. eigenvalues --    0.24080   0.25302   0.26782   0.27128   0.28256
 Alpha virt. eigenvalues --    0.29222   0.30748   0.31409   0.31584   0.32066

 Mulliken charges:
               1
     1  C   -0.170577
     2  C   -0.218604
     3  C   -0.170759
     4  C    0.158166
     5  C   -0.173114
     6  C   -0.220370
     7  H    0.225759
     8  H    0.223618
     9  H    0.275679
    10  H    0.281501
    11  H    0.223729
    12  N    0.488367
    13  O   -0.460961
    14  O   -0.459366
    15  C   -0.297941
    16  C   -0.300006
    17  C   -0.483333
    18  H    0.148946
    19  H    0.152097
    20  H    0.139067
    21  H    0.155195
    22  H    0.155070
    23  H    0.152163
    24  H    0.179761
    25  C   -0.296529
    26  C   -0.299718
    27  C   -0.475445
    28  H    0.140932
    29  H    0.151407
    30  H    0.151388
    31  H    0.154005
    32  H    0.156290
    33  H    0.152386
    34  H    0.161197
 Sum of Mulliken charges =  -0.00000

 Dipole moment (field-independent basis, Debye):
    X=             -1.3021    Y=              4.8271    Z=              0.8908  Tot=              5.0784
 Quadrupole moment (field-independent basis, Debye-Ang):
   XX=            -98.5900   YY=            -93.1528   ZZ=            -95.0294
   XY=             15.9036   XZ=              4.8822   YZ=              0.5222

 Normal termination of Gaussian 16 at Thu May  6 15:50:20 2021.
