 Gaussian 16, Revision A.03,
 Gaussian 16:  EM64L-G16RevA.03 25-Dec-2016

 -------------
 #p 6-31g* mp2
 -------------

 ------------------------------------------------------
 Input file generated by CHIRIPA (05-May-2021 14:57:21)
 ------------------------------------------------------
 Symbolic Z-matrix:
 Charge =  0 Multiplicity = 1

                         Standard orientation:
 ---------------------------------------------------------------------
 Center     Atomic      Atomic             Coordinates (Angstroms)
 Number     Number       Type             X           Y           Z
 ---------------------------------------------------------------------
      1          6           0        2.135066    1.724500   -1.717701
      2          6           0        3.108099    2.126450   -0.796743
      3          6           0        3.620818    1.219667    0.135679
      4          6           0        3.135749   -0.087129    0.118850
      5          6           0        2.166794   -0.517900   -0.786054
      6          6           0        1.668342    0.405932   -1.709432
      7          1           0        1.742315    2.435533   -2.438517
      8          1           0        3.472419    3.149827   -0.800847
      9          1           0        4.374550    1.504109    0.859832
     10          1           0        1.823172   -1.544802   -0.757533
     11          1           0        0.912718    0.090970   -2.423488
     12          7           0        3.670990   -1.056124    1.101177
     13          8           0        3.227139   -2.201714    1.065726
     14          8           0        4.524228   -0.651685    1.887974
     15          6           0       -3.582274    1.839197    1.600325
     16          6           0       -4.079185    0.559161    1.866986
     17          6           0       -3.789288   -0.507551    1.011046
     18          6           0       -2.995838   -0.257396   -0.107503
     19          6           0       -2.485964    1.006579   -0.400221
     20          6           0       -2.788649    2.058435    0.469567
     21          1           0       -3.812440    2.662074    2.270618
     22          1           0       -4.695779    0.385964    2.744402
     23          1           0       -4.160929   -1.508533    1.193627
     24          1           0       -1.873984    1.148314   -1.282723
     25          1           0       -2.401373    3.051477    0.259975
     26          7           0       -2.682169   -1.378812   -1.020978
     27          8           0       -1.980884   -1.132324   -1.999794
     28          8           0       -3.143539   -2.483033   -0.740848
 ---------------------------------------------------------------------

 SCF Done:  E(RHF) =  -868.339150680     A.U. after   16 cycles
 E2 =    -0.2599425622D+01 EUMP2 =    -0.87093857630239D+03

 The electronic state is 1-A.
 Alpha  occ. eigenvalues --  -20.61441 -20.61363 -20.60563 -20.60545 -15.86443
 Alpha  occ. eigenvalues --  -15.85605 -11.31632 -11.30966 -11.28241 -11.28146
 Alpha  occ. eigenvalues --  -11.27885 -11.27569 -11.27423 -11.27307 -11.27189
 Alpha  occ. eigenvalues --  -11.27123 -11.26624 -11.26396  -1.60463  -1.59633
 Alpha  occ. eigenvalues --   -1.40027  -1.39185  -1.19788  -1.19135  -1.09212
 Alpha  occ. eigenvalues --   -1.08549  -1.05172  -1.04505  -0.96079  -0.95380
 Alpha  occ. eigenvalues --   -0.86580  -0.85916  -0.82927  -0.82183  -0.78002
 Alpha  occ. eigenvalues --   -0.77217  -0.72673  -0.71823  -0.71770  -0.70957
 Alpha  occ. eigenvalues --   -0.70903  -0.70267  -0.65452  -0.65183  -0.64777
 Alpha  occ. eigenvalues --   -0.64475  -0.62538  -0.61814  -0.55674  -0.55065
 Alpha  occ. eigenvalues --   -0.53499  -0.53280  -0.52872  -0.52563  -0.49434
 Alpha  occ. eigenvalues --   -0.49392  -0.48585  -0.48574  -0.45468  -0.44590
 Alpha  occ. eigenvalues --   -0.37749  -0.37176  -0.36762  -0.36101
 Alpha virt. eigenvalues --    0.04520   0.05269   0.10858   0.11490   0.16034
 Alpha virt. eigenvalues --    0.16756   0.20589   0.21854   0.26194   0.27271
 Alpha virt. eigenvalues --    0.28416   0.28713   0.30408   0.31332   0.32025

 Mulliken charges:
               1
     1  C   -0.175695
     2  C   -0.218860
     3  C   -0.172413
     4  C    0.158435
     5  C   -0.173067
     6  C   -0.227488
     7  H    0.222216
     8  H    0.220778
     9  H    0.274123
    10  H    0.282183
    11  H    0.241802
    12  N    0.487759
    13  O   -0.458111
    14  O   -0.462463
    15  C   -0.169736
    16  C   -0.218063
    17  C   -0.169507
    18  C    0.158481
    19  C   -0.168064
    20  C   -0.217690
    21  H    0.227231
    22  H    0.225819
    23  H    0.277565
    24  H    0.268249
    25  H    0.222282
    26  N    0.490195
    27  O   -0.471986
    28  O   -0.453974
 Sum of Mulliken charges =  -0.00000

 Dipole moment (field-independent basis, Debye):
    X=             -3.2402    Y=              7.1815    Z=             -0.1411  Tot=              7.8799
 Quadrupole moment (field-independent basis, Debye-Ang):
   XX=           -107.7367   YY=           -103.6816   ZZ=           -105.0232
   XY=              3.3994   XZ=            -21.8164   YZ=             -0.8347

 Normal termination of Gaussian 16 at Wed May  5 22:31:00 2021.
