 Gaussian 16, Revision A.03,
 Gaussian 16:  EM64L-G16RevA.03 25-Dec-2016

 -------------
 #p 6-31g* mp2
 -------------

 ------------------------------------------------------
 Input file generated by CHIRIPA (05-May-2021 14:55:23)
 ------------------------------------------------------
 Symbolic Z-matrix:
 Charge =  0 Multiplicity = 1

                         Standard orientation:
 ---------------------------------------------------------------------
 Center     Atomic      Atomic             Coordinates (Angstroms)
 Number     Number       Type             X           Y           Z
 ---------------------------------------------------------------------
      1          6           0       -0.820365    0.657314    1.875527
      2          6           0       -0.543766   -0.400336    1.002951
      3          6           0       -1.510890   -0.844155    0.096174
      4          6           0       -2.749548   -0.204651    0.089034
      5          6           0       -3.055337    0.851662    0.945764
      6          6           0       -2.073059    1.278842    1.844205
      7          1           0       -0.063194    0.995620    2.576695
      8          1           0        0.428220   -0.884897    1.025050
      9          1           0       -1.323411   -1.660703   -0.590499
     10          1           0       -4.033454    1.314951    0.900278
     11          1           0       -2.290663    2.100462    2.520690
     12          7           0       -3.781421   -0.665694   -0.866517
     13          8           0       -4.864919   -0.085619   -0.853005
     14          8           0       -3.487166   -1.598405   -1.610897
     15          6           0        2.762399    0.696515   -0.414081
     16          6           0        3.321414    2.056766   -0.832652
     17          6           0        2.230251    3.110246   -1.025878
     18          1           0        2.047884    0.351318   -1.173852
     19          1           0        2.194325    0.812822    0.519278
     20          1           0        3.889427    1.937676   -1.764207
     21          1           0        4.034825    2.398676   -0.071891
     22          1           0        1.669022    3.258322   -0.097602
     23          1           0        1.522798    2.794703   -1.799535
     24          1           0        2.652000    4.074909   -1.324895
     25          6           0        3.841078   -0.367132   -0.217011
     26          6           0        3.282063   -1.727384    0.201559
     27          6           0        4.373226   -2.780863    0.394786
     28          1           0        4.409152   -0.483439   -1.150370
     29          1           0        4.555593   -0.021936    0.542760
     30          1           0        2.568652   -2.069294   -0.559202
     31          1           0        2.714050   -1.608293    1.133115
     32          1           0        5.080679   -2.465320    1.168443
     33          1           0        4.934454   -2.928939   -0.533490
     34          1           0        3.951477   -3.745527    0.693803
 ---------------------------------------------------------------------

 SCF Done:  E(RHF) =  -669.534576819     A.U. after   15 cycles
 E2 =    -0.2093306572D+01 EUMP2 =    -0.67162788339172D+03

 The electronic state is 1-A.
 Alpha  occ. eigenvalues --  -20.60712 -20.60707 -15.85762 -11.31113 -11.27660
 Alpha  occ. eigenvalues --  -11.27632 -11.27398 -11.26702 -11.26582 -11.22705
 Alpha  occ. eigenvalues --  -11.22266 -11.22235 -11.22178 -11.21864 -11.21589
 Alpha  occ. eigenvalues --   -1.59787  -1.39341  -1.19269  -1.09294  -1.08670
 Alpha  occ. eigenvalues --   -1.04662  -1.04314  -0.96725  -0.95514  -0.87742
 Alpha  occ. eigenvalues --   -0.86079  -0.82348  -0.80423  -0.79155  -0.77366
 Alpha  occ. eigenvalues --   -0.71982  -0.71109  -0.70392  -0.65961  -0.64916
 Alpha  occ. eigenvalues --   -0.64645  -0.62031  -0.61705  -0.60104  -0.58351
 Alpha  occ. eigenvalues --   -0.55997  -0.55184  -0.53448  -0.53212  -0.52939
 Alpha  occ. eigenvalues --   -0.52753  -0.50669  -0.48780  -0.48738  -0.48679
 Alpha  occ. eigenvalues --   -0.47458  -0.46562  -0.46547  -0.44750  -0.44572
 Alpha  occ. eigenvalues --   -0.37231  -0.36231
 Alpha virt. eigenvalues --    0.05104   0.11324   0.16543   0.19873   0.22666
 Alpha virt. eigenvalues --    0.23347   0.25014   0.25528   0.27214   0.28194
 Alpha virt. eigenvalues --    0.29503   0.30284   0.30883   0.31323   0.31929

 Mulliken charges:
               1
     1  C   -0.175001
     2  C   -0.220293
     3  C   -0.176788
     4  C    0.159253
     5  C   -0.171787
     6  C   -0.218136
     7  H    0.224250
     8  H    0.237811
     9  H    0.275213
    10  H    0.275160
    11  H    0.222945
    12  N    0.488011
    13  O   -0.460665
    14  O   -0.460703
    15  C   -0.300258
    16  C   -0.300460
    17  C   -0.475310
    18  H    0.152925
    19  H    0.141545
    20  H    0.154985
    21  H    0.151760
    22  H    0.152057
    23  H    0.159130
    24  H    0.162261
    25  C   -0.297898
    26  C   -0.306285
    27  C   -0.474831
    28  H    0.154324
    29  H    0.151077
    30  H    0.152498
    31  H    0.144040
    32  H    0.157145
    33  H    0.159433
    34  H    0.162592
 Sum of Mulliken charges =  -0.00000

 Dipole moment (field-independent basis, Debye):
    X=              3.8497    Y=              1.6234    Z=              3.2468  Tot=              5.2912
 Quadrupole moment (field-independent basis, Debye-Ang):
   XX=           -112.9674   YY=            -93.8500   ZZ=            -93.2463
   XY=             -7.3971   XZ=            -10.5723   YZ=              1.2210

 Normal termination of Gaussian 16 at Wed May  5 23:56:58 2021.
