 Gaussian 16, Revision A.03,
 Gaussian 16:  EM64L-G16RevA.03 25-Dec-2016

 -------------
 #p 6-31g* mp2
 -------------

 ------------------------------------------------------
 Input file generated by CHIRIPA (05-May-2021 14:53:17)
 ------------------------------------------------------
 Symbolic Z-matrix:
 Charge =  0 Multiplicity = 1

                         Standard orientation:
 ---------------------------------------------------------------------
 Center     Atomic      Atomic             Coordinates (Angstroms)
 Number     Number       Type             X           Y           Z
 ---------------------------------------------------------------------
      1          6           0        3.803389    0.788019   -0.284202
      2          6           0        2.553225    1.664267   -0.198970
      3          6           0        2.871414    3.157614   -0.279367
      4          1           0        4.491440    1.061976    0.527265
      5          1           0        4.328995    1.001730   -1.225192
      6          1           0        2.029392    1.447969    0.740940
      7          1           0        1.867986    1.388061   -1.010619
      8          1           0        3.373575    3.394244   -1.223000
      9          1           0        3.535898    3.454493    0.538511
     10          1           0        1.963462    3.765503   -0.216491
     11          6           0        3.501555   -0.707437   -0.205239
     12          6           0        4.751719   -1.583684   -0.290471
     13          6           0        4.433530   -3.077031   -0.210073
     14          1           0        2.975949   -0.921147    0.735751
     15          1           0        2.813504   -0.981393   -1.016706
     16          1           0        5.436958   -1.307478    0.521178
     17          1           0        5.275552   -1.367386   -1.230381
     18          1           0        3.769046   -3.373910   -1.027952
     19          1           0        3.931369   -3.313661    0.733559
     20          1           0        5.341482   -3.684920   -0.272949
     21          6           0       -4.722108   -0.726980   -1.354930
     22          6           0       -3.835542    0.284431   -1.739076
     23          6           0       -2.796523    0.677909   -0.890452
     24          6           0       -2.672843    0.035761    0.340661
     25          6           0       -3.540098   -0.975216    0.751860
     26          6           0       -4.571821   -1.352473   -0.112878
     27          1           0       -5.526409   -1.026343   -2.020420
     28          1           0       -3.949847    0.771950   -2.703080
     29          1           0       -2.096009    1.458014   -1.162727
     30          1           0       -3.400762   -1.442727    1.719040
     31          1           0       -5.258855   -2.138253    0.188087
     32          7           0       -1.576742    0.443733    1.247591
     33          8           0       -1.489217   -0.137596    2.326957
     34          8           0       -0.825898    1.337105    0.861902
 ---------------------------------------------------------------------

 SCF Done:  E(RHF) =  -669.535918747     A.U. after   15 cycles
 E2 =    -0.2091236706D+01 EUMP2 =    -0.67162715545282D+03

 The electronic state is 1-A.
 Alpha  occ. eigenvalues --  -20.60934 -20.60906 -15.85949 -11.31279 -11.27843
 Alpha  occ. eigenvalues --  -11.27839 -11.27582 -11.26852 -11.26843 -11.20960
 Alpha  occ. eigenvalues --  -11.20556 -11.20548 -11.20385 -11.20168 -11.19971
 Alpha  occ. eigenvalues --   -1.59983  -1.39538  -1.19448  -1.08852  -1.07507
 Alpha  occ. eigenvalues --   -1.04845  -1.02598  -0.95694  -0.95106  -0.86246
 Alpha  occ. eigenvalues --   -0.86131  -0.82529  -0.78678  -0.77591  -0.77245
 Alpha  occ. eigenvalues --   -0.72170  -0.71293  -0.70557  -0.65104  -0.64850
 Alpha  occ. eigenvalues --   -0.64147  -0.62193  -0.60003  -0.58479  -0.56674
 Alpha  occ. eigenvalues --   -0.55350  -0.54420  -0.53177  -0.52938  -0.51811
 Alpha  occ. eigenvalues --   -0.51524  -0.49119  -0.48933  -0.48925  -0.46996
 Alpha  occ. eigenvalues --   -0.45707  -0.45125  -0.44758  -0.44517  -0.42862
 Alpha  occ. eigenvalues --   -0.37426  -0.36447
 Alpha virt. eigenvalues --    0.04940   0.11207   0.16427   0.21302   0.23706
 Alpha virt. eigenvalues --    0.25120   0.27123   0.27573   0.27969   0.28703
 Alpha virt. eigenvalues --    0.28835   0.30847   0.31969   0.32413   0.32788

 Mulliken charges:
               1
     1  C   -0.298505
     2  C   -0.300403
     3  C   -0.476084
     4  H    0.147667
     5  H    0.143633
     6  H    0.176395
     7  H    0.144919
     8  H    0.147492
     9  H    0.152633
    10  H    0.162428
    11  C   -0.297884
    12  C   -0.298763
    13  C   -0.475223
    14  H    0.154904
    15  H    0.145373
    16  H    0.151599
    17  H    0.149418
    18  H    0.152677
    19  H    0.156140
    20  H    0.157866
    21  C   -0.170624
    22  C   -0.218563
    23  C   -0.170924
    24  C    0.158171
    25  C   -0.170659
    26  C   -0.218566
    27  H    0.225935
    28  H    0.223769
    29  H    0.275827
    30  H    0.275795
    31  H    0.223767
    32  N    0.489758
    33  O   -0.460039
    34  O   -0.459928
 Sum of Mulliken charges =  -0.00000

 Dipole moment (field-independent basis, Debye):
    X=             -4.1476    Y=             -1.4207    Z=             -3.0336  Tot=              5.3313
 Quadrupole moment (field-independent basis, Debye-Ang):
   XX=            -75.3112   YY=            -94.7251   ZZ=            -94.1029
   XY=              4.9438   XZ=              6.9046   YZ=             -3.0152

 Normal termination of Gaussian 16 at Thu May  6 02:49:30 2021.
