 Gaussian 16, Revision A.03,
 Gaussian 16:  EM64L-G16RevA.03 25-Dec-2016

 -------------
 #p 6-31g* mp2
 -------------

 ------------------------------------------------------
 Input file generated by CHIRIPA (05-May-2021 14:53:16)
 ------------------------------------------------------
 Symbolic Z-matrix:
 Charge =  0 Multiplicity = 1

                         Standard orientation:
 ---------------------------------------------------------------------
 Center     Atomic      Atomic             Coordinates (Angstroms)
 Number     Number       Type             X           Y           Z
 ---------------------------------------------------------------------
      1          6           0        3.853921   -0.724676    0.100036
      2          6           0        2.509925   -0.868432   -0.614802
      3          6           0        1.796565   -2.177375   -0.274832
      4          1           0        4.496887   -1.574459   -0.167188
      5          1           0        3.692319   -0.784121    1.185276
      6          1           0        2.673841   -0.807348   -1.698323
      7          1           0        1.870153   -0.018108   -0.345996
      8          1           0        1.604095   -2.243074    0.800919
      9          1           0        2.412349   -3.036798   -0.559092
     10          1           0        0.837991   -2.259439   -0.796619
     11          6           0        4.579112    0.578815   -0.229721
     12          6           0        5.923108    0.722571    0.485117
     13          6           0        6.636468    2.031514    0.145147
     14          1           0        4.740714    0.638260   -1.314961
     15          1           0        3.936146    1.428598    0.037503
     16          1           0        6.562880   -0.127753    0.216311
     17          1           0        5.759192    0.661487    1.568638
     18          1           0        6.020684    2.890937    0.429407
     19          1           0        6.828938    2.097213   -0.930604
     20          1           0        7.595042    2.113578    0.666934
     21          6           0       -4.577440    2.219084   -0.160036
     22          6           0       -4.361425    1.653297    1.100815
     23          6           0       -3.651763    0.455643    1.229471
     24          6           0       -3.170090   -0.152047    0.071027
     25          6           0       -3.368951    0.386837   -1.199149
     26          6           0       -4.081388    1.585166   -1.303977
     27          1           0       -5.129801    3.149713   -0.250723
     28          1           0       -4.745505    2.143396    1.990945
     29          1           0       -3.470094   -0.004273    2.193262
     30          1           0       -2.973844   -0.125008   -2.068242
     31          1           0       -4.247635    2.022268   -2.284460
     32          7           0       -2.417334   -1.420307    0.194617
     33          8           0       -2.003311   -1.936021   -0.841366
     34          8           0       -2.255599   -1.874641    1.325130
 ---------------------------------------------------------------------

 SCF Done:  E(RHF) =  -669.536288526     A.U. after   15 cycles
 E2 =    -0.2090987305D+01 EUMP2 =    -0.67162727583050D+03

 The electronic state is 1-A.
 Alpha  occ. eigenvalues --  -20.60949 -20.60944 -15.85973 -11.31294 -11.27856
 Alpha  occ. eigenvalues --  -11.27852 -11.27593 -11.26863 -11.26853 -11.21214
 Alpha  occ. eigenvalues --  -11.20892 -11.20785 -11.20720 -11.20657 -11.19587
 Alpha  occ. eigenvalues --   -1.59999  -1.39558  -1.19461  -1.08865  -1.07807
 Alpha  occ. eigenvalues --   -1.04857  -1.02812  -0.95709  -0.95224  -0.86260
 Alpha  occ. eigenvalues --   -0.86231  -0.82542  -0.78906  -0.77601  -0.77595
 Alpha  occ. eigenvalues --   -0.72195  -0.71313  -0.70570  -0.65117  -0.64860
 Alpha  occ. eigenvalues --   -0.64451  -0.62204  -0.60224  -0.58641  -0.56824
 Alpha  occ. eigenvalues --   -0.55361  -0.54531  -0.53190  -0.52949  -0.51867
 Alpha  occ. eigenvalues --   -0.51655  -0.49203  -0.48951  -0.48919  -0.47199
 Alpha  occ. eigenvalues --   -0.45976  -0.45146  -0.45067  -0.44946  -0.43007
 Alpha  occ. eigenvalues --   -0.37438  -0.36458
 Alpha virt. eigenvalues --    0.04902   0.11197   0.16383   0.21331   0.23427
 Alpha virt. eigenvalues --    0.25104   0.27213   0.27252   0.28048   0.28193
 Alpha virt. eigenvalues --    0.28889   0.30893   0.32080   0.32335   0.32390

 Mulliken charges:
               1
     1  C   -0.297244
     2  C   -0.298656
     3  C   -0.485762
     4  H    0.148856
     5  H    0.149049
     6  H    0.148117
     7  H    0.146340
     8  H    0.156896
     9  H    0.149280
    10  H    0.183992
    11  C   -0.297302
    12  C   -0.299108
    13  C   -0.475231
    14  H    0.148034
    15  H    0.147222
    16  H    0.151808
    17  H    0.151485
    18  H    0.153779
    19  H    0.154423
    20  H    0.159107
    21  C   -0.170579
    22  C   -0.218594
    23  C   -0.170826
    24  C    0.158422
    25  C   -0.170666
    26  C   -0.218542
    27  H    0.226011
    28  H    0.223805
    29  H    0.275816
    30  H    0.275829
    31  H    0.223886
    32  N    0.488850
    33  O   -0.460066
    34  O   -0.458429
 Sum of Mulliken charges =  -0.00000

 Dipole moment (field-independent basis, Debye):
    X=             -2.9519    Y=              4.3933    Z=             -0.4248  Tot=              5.3099
 Quadrupole moment (field-independent basis, Debye-Ang):
   XX=            -79.6504   YY=            -97.3381   ZZ=            -89.2697
   XY=            -15.0228   XZ=              0.2879   YZ=              1.0372

 Normal termination of Gaussian 16 at Wed May  5 17:11:11 2021.
