 Gaussian 16, Revision A.03,
 Gaussian 16:  EM64L-G16RevA.03 25-Dec-2016

 -------------
 #p 6-31g* mp2
 -------------

 ------------------------------------------------------
 Input file generated by CHIRIPA (05-May-2021 14:57:25)
 ------------------------------------------------------
 Symbolic Z-matrix:
 Charge =  0 Multiplicity = 1

                         Standard orientation:
 ---------------------------------------------------------------------
 Center     Atomic      Atomic             Coordinates (Angstroms)
 Number     Number       Type             X           Y           Z
 ---------------------------------------------------------------------
      1          6           0        2.823730    2.597797    0.579281
      2          6           0        2.252919    1.556083    1.317880
      3          6           0        2.537384    0.223888    1.003423
      4          6           0        3.400817   -0.031574   -0.060772
      5          6           0        3.985197    0.984413   -0.815466
      6          6           0        3.686526    2.309146   -0.483161
      7          1           0        2.597233    3.629780    0.830491
      8          1           0        1.582508    1.777282    2.143511
      9          1           0        2.109304   -0.601894    1.558625
     10          1           0        4.649784    0.732599   -1.632981
     11          1           0        4.131274    3.116129   -1.058507
     12          7           0        3.709487   -1.437959   -0.403121
     13          8           0        4.473307   -1.636587   -1.345333
     14          8           0        3.181759   -2.315027    0.277240
     15          6           0       -5.338908    1.205416   -0.654550
     16          6           0       -5.479397   -0.177736   -0.500688
     17          6           0       -4.384202   -0.966418   -0.135888
     18          6           0       -3.157659   -0.336107    0.068049
     19          6           0       -2.985873    1.039617   -0.077430
     20          6           0       -4.094789    1.808615   -0.442804
     21          1           0       -6.195012    1.810437   -0.938158
     22          1           0       -6.444395   -0.648901   -0.664483
     23          1           0       -4.464892   -2.039277   -0.009877
     24          1           0       -2.011242    1.480714    0.092700
     25          1           0       -3.982741    2.882572   -0.561571
     26          7           0       -1.990963   -1.160629    0.454549
     27          8           0       -0.921077   -0.581192    0.628434
     28          8           0       -2.168483   -2.370713    0.576285
 ---------------------------------------------------------------------

 SCF Done:  E(RHF) =  -868.338013997     A.U. after   16 cycles
 E2 =    -0.2599576236D+01 EUMP2 =    -0.87093759023309D+03

 The electronic state is 1-A.
 Alpha  occ. eigenvalues --  -20.61082 -20.61030 -20.59775 -20.59719 -15.86109
 Alpha  occ. eigenvalues --  -15.84804 -11.31459 -11.30180 -11.28057 -11.27997
 Alpha  occ. eigenvalues --  -11.27760 -11.27057 -11.27010 -11.26888 -11.26686
 Alpha  occ. eigenvalues --  -11.26662 -11.25932 -11.25797  -1.60119  -1.58825
 Alpha  occ. eigenvalues --   -1.39679  -1.38374  -1.19628  -1.18408  -1.09023
 Alpha  occ. eigenvalues --   -1.07830  -1.05032  -1.03805  -0.95863  -0.94640
 Alpha  occ. eigenvalues --   -0.86430  -0.85223  -0.82703  -0.81462  -0.77750
 Alpha  occ. eigenvalues --   -0.76473  -0.72342  -0.71438  -0.71029  -0.70736
 Alpha  occ. eigenvalues --   -0.70145  -0.69557  -0.65286  -0.65036  -0.64072
 Alpha  occ. eigenvalues --   -0.63842  -0.62383  -0.61131  -0.55528  -0.54404
 Alpha  occ. eigenvalues --   -0.53358  -0.53126  -0.52153  -0.51915  -0.49086
 Alpha  occ. eigenvalues --   -0.49056  -0.47805  -0.47762  -0.45090  -0.43774
 Alpha  occ. eigenvalues --   -0.37603  -0.36635  -0.36464  -0.35375
 Alpha virt. eigenvalues --    0.04788   0.06053   0.11021   0.12239   0.16284
 Alpha virt. eigenvalues --    0.17474   0.21122   0.22241   0.27006   0.27763
 Alpha virt. eigenvalues --    0.28411   0.29180   0.30705   0.31693   0.32337

 Mulliken charges:
               1
     1  C   -0.173366
     2  C   -0.220517
     3  C   -0.155593
     4  C    0.154353
     5  C   -0.171894
     6  C   -0.220333
     7  H    0.219150
     8  H    0.221391
     9  H    0.287347
    10  H    0.272507
    11  H    0.218363
    12  N    0.487979
    13  O   -0.466500
    14  O   -0.453922
    15  C   -0.170586
    16  C   -0.218404
    17  C   -0.170283
    18  C    0.158643
    19  C   -0.171143
    20  C   -0.218298
    21  H    0.226240
    22  H    0.224758
    23  H    0.277395
    24  H    0.272242
    25  H    0.222393
    26  N    0.491104
    27  O   -0.469256
    28  O   -0.453769
 Sum of Mulliken charges =  -0.00000

 Dipole moment (field-independent basis, Debye):
    X=             -5.5448    Y=              7.5281    Z=             -0.0453  Tot=              9.3498
 Quadrupole moment (field-independent basis, Debye-Ang):
   XX=            -84.4018   YY=           -104.3873   ZZ=           -103.6969
   XY=             12.3943   XZ=              6.3333   YZ=             -1.0875

 Normal termination of Gaussian 16 at Thu May  6 00:20:12 2021.
