 Gaussian 16, Revision A.03,
 Gaussian 16:  EM64L-G16RevA.03 25-Dec-2016

 -------------
 #p 6-31g* mp2
 -------------

 ------------------------------------------------------
 Input file generated by CHIRIPA (05-May-2021 14:55:22)
 ------------------------------------------------------
 Symbolic Z-matrix:
 Charge =  0 Multiplicity = 1

                         Standard orientation:
 ---------------------------------------------------------------------
 Center     Atomic      Atomic             Coordinates (Angstroms)
 Number     Number       Type             X           Y           Z
 ---------------------------------------------------------------------
      1          6           0        0.785930   -1.854589    0.341974
      2          6           0        1.725272   -1.652741    1.358544
      3          6           0        2.785094   -0.758883    1.178698
      4          6           0        2.875532   -0.080571   -0.035800
      5          6           0        1.955530   -0.260096   -1.067622
      6          6           0        0.903848   -1.158849   -0.865735
      7          1           0       -0.034203   -2.550860    0.490244
      8          1           0        1.636197   -2.191687    2.297505
      9          1           0        3.526321   -0.583578    1.948936
     10          1           0        2.070684    0.291644   -1.992684
     11          1           0        0.175812   -1.313610   -1.656972
     12          7           0        3.993208    0.868307   -0.237862
     13          8           0        4.050630    1.453665   -1.317073
     14          8           0        4.790658    1.008713    0.686799
     15          6           0       -3.809598   -0.361115   -0.091503
     16          6           0       -2.866296   -1.557534   -0.220926
     17          6           0       -3.610790   -2.879590   -0.409843
     18          1           0       -4.487094   -0.526597    0.757355
     19          1           0       -4.441238   -0.302337   -0.988705
     20          1           0       -2.235671   -1.613219    0.675638
     21          1           0       -2.190842   -1.389098   -1.069458
     22          1           0       -4.226936   -2.848909   -1.314288
     23          1           0       -4.272021   -3.074304    0.440723
     24          1           0       -2.917326   -3.721500   -0.500154
     25          6           0       -3.080194    0.967728    0.097897
     26          6           0       -4.023496    2.164146    0.227319
     27          6           0       -3.279002    3.486202    0.416236
     28          1           0       -2.448554    0.908949    0.995099
     29          1           0       -2.402699    1.133209   -0.750961
     30          1           0       -4.698952    1.995710    1.075852
     31          1           0       -4.654121    2.219832   -0.669244
     32          1           0       -2.617771    3.680916   -0.434329
     33          1           0       -2.662856    3.455521    1.320682
     34          1           0       -3.972466    4.328112    0.506547
 ---------------------------------------------------------------------

 SCF Done:  E(RHF) =  -669.534328783     A.U. after   15 cycles
 E2 =    -0.2092788832D+01 EUMP2 =    -0.67162711761536D+03

 The electronic state is 1-A.
 Alpha  occ. eigenvalues --  -20.60716 -20.60711 -15.85770 -11.31118 -11.27698
 Alpha  occ. eigenvalues --  -11.27688 -11.27378 -11.26697 -11.26669 -11.22766
 Alpha  occ. eigenvalues --  -11.22194 -11.22145 -11.22049 -11.21961 -11.21366
 Alpha  occ. eigenvalues --   -1.59793  -1.39347  -1.19293  -1.09198  -1.08680
 Alpha  occ. eigenvalues --   -1.04700  -1.04285  -0.96694  -0.95525  -0.87710
 Alpha  occ. eigenvalues --   -0.86100  -0.82368  -0.80428  -0.78960  -0.77408
 Alpha  occ. eigenvalues --   -0.71988  -0.71116  -0.70405  -0.65841  -0.64943
 Alpha  occ. eigenvalues --   -0.64716  -0.62093  -0.61653  -0.60116  -0.58315
 Alpha  occ. eigenvalues --   -0.55964  -0.55178  -0.53429  -0.53136  -0.52995
 Alpha  occ. eigenvalues --   -0.52800  -0.50623  -0.48765  -0.48748  -0.48655
 Alpha  occ. eigenvalues --   -0.47420  -0.46481  -0.46374  -0.44756  -0.44515
 Alpha  occ. eigenvalues --   -0.37224  -0.36296
 Alpha virt. eigenvalues --    0.05103   0.11289   0.16503   0.19760   0.22553
 Alpha virt. eigenvalues --    0.23814   0.24591   0.26101   0.26688   0.28129
 Alpha virt. eigenvalues --    0.29327   0.29685   0.30887   0.31693   0.31797

 Mulliken charges:
               1
     1  C   -0.170461
     2  C   -0.220398
     3  C   -0.170770
     4  C    0.158406
     5  C   -0.171674
     6  C   -0.219173
     7  H    0.230039
     8  H    0.222871
     9  H    0.275237
    10  H    0.275142
    11  H    0.224575
    12  N    0.488086
    13  O   -0.460711
    14  O   -0.460703
    15  C   -0.298093
    16  C   -0.305521
    17  C   -0.477006
    18  H    0.152213
    19  H    0.151783
    20  H    0.149128
    21  H    0.146667
    22  H    0.159967
    23  H    0.159566
    24  H    0.155547
    25  C   -0.298484
    26  C   -0.300469
    27  C   -0.476121
    28  H    0.151539
    29  H    0.148675
    30  H    0.152510
    31  H    0.152466
    32  H    0.156679
    33  H    0.156583
    34  H    0.161906
 Sum of Mulliken charges =  -0.00000

 Dipole moment (field-independent basis, Debye):
    X=             -4.1275    Y=             -3.2590    Z=              0.7435  Tot=              5.3113
 Quadrupole moment (field-independent basis, Debye-Ang):
   XX=           -117.2027   YY=            -95.6912   ZZ=            -89.7113
   XY=            -10.2233   XZ=              3.8804   YZ=             -1.3312

 Normal termination of Gaussian 16 at Thu May  6 07:49:24 2021.
