 Gaussian 16, Revision A.03,
 Gaussian 16:  EM64L-G16RevA.03 25-Dec-2016

 -------------
 #p 6-31g* mp2
 -------------

 ------------------------------------------------------
 Input file generated by CHIRIPA (05-May-2021 14:51:14)
 ------------------------------------------------------
 Symbolic Z-matrix:
 Charge =  0 Multiplicity = 1

                         Standard orientation:
 ---------------------------------------------------------------------
 Center     Atomic      Atomic             Coordinates (Angstroms)
 Number     Number       Type             X           Y           Z
 ---------------------------------------------------------------------
      1          6           0        2.621385    1.413621    0.251674
      2          6           0        1.546154    2.435526   -0.119234
      3          6           0        1.701843    3.757140    0.633687
      4          1           0        2.583609    1.227465    1.333738
      5          1           0        3.611659    1.841403    0.042492
      6          1           0        0.558155    2.005420    0.089290
      7          1           0        1.586369    2.619126   -1.200571
      8          1           0        2.674131    4.211522    0.417367
      9          1           0        1.640074    3.594330    1.714557
     10          1           0        0.922898    4.473052    0.353376
     11          6           0        2.479120    0.087258   -0.492806
     12          6           0        3.554352   -0.934647   -0.121899
     13          6           0        3.398663   -2.256262   -0.874820
     14          1           0        1.488847   -0.340524   -0.283625
     15          1           0        2.516897    0.273413   -1.574871
     16          1           0        3.514137   -1.118248    0.959438
     17          1           0        4.542351   -0.504542   -0.330422
     18          1           0        3.460432   -2.093451   -1.955689
     19          1           0        2.426375   -2.710644   -0.658500
     20          1           0        4.177608   -2.972174   -0.594508
     21          6           0       -2.212103   -1.419590   -0.025462
     22          6           0       -1.136427   -1.791030    0.995781
     23          6           0       -0.469070   -3.132296    0.690114
     24          1           0       -2.972871   -2.211729   -0.051755
     25          1           0       -1.761090   -1.386002   -1.026889
     26          1           0       -1.589040   -1.822552    1.995164
     27          1           0       -0.378231   -0.997822    1.019786
     28          1           0        0.008325   -3.109447   -0.294859
     29          1           0       -1.209364   -3.938863    0.686061
     30          1           0        0.296530   -3.378220    1.432569
     31          6           0       -2.888403   -0.081289    0.266596
     32          6           0       -3.964079    0.290151   -0.754649
     33          6           0       -4.631436    1.631417   -0.448982
     34          1           0       -3.339416   -0.114876    1.268022
     35          1           0       -2.127634    0.710851    0.292889
     36          1           0       -4.722276   -0.503056   -0.778653
     37          1           0       -3.511467    0.321674   -1.754031
     38          1           0       -3.891142    2.437985   -0.444928
     39          1           0       -5.108830    1.608569    0.535993
     40          1           0       -5.397036    1.877342   -1.191436
 ---------------------------------------------------------------------

 SCF Done:  E(RHF) =  -470.732868001     A.U. after   11 cycles
 E2 =    -0.1584459347D+01 EUMP2 =    -0.47231732734798D+03

 The electronic state is 1-A.
 Alpha  occ. eigenvalues --  -11.21674 -11.21661 -11.21627 -11.21590 -11.21457
 Alpha  occ. eigenvalues --  -11.21424 -11.21397 -11.21357 -11.21155 -11.21105
 Alpha  occ. eigenvalues --  -11.21086 -11.21004  -1.08506  -1.08432  -1.03605
 Alpha  occ. eigenvalues --   -1.03524  -0.96044  -0.95980  -0.87085  -0.86973
 Alpha  occ. eigenvalues --   -0.79656  -0.79605  -0.78350  -0.78224  -0.65379
 Alpha  occ. eigenvalues --   -0.64861  -0.61185  -0.60758  -0.59399  -0.59350
 Alpha  occ. eigenvalues --   -0.57679  -0.57576  -0.55421  -0.55208  -0.52739
 Alpha  occ. eigenvalues --   -0.52677  -0.52480  -0.52402  -0.50205  -0.49698
 Alpha  occ. eigenvalues --   -0.48056  -0.47857  -0.46696  -0.46618  -0.46157
 Alpha  occ. eigenvalues --   -0.45791  -0.45761  -0.45312  -0.43835  -0.43795
 Alpha virt. eigenvalues --    0.19169   0.22180   0.23513   0.24780   0.25757
 Alpha virt. eigenvalues --    0.26428   0.26934   0.27515   0.28370   0.29849
 Alpha virt. eigenvalues --    0.31092   0.31349   0.31631   0.31809   0.32166

 Mulliken charges:
               1
     1  C   -0.297947
     2  C   -0.303107
     3  C   -0.475590
     4  H    0.149719
     5  H    0.149988
     6  H    0.153353
     7  H    0.152152
     8  H    0.155476
     9  H    0.155518
    10  H    0.160255
    11  C   -0.306664
    12  C   -0.298585
    13  C   -0.482479
    14  H    0.157088
    15  H    0.149510
    16  H    0.151679
    17  H    0.151898
    18  H    0.154426
    19  H    0.162524
    20  H    0.160129
    21  C   -0.298800
    22  C   -0.305475
    23  C   -0.480138
    24  H    0.150152
    25  H    0.150467
    26  H    0.152853
    27  H    0.155708
    28  H    0.158721
    29  H    0.156292
    30  H    0.160761
    31  C   -0.301479
    32  C   -0.299622
    33  C   -0.475814
    34  H    0.149708
    35  H    0.152000
    36  H    0.152060
    37  H    0.152342
    38  H    0.155367
    39  H    0.155165
    40  H    0.160386
 Sum of Mulliken charges =  -0.00000

 Dipole moment (field-independent basis, Debye):
    X=             -0.0308    Y=             -0.0178    Z=              0.0045  Tot=              0.0358
 Quadrupole moment (field-independent basis, Debye-Ang):
   XX=            -84.2880   YY=            -86.2609   ZZ=            -84.1270
   XY=              1.1859   XZ=             -0.7456   YZ=             -1.1102

 Normal termination of Gaussian 16 at Wed May  5 15:23:58 2021.
