 Gaussian 16, Revision A.03,
 Gaussian 16:  EM64L-G16RevA.03 25-Dec-2016

 -------------
 #p 6-31g* mp2
 -------------

 ------------------------------------------------------
 Input file generated by CHIRIPA (05-May-2021 14:51:14)
 ------------------------------------------------------
 Symbolic Z-matrix:
 Charge =  0 Multiplicity = 1

                         Standard orientation:
 ---------------------------------------------------------------------
 Center     Atomic      Atomic             Coordinates (Angstroms)
 Number     Number       Type             X           Y           Z
 ---------------------------------------------------------------------
      1          6           0       -3.553650    0.783205    0.212042
      2          6           0       -4.782490    1.621101   -0.142734
      3          6           0       -4.734547    3.025422    0.460073
      4          1           0       -3.469487    0.711899    1.305100
      5          1           0       -2.650807    1.302747   -0.137739
      6          1           0       -5.682842    1.099470    0.206384
      7          1           0       -4.863846    1.690259   -1.235078
      8          1           0       -3.853590    3.568260    0.102521
      9          1           0       -4.677239    2.974114    1.552173
     10          1           0       -5.622615    3.607099    0.193901
     11          6           0       -3.586960   -0.623263   -0.383331
     12          6           0       -2.358119   -1.461159   -0.028555
     13          6           0       -2.406063   -2.865480   -0.631362
     14          1           0       -4.489802   -1.142805   -0.033550
     15          1           0       -3.671123   -0.551957   -1.476389
     16          1           0       -2.276764   -1.530317    1.063789
     17          1           0       -1.457767   -0.939528   -0.377673
     18          1           0       -2.463370   -2.814172   -1.723463
     19          1           0       -3.287020   -3.408318   -0.273810
     20          1           0       -1.517995   -3.447157   -0.365190
     21          6           0        3.804223    0.526104   -0.316086
     22          6           0        5.075128    1.168729    0.240528
     23          6           0        5.530583    2.379966   -0.573880
     24          1           0        3.979498    0.224411   -1.357817
     25          1           0        3.001912    1.276556   -0.338779
     26          1           0        5.874422    0.416918    0.263458
     27          1           0        4.896867    1.468753    1.281117
     28          1           0        4.752634    3.150182   -0.586681
     29          1           0        5.735743    2.092370   -1.610122
     30          1           0        6.440664    2.823854   -0.158460
     31          6           0        3.336386   -0.686046    0.487375
     32          6           0        2.065482   -1.328671   -0.069239
     33          6           0        1.610027   -2.539908    0.745169
     34          1           0        4.138697   -1.436498    0.510068
     35          1           0        3.161111   -0.384353    1.529107
     36          1           0        2.243742   -1.628696   -1.109828
     37          1           0        1.266188   -0.576861   -0.092169
     38          1           0        1.404866   -2.252312    1.781411
     39          1           0        2.387974   -3.310124    0.757971
     40          1           0        0.699945   -2.983796    0.329749
 ---------------------------------------------------------------------

 SCF Done:  E(RHF) =  -470.733125238     A.U. after   11 cycles
 E2 =    -0.1583046304D+01 EUMP2 =    -0.47231617154204D+03

 The electronic state is 1-A.
 Alpha  occ. eigenvalues --  -11.21613 -11.21603 -11.21595 -11.21593 -11.21417
 Alpha  occ. eigenvalues --  -11.21404 -11.21357 -11.21344 -11.21084 -11.21080
 Alpha  occ. eigenvalues --  -11.21074 -11.21032  -1.08449  -1.08418  -1.03574
 Alpha  occ. eigenvalues --   -1.03491  -0.96038  -0.95930  -0.87045  -0.86956
 Alpha  occ. eigenvalues --   -0.79632  -0.79559  -0.78277  -0.78216  -0.65096
 Alpha  occ. eigenvalues --   -0.65032  -0.60988  -0.60877  -0.59721  -0.59103
 Alpha  occ. eigenvalues --   -0.57822  -0.57315  -0.55279  -0.55249  -0.52939
 Alpha  occ. eigenvalues --   -0.52562  -0.52465  -0.52170  -0.49945  -0.49898
 Alpha  occ. eigenvalues --   -0.48043  -0.47792  -0.46741  -0.46528  -0.45867
 Alpha  occ. eigenvalues --   -0.45763  -0.45751  -0.45580  -0.43899  -0.43663
 Alpha virt. eigenvalues --    0.21019   0.23096   0.23332   0.25125   0.25602
 Alpha virt. eigenvalues --    0.26758   0.26783   0.27219   0.28044   0.29045
 Alpha virt. eigenvalues --    0.29945   0.30598   0.31456   0.31747   0.32364

 Mulliken charges:
               1
     1  C   -0.298208
     2  C   -0.299655
     3  C   -0.475717
     4  H    0.149611
     5  H    0.149100
     6  H    0.152020
     7  H    0.152022
     8  H    0.155102
     9  H    0.155148
    10  H    0.160332
    11  C   -0.298274
    12  C   -0.303228
    13  C   -0.480661
    14  H    0.149628
    15  H    0.149685
    16  H    0.152330
    17  H    0.156147
    18  H    0.155361
    19  H    0.155582
    20  H    0.163823
    21  C   -0.298254
    22  C   -0.299638
    23  C   -0.475706
    24  H    0.149572
    25  H    0.149317
    26  H    0.151965
    27  H    0.152002
    28  H    0.155135
    29  H    0.155144
    30  H    0.160283
    31  C   -0.298365
    32  C   -0.301704
    33  C   -0.482219
    34  H    0.149580
    35  H    0.149769
    36  H    0.151674
    37  H    0.154135
    38  H    0.155260
    39  H    0.154809
    40  H    0.167097
 Sum of Mulliken charges =  -0.00000

 Dipole moment (field-independent basis, Debye):
    X=             -0.0113    Y=             -0.0029    Z=              0.0011  Tot=              0.0117
 Quadrupole moment (field-independent basis, Debye-Ang):
   XX=            -84.4847   YY=            -86.2024   ZZ=            -84.0897
   XY=             -0.4587   XZ=             -0.4946   YZ=              0.1304

 Normal termination of Gaussian 16 at Wed May  5 18:24:30 2021.
