 Gaussian 16, Revision A.03,
 Gaussian 16:  EM64L-G16RevA.03 25-Dec-2016

 -------------
 #p 6-31g* mp2
 -------------

 ------------------------------------------------------
 Input file generated by CHIRIPA (05-May-2021 14:57:24)
 ------------------------------------------------------
 Symbolic Z-matrix:
 Charge =  0 Multiplicity = 1

                         Standard orientation:
 ---------------------------------------------------------------------
 Center     Atomic      Atomic             Coordinates (Angstroms)
 Number     Number       Type             X           Y           Z
 ---------------------------------------------------------------------
      1          6           0        5.448733    0.801927   -0.095950
      2          6           0        4.793027    0.330631   -1.238076
      3          6           0        3.566812   -0.332163   -1.130140
      4          6           0        3.022562   -0.507163    0.141260
      5          6           0        3.651502   -0.049144    1.297955
      6          6           0        4.876886    0.610873    1.166195
      7          1           0        6.400963    1.315723   -0.189051
      8          1           0        5.234773    0.477586   -2.219559
      9          1           0        3.037695   -0.707213   -1.997775
     10          1           0        3.186301   -0.210599    2.262806
     11          1           0        5.383863    0.975820    2.054920
     12          7           0        1.724863   -1.207363    0.268138
     13          8           0        1.266356   -1.348906    1.399674
     14          8           0        1.190807   -1.601378   -0.766354
     15          6           0       -5.022787   -1.366972    0.165553
     16          6           0       -5.231797   -0.071657    0.650317
     17          6           0       -4.248989    0.910831    0.497492
     18          6           0       -3.063741    0.561789   -0.147988
     19          6           0       -2.825801   -0.719917   -0.641855
     20          6           0       -3.822572   -1.686405   -0.477851
     21          1           0       -5.791679   -2.123978    0.288613
     22          1           0       -6.162922    0.179265    1.150404
     23          1           0       -4.384593    1.921427    0.863176
     24          1           0       -1.887322   -0.940049   -1.136037
     25          1           0       -3.657506   -2.691545   -0.855332
     26          7           0       -2.015896    1.593436   -0.315694
     27          8           0       -0.980375    1.260602   -0.888019
     28          8           0       -2.249957    2.715341    0.128357
 ---------------------------------------------------------------------

 SCF Done:  E(RHF) =  -868.340120427     A.U. after   16 cycles
 E2 =    -0.2599064744D+01 EUMP2 =    -0.87093918517041D+03

 The electronic state is 1-A.
 Alpha  occ. eigenvalues --  -20.60460 -20.60429 -20.59938 -20.59928 -15.85474
 Alpha  occ. eigenvalues --  -15.84985 -11.30680 -11.30166 -11.27256 -11.27235
 Alpha  occ. eigenvalues --  -11.27004 -11.26839 -11.26587 -11.26562 -11.26262
 Alpha  occ. eigenvalues --  -11.26245 -11.25834 -11.25689  -1.59480  -1.59014
 Alpha  occ. eigenvalues --   -1.39047  -1.38567  -1.18845  -1.18360  -1.08278
 Alpha  occ. eigenvalues --   -1.07811  -1.04243  -1.03733  -0.95143  -0.94659
 Alpha  occ. eigenvalues --   -0.85652  -0.85150  -0.81994  -0.81495  -0.77043
 Alpha  occ. eigenvalues --   -0.76535  -0.71734  -0.71254  -0.70720  -0.70303
 Alpha  occ. eigenvalues --   -0.69989  -0.69489  -0.64524  -0.64272  -0.64026
 Alpha  occ. eigenvalues --   -0.63756  -0.61603  -0.61058  -0.54782  -0.54303
 Alpha  occ. eigenvalues --   -0.52557  -0.52355  -0.52089  -0.51829  -0.48483
 Alpha  occ. eigenvalues --   -0.48463  -0.47981  -0.47946  -0.44487  -0.44007
 Alpha  occ. eigenvalues --   -0.36816  -0.36380  -0.35829  -0.35323
 Alpha virt. eigenvalues --    0.05501   0.05975   0.11829   0.12324   0.16990
 Alpha virt. eigenvalues --    0.17467   0.21872   0.22426   0.27791   0.28322
 Alpha virt. eigenvalues --    0.28747   0.29391   0.31404   0.31919   0.32973

 Mulliken charges:
               1
     1  C   -0.170142
     2  C   -0.218451
     3  C   -0.166423
     4  C    0.162669
     5  C   -0.169303
     6  C   -0.218452
     7  H    0.224241
     8  H    0.222296
     9  H    0.275142
    10  H    0.274326
    11  H    0.222037
    12  N    0.493781
    13  O   -0.463161
    14  O   -0.465574
    15  C   -0.170494
    16  C   -0.219845
    17  C   -0.171387
    18  C    0.155728
    19  C   -0.169020
    20  C   -0.220201
    21  H    0.222253
    22  H    0.219316
    23  H    0.271799
    24  H    0.292751
    25  H    0.224160
    26  N    0.488471
    27  O   -0.460476
    28  O   -0.466041
 Sum of Mulliken charges =  -0.00000

 Dipole moment (field-independent basis, Debye):
    X=              1.1127    Y=             -1.2650    Z=              0.0623  Tot=              1.6859
 Quadrupole moment (field-independent basis, Debye-Ang):
   XX=            -55.2662   YY=           -110.7123   ZZ=            -99.8110
   XY=             12.8321   XZ=             -3.3150   YZ=              3.9800

 Normal termination of Gaussian 16 at Fri May  7 09:34:41 2021.
