 Gaussian 16, Revision A.03,
 Gaussian 16:  EM64L-G16RevA.03 25-Dec-2016

 -------------
 #p 6-31g* mp2
 -------------

 ------------------------------------------------------
 Input file generated by CHIRIPA (05-May-2021 14:55:23)
 ------------------------------------------------------
 Symbolic Z-matrix:
 Charge =  0 Multiplicity = 1

                         Standard orientation:
 ---------------------------------------------------------------------
 Center     Atomic      Atomic             Coordinates (Angstroms)
 Number     Number       Type             X           Y           Z
 ---------------------------------------------------------------------
      1          6           0        3.203827    0.540308   -2.002640
      2          6           0        3.682293   -0.558520   -1.281414
      3          6           0        3.110436   -0.905567   -0.053780
      4          6           0        2.056900   -0.128352    0.425063
      5          6           0        1.557968    0.972198   -0.270025
      6          6           0        2.145059    1.300820   -1.495538
      7          1           0        3.653977    0.802746   -2.955471
      8          1           0        4.504423   -1.150947   -1.672795
      9          1           0        3.461238   -1.751161    0.525294
     10          1           0        0.737121    1.543755    0.145847
     11          1           0        1.771420    2.154717   -2.053479
     12          7           0        1.443437   -0.486002    1.723581
     13          8           0        0.516375    0.214768    2.123724
     14          8           0        1.901283   -1.460327    2.316630
     15          6           0       -2.566548    0.796576   -0.480491
     16          6           0       -2.629459    1.808555    0.664029
     17          6           0       -2.235175    3.219882    0.227575
     18          1           0       -1.548841    0.783138   -0.894057
     19          1           0       -3.229153    1.129113   -1.291520
     20          1           0       -1.967990    1.473495    1.473231
     21          1           0       -3.647085    1.819447    1.075045
     22          1           0       -2.901240    3.578576   -0.563813
     23          1           0       -1.212604    3.230658   -0.163365
     24          1           0       -2.287146    3.927138    1.061211
     25          6           0       -2.957948   -0.618894   -0.059802
     26          6           0       -2.895036   -1.630873   -1.204320
     27          6           0       -3.289321   -3.042200   -0.767867
     28          1           0       -2.295344   -0.951431    0.751229
     29          1           0       -3.975655   -0.605456    0.353766
     30          1           0       -1.877411   -1.641765   -1.615336
     31          1           0       -3.556507   -1.295812   -2.013522
     32          1           0       -4.311892   -3.052976   -0.376927
     33          1           0       -2.623255   -3.400894    0.023521
     34          1           0       -3.237350   -3.749455   -1.601503
 ---------------------------------------------------------------------

 SCF Done:  E(RHF) =  -669.535984623     A.U. after   15 cycles
 E2 =    -0.2093514499D+01 EUMP2 =    -0.67162949912235D+03

 The electronic state is 1-A.
 Alpha  occ. eigenvalues --  -20.61010 -20.61002 -15.86036 -11.31316 -11.27878
 Alpha  occ. eigenvalues --  -11.27856 -11.27603 -11.26878 -11.26866 -11.21293
 Alpha  occ. eigenvalues --  -11.21144 -11.21117 -11.21049 -11.20882 -11.20735
 Alpha  occ. eigenvalues --   -1.60065  -1.39622  -1.19485  -1.08893  -1.08081
 Alpha  occ. eigenvalues --   -1.04876  -1.03243  -0.95743  -0.95727  -0.86742
 Alpha  occ. eigenvalues --   -0.86276  -0.82583  -0.79277  -0.77880  -0.77645
 Alpha  occ. eigenvalues --   -0.72270  -0.71377  -0.70599  -0.65150  -0.65001
 Alpha  occ. eigenvalues --   -0.64599  -0.62244  -0.60591  -0.59081  -0.57322
 Alpha  occ. eigenvalues --   -0.55378  -0.55052  -0.53209  -0.52957  -0.52418
 Alpha  occ. eigenvalues --   -0.52153  -0.49697  -0.49022  -0.49007  -0.47604
 Alpha  occ. eigenvalues --   -0.46269  -0.45491  -0.45400  -0.44866  -0.43470
 Alpha  occ. eigenvalues --   -0.37456  -0.36453
 Alpha virt. eigenvalues --    0.04838   0.11120   0.16329   0.19695   0.23160
 Alpha virt. eigenvalues --    0.24033   0.26236   0.27411   0.27917   0.28182
 Alpha virt. eigenvalues --    0.29360   0.30834   0.31537   0.31950   0.32305

 Mulliken charges:
               1
     1  C   -0.170201
     2  C   -0.218711
     3  C   -0.170167
     4  C    0.156929
     5  C   -0.176017
     6  C   -0.221703
     7  H    0.226339
     8  H    0.224041
     9  H    0.275844
    10  H    0.286643
    11  H    0.224738
    12  N    0.491569
    13  O   -0.465204
    14  O   -0.458455
    15  C   -0.297017
    16  C   -0.314572
    17  C   -0.473748
    18  H    0.139941
    19  H    0.146042
    20  H    0.180693
    21  H    0.152118
    22  H    0.154211
    23  H    0.138805
    24  H    0.163890
    25  C   -0.302670
    26  C   -0.299226
    27  C   -0.476009
    28  H    0.162913
    29  H    0.149319
    30  H    0.148772
    31  H    0.149166
    32  H    0.155241
    33  H    0.158808
    34  H    0.157679
 Sum of Mulliken charges =  -0.00000

 Dipole moment (field-independent basis, Debye):
    X=              2.2541    Y=              1.1615    Z=             -4.3479  Tot=              5.0334
 Quadrupole moment (field-independent basis, Debye-Ang):
   XX=            -83.2487   YY=            -93.9215   ZZ=            -99.1771
   XY=             -0.9567   XZ=             -8.7085   YZ=              0.8803

 Normal termination of Gaussian 16 at Wed May  5 20:43:37 2021.
