 Gaussian 16, Revision A.03,
 Gaussian 16:  EM64L-G16RevA.03 25-Dec-2016

 -------------
 #p 6-31g* mp2
 -------------

 ------------------------------------------------------
 Input file generated by CHIRIPA (05-May-2021 14:57:20)
 ------------------------------------------------------
 Symbolic Z-matrix:
 Charge =  0 Multiplicity = 1

                         Standard orientation:
 ---------------------------------------------------------------------
 Center     Atomic      Atomic             Coordinates (Angstroms)
 Number     Number       Type             X           Y           Z
 ---------------------------------------------------------------------
      1          6           0        4.631921   -2.262772    0.100973
      2          6           0        5.073210   -1.253598   -0.761206
      3          6           0        4.459066    0.002332   -0.757373
      4          6           0        3.401613    0.215540    0.125591
      5          6           0        2.939083   -0.769656    0.996652
      6          6           0        3.568141   -2.018011    0.975609
      7          1           0        5.114796   -3.235466    0.091311
      8          1           0        5.899131   -1.440847   -1.441527
      9          1           0        4.780524    0.801486   -1.414212
     10          1           0        2.113408   -0.553123    1.663579
     11          1           0        3.223316   -2.799874    1.646303
     12          7           0        2.743552    1.541127    0.138759
     13          8           0        1.813923    1.703741    0.926150
     14          8           0        3.169852    2.392408   -0.638561
     15          6           0       -2.022013    2.040446   -0.135730
     16          6           0       -1.538545    0.817654   -0.612763
     17          6           0       -2.354173   -0.317817   -0.610703
     18          6           0       -3.653929   -0.194046   -0.122231
     19          6           0       -4.164562    1.010228    0.359713
     20          6           0       -3.331170    2.132667    0.348132
     21          1           0       -1.381512    2.917445   -0.141028
     22          1           0       -0.522260    0.743084   -0.989126
     23          1           0       -2.005426   -1.276836   -0.974124
     24          1           0       -5.182117    1.053485    0.728667
     25          1           0       -3.709314    3.081006    0.719218
     26          7           0       -4.526801   -1.389220   -0.115011
     27          8           0       -5.668112   -1.253940    0.320590
     28          8           0       -4.053121   -2.438647   -0.545088
 ---------------------------------------------------------------------

 SCF Done:  E(RHF) =  -868.339959454     A.U. after   16 cycles
 E2 =    -0.2598675305D+01 EUMP2 =    -0.87093863475897D+03

 The electronic state is 1-A.
 Alpha  occ. eigenvalues --  -20.61801 -20.61789 -20.60346 -20.60337 -15.86811
 Alpha  occ. eigenvalues --  -15.85392 -11.31898 -11.30546 -11.28423 -11.28415
 Alpha  occ. eigenvalues --  -11.28092 -11.27363 -11.27344 -11.27105 -11.27100
 Alpha  occ. eigenvalues --  -11.26620 -11.26015 -11.25960  -1.60876  -1.59425
 Alpha  occ. eigenvalues --   -1.40428  -1.38985  -1.20040  -1.18680  -1.09486
 Alpha  occ. eigenvalues --   -1.08070  -1.05388  -1.04064  -0.96365  -0.94950
 Alpha  occ. eigenvalues --   -0.86798  -0.85441  -0.83196  -0.81809  -0.78283
 Alpha  occ. eigenvalues --   -0.76921  -0.73032  -0.72202  -0.71611  -0.71124
 Alpha  occ. eigenvalues --   -0.70749  -0.69688  -0.65684  -0.65374  -0.64312
 Alpha  occ. eigenvalues --   -0.64034  -0.62731  -0.61429  -0.55885  -0.54425
 Alpha  occ. eigenvalues --   -0.53746  -0.53464  -0.52390  -0.52143  -0.49812
 Alpha  occ. eigenvalues --   -0.49775  -0.48382  -0.48349  -0.45875  -0.44440
 Alpha  occ. eigenvalues --   -0.38004  -0.36983  -0.36568  -0.35682
 Alpha virt. eigenvalues --    0.04197   0.05622   0.10666   0.11993   0.15760
 Alpha virt. eigenvalues --    0.17198   0.20888   0.22195   0.26828   0.27545
 Alpha virt. eigenvalues --    0.27982   0.29196   0.30511   0.31669   0.32046

 Mulliken charges:
               1
     1  C   -0.169632
     2  C   -0.218493
     3  C   -0.171015
     4  C    0.154857
     5  C   -0.173039
     6  C   -0.218408
     7  H    0.228935
     8  H    0.225902
     9  H    0.276212
    10  H    0.277216
    11  H    0.227397
    12  N    0.485835
    13  O   -0.464773
    14  O   -0.458534
    15  C   -0.167560
    16  C   -0.214482
    17  C   -0.174886
    18  C    0.157394
    19  C   -0.172116
    20  C   -0.220169
    21  H    0.238326
    22  H    0.223164
    23  H    0.270418
    24  H    0.273017
    25  H    0.222433
    26  N    0.488293
    27  O   -0.462094
    28  O   -0.464196
 Sum of Mulliken charges =  -0.00000

 Dipole moment (field-independent basis, Debye):
    X=              5.8264    Y=             -0.3737    Z=             -0.0345  Tot=              5.8385
 Quadrupole moment (field-independent basis, Debye-Ang):
   XX=           -107.7329   YY=           -107.0083   ZZ=           -102.5926
   XY=            -33.7597   XZ=             -4.5456   YZ=             -1.3266

 Normal termination of Gaussian 16 at Wed May  5 19:14:57 2021.
