 Gaussian 16, Revision A.03,
 Gaussian 16:  EM64L-G16RevA.03 25-Dec-2016

 -------------
 #p 6-31g* mp2
 -------------

 ------------------------------------------------------
 Input file generated by CHIRIPA (05-May-2021 14:53:11)
 ------------------------------------------------------
 Symbolic Z-matrix:
 Charge =  0 Multiplicity = 1

                         Standard orientation:
 ---------------------------------------------------------------------
 Center     Atomic      Atomic             Coordinates (Angstroms)
 Number     Number       Type             X           Y           Z
 ---------------------------------------------------------------------
      1          6           0       -4.782928    0.336782   -0.143044
      2          6           0       -5.211631   -1.116189   -0.350586
      3          6           0       -6.689330   -1.249536   -0.719935
      4          1           0       -5.401542    0.785788    0.646041
      5          1           0       -4.985260    0.906132   -1.060812
      6          1           0       -5.007272   -1.682938    0.566828
      7          1           0       -4.591797   -1.561845   -1.139137
      8          1           0       -6.904992   -0.708751   -1.647104
      9          1           0       -7.322829   -0.830531    0.068554
     10          1           0       -6.974335   -2.296426   -0.863656
     11          6           0       -3.308269    0.486396    0.226718
     12          6           0       -2.879566    1.939367    0.434260
     13          6           0       -1.401867    2.072714    0.803609
     14          1           0       -3.105938   -0.082954    1.144486
     15          1           0       -2.689656    0.037389   -0.562367
     16          1           0       -3.499401    2.385023    1.222811
     17          1           0       -3.083925    2.506115   -0.483154
     18          1           0       -0.768369    1.653709    0.015120
     19          1           0       -1.186205    1.531929    1.730778
     20          1           0       -1.116863    3.119603    0.947330
     21          6           0        0.813705   -0.929258    0.666306
     22          6           0        1.883086   -1.146286    1.541433
     23          6           0        3.187623   -0.813387    1.164725
     24          6           0        3.387515   -0.262803   -0.100261
     25          6           0        2.342826   -0.034487   -0.994569
     26          6           0        1.046578   -0.375029   -0.596674
     27          1           0       -0.196471   -1.190830    0.967172
     28          1           0        1.705204   -1.576559    2.522894
     29          1           0        4.033820   -0.970739    1.822454
     30          1           0        2.551454    0.395998   -1.966461
     31          1           0        0.218003   -0.205364   -1.278380
     32          7           0        4.764183    0.093667   -0.510279
     33          8           0        4.913857    0.577409   -1.630203
     34          8           0        5.667474   -0.117423    0.296036
 ---------------------------------------------------------------------

 SCF Done:  E(RHF) =  -669.534184730     A.U. after   15 cycles
 E2 =    -0.2093081627D+01 EUMP2 =    -0.67162726635754D+03

 The electronic state is 1-A.
 Alpha  occ. eigenvalues --  -20.60724 -20.60718 -15.85779 -11.31133 -11.27721
 Alpha  occ. eigenvalues --  -11.27717 -11.27424 -11.26715 -11.26704 -11.22502
 Alpha  occ. eigenvalues --  -11.22398 -11.22364 -11.22200 -11.21762 -11.21680
 Alpha  occ. eigenvalues --   -1.59800  -1.39354  -1.19319  -1.09313  -1.08709
 Alpha  occ. eigenvalues --   -1.04737  -1.04305  -0.96764  -0.95541  -0.87777
 Alpha  occ. eigenvalues --   -0.86132  -0.82382  -0.80379  -0.79160  -0.77432
 Alpha  occ. eigenvalues --   -0.71998  -0.71124  -0.70409  -0.65962  -0.64972
 Alpha  occ. eigenvalues --   -0.64757  -0.62139  -0.61652  -0.60125  -0.58395
 Alpha  occ. eigenvalues --   -0.56084  -0.55199  -0.53495  -0.53389  -0.52840
 Alpha  occ. eigenvalues --   -0.52771  -0.50694  -0.48767  -0.48753  -0.48658
 Alpha  occ. eigenvalues --   -0.47407  -0.46669  -0.46607  -0.44762  -0.44590
 Alpha  occ. eigenvalues --   -0.37218  -0.36300
 Alpha virt. eigenvalues --    0.05102   0.11212   0.16515   0.19180   0.22561
 Alpha virt. eigenvalues --    0.24012   0.24390   0.25800   0.27382   0.27808
 Alpha virt. eigenvalues --    0.29445   0.29741   0.30914   0.31504   0.31798

 Mulliken charges:
               1
     1  C   -0.298327
     2  C   -0.300212
     3  C   -0.476174
     4  H    0.152904
     5  H    0.152198
     6  H    0.151065
     7  H    0.150730
     8  H    0.156691
     9  H    0.156678
    10  H    0.161997
    11  C   -0.300114
    12  C   -0.300456
    13  C   -0.478887
    14  H    0.145943
    15  H    0.141232
    16  H    0.155107
    17  H    0.154232
    18  H    0.155814
    19  H    0.152067
    20  H    0.165296
    21  C   -0.166453
    22  C   -0.220191
    23  C   -0.170218
    24  C    0.158286
    25  C   -0.172322
    26  C   -0.220802
    27  H    0.229420
    28  H    0.223116
    29  H    0.275460
    30  H    0.275406
    31  H    0.223697
    32  N    0.488120
    33  O   -0.460662
    34  O   -0.460644
 Sum of Mulliken charges =  -0.00000

 Dipole moment (field-independent basis, Debye):
    X=             -5.0128    Y=             -1.1914    Z=              1.4683  Tot=              5.3576
 Quadrupole moment (field-independent basis, Debye-Ang):
   XX=           -127.9411   YY=            -94.2132   ZZ=            -90.4113
   XY=             -4.0101   XZ=              6.7164   YZ=             -2.0278

 Normal termination of Gaussian 16 at Thu May  6 05:39:27 2021.
