 Gaussian 16, Revision A.03,
 Gaussian 16:  EM64L-G16RevA.03 25-Dec-2016

 -------------
 #p 6-31g* mp2
 -------------

 ------------------------------------------------------
 Input file generated by CHIRIPA (05-May-2021 14:53:15)
 ------------------------------------------------------
 Symbolic Z-matrix:
 Charge =  0 Multiplicity = 1

                         Standard orientation:
 ---------------------------------------------------------------------
 Center     Atomic      Atomic             Coordinates (Angstroms)
 Number     Number       Type             X           Y           Z
 ---------------------------------------------------------------------
      1          6           0       -5.093750    0.190849   -0.233201
      2          6           0       -6.542422   -0.217824    0.035721
      3          6           0       -7.553630    0.732108   -0.606837
      4          1           0       -4.931298    1.210367    0.142482
      5          1           0       -4.925787    0.227189   -1.318495
      6          1           0       -6.707219   -0.254727    1.120201
      7          1           0       -6.701391   -1.236560   -0.340473
      8          1           0       -7.417929    0.762063   -1.692787
      9          1           0       -7.423790    1.749475   -0.223814
     10          1           0       -8.582839    0.421256   -0.401995
     11          6           0       -4.071110   -0.749126    0.402710
     12          6           0       -2.622438   -0.340452    0.133788
     13          6           0       -1.611230   -1.290385    0.776346
     14          1           0       -4.239073   -0.785466    1.488004
     15          1           0       -4.233562   -1.768644    0.027028
     16          1           0       -2.463468    0.678283    0.509983
     17          1           0       -2.457641   -0.303550   -0.950691
     18          1           0       -1.741070   -2.307752    0.393323
     19          1           0       -1.746930   -1.320340    1.862297
     20          1           0       -0.582021   -0.979533    0.571505
     21          6           0        2.480812    2.476639    0.171598
     22          6           0        3.875475    2.377693    0.131020
     23          6           0        4.495329    1.131486   -0.000497
     24          6           0        3.686291   -0.000273   -0.089205
     25          6           0        2.294336    0.065695   -0.051801
     26          6           0        1.696077    1.322359    0.080218
     27          1           0        2.007682    3.448784    0.273958
     28          1           0        4.487425    3.272431    0.201771
     29          1           0        5.572896    1.026106   -0.034579
     30          1           0        1.710810   -0.844039   -0.124604
     31          1           0        0.612740    1.396185    0.111451
     32          7           0        4.331072   -1.325111   -0.228703
     33          8           0        3.595939   -2.307152   -0.304936
     34          8           0        5.559376   -1.356393   -0.259167
 ---------------------------------------------------------------------

 SCF Done:  E(RHF) =  -669.535248986     A.U. after   15 cycles
 E2 =    -0.2091469228D+01 EUMP2 =    -0.67162671821411D+03

 The electronic state is 1-A.
 Alpha  occ. eigenvalues --  -20.60729 -20.60723 -15.85781 -11.31146 -11.27718
 Alpha  occ. eigenvalues --  -11.27698 -11.27462 -11.26738 -11.26711 -11.22382
 Alpha  occ. eigenvalues --  -11.21970 -11.21941 -11.21869 -11.21833 -11.21388
 Alpha  occ. eigenvalues --   -1.59803  -1.39356  -1.19320  -1.08972  -1.08715
 Alpha  occ. eigenvalues --   -1.04731  -1.04089  -0.96531  -0.95551  -0.87546
 Alpha  occ. eigenvalues --   -0.86122  -0.82387  -0.80162  -0.78763  -0.77436
 Alpha  occ. eigenvalues --   -0.72000  -0.71126  -0.70444  -0.65594  -0.64980
 Alpha  occ. eigenvalues --   -0.64729  -0.62194  -0.61470  -0.59874  -0.58131
 Alpha  occ. eigenvalues --   -0.55784  -0.55230  -0.53267  -0.53049  -0.52937
 Alpha  occ. eigenvalues --   -0.52797  -0.50442  -0.48758  -0.48755  -0.48472
 Alpha  occ. eigenvalues --   -0.47183  -0.46307  -0.46211  -0.44762  -0.44342
 Alpha  occ. eigenvalues --   -0.37302  -0.36324
 Alpha virt. eigenvalues --    0.05097   0.11326   0.16573   0.19505   0.22594
 Alpha virt. eigenvalues --    0.23725   0.25827   0.26004   0.26583   0.27743
 Alpha virt. eigenvalues --    0.28877   0.29752   0.30952   0.31441   0.32047

 Mulliken charges:
               1
     1  C   -0.298649
     2  C   -0.300170
     3  C   -0.475986
     4  H    0.148497
     5  H    0.150269
     6  H    0.152633
     7  H    0.153457
     8  H    0.155686
     9  H    0.154844
    10  H    0.161679
    11  C   -0.299040
    12  C   -0.301830
    13  C   -0.480087
    14  H    0.151287
    15  H    0.153081
    16  H    0.146425
    17  H    0.153300
    18  H    0.163531
    19  H    0.160210
    20  H    0.151532
    21  C   -0.171091
    22  C   -0.218638
    23  C   -0.170908
    24  C    0.160729
    25  C   -0.178460
    26  C   -0.222127
    27  H    0.225540
    28  H    0.223322
    29  H    0.275458
    30  H    0.280601
    31  H    0.227477
    32  N    0.488439
    33  O   -0.460387
    34  O   -0.460626
 Sum of Mulliken charges =  -0.00000

 Dipole moment (field-independent basis, Debye):
    X=             -2.4646    Y=              4.5929    Z=              0.5058  Tot=              5.2368
 Quadrupole moment (field-independent basis, Debye-Ang):
   XX=           -107.5380   YY=            -94.1566   ZZ=            -95.1542
   XY=             20.4008   XZ=              1.7583   YZ=              0.3335

 Normal termination of Gaussian 16 at Wed May  5 17:08:54 2021.
