 Gaussian 16, Revision A.03,
 Gaussian 16:  EM64L-G16RevA.03 25-Dec-2016

 -------------
 #p 6-31g* mp2
 -------------

 ------------------------------------------------------
 Input file generated by CHIRIPA (05-May-2021 14:55:25)
 ------------------------------------------------------
 Symbolic Z-matrix:
 Charge =  0 Multiplicity = 1

                         Standard orientation:
 ---------------------------------------------------------------------
 Center     Atomic      Atomic             Coordinates (Angstroms)
 Number     Number       Type             X           Y           Z
 ---------------------------------------------------------------------
      1          6           0       -2.686074   -2.338212    0.691653
      2          6           0       -2.547704   -1.887458   -0.625235
      3          6           0       -2.741066   -0.538634   -0.938018
      4          6           0       -3.073422    0.335883    0.095446
      5          6           0       -3.218474   -0.082674    1.417210
      6          6           0       -3.020427   -1.435972    1.706883
      7          1           0       -2.534046   -3.387749    0.925654
      8          1           0       -2.288112   -2.585893   -1.415708
      9          1           0       -2.640289   -0.162729   -1.948937
     10          1           0       -3.477997    0.637345    2.183785
     11          1           0       -3.128552   -1.783209    2.730495
     12          7           0       -3.280605    1.766191   -0.223450
     13          8           0       -3.572779    2.516561    0.705106
     14          8           0       -3.146899    2.109813   -1.395919
     15          6           0        4.351915    0.057910    0.389937
     16          6           0        5.720925    0.565215   -0.064417
     17          6           0        6.633169    0.933496    1.106042
     18          1           0        3.868081    0.828703    1.005345
     19          1           0        4.490051   -0.818475    1.038215
     20          1           0        5.580185    1.439546   -0.712764
     21          1           0        6.201476   -0.206801   -0.678974
     22          1           0        6.803043    0.064728    1.750236
     23          1           0        6.178223    1.720429    1.716255
     24          1           0        7.606502    1.293675    0.758545
     25          6           0        3.428631   -0.314297   -0.768828
     26          6           0        2.059622   -0.821602   -0.314474
     27          6           0        1.147377   -1.189883   -1.484932
     28          1           0        3.290496    0.562087   -1.417106
     29          1           0        3.912466   -1.085090   -1.384236
     30          1           0        1.579072   -0.049587    0.300083
     31          1           0        2.200361   -1.695933    0.333873
     32          1           0        1.602324   -1.976816   -2.095145
     33          1           0        0.977503   -0.321116   -2.129128
     34          1           0        0.174044   -1.550062   -1.137436
 ---------------------------------------------------------------------

 SCF Done:  E(RHF) =  -669.534922341     A.U. after   15 cycles
 E2 =    -0.2092202035D+01 EUMP2 =    -0.67162712437600D+03

 The electronic state is 1-A.
 Alpha  occ. eigenvalues --  -20.60807 -20.60802 -15.85861 -11.31240 -11.27811
 Alpha  occ. eigenvalues --  -11.27807 -11.27563 -11.26827 -11.26811 -11.21764
 Alpha  occ. eigenvalues --  -11.21635 -11.21482 -11.21418 -11.21231 -11.21096
 Alpha  occ. eigenvalues --   -1.59882  -1.39435  -1.19426  -1.08817  -1.08516
 Alpha  occ. eigenvalues --   -1.04838  -1.03629  -0.96090  -0.95643  -0.87119
 Alpha  occ. eigenvalues --   -0.86223  -0.82478  -0.79703  -0.78325  -0.77519
 Alpha  occ. eigenvalues --   -0.72079  -0.71206  -0.70521  -0.65144  -0.65075
 Alpha  occ. eigenvalues --   -0.64834  -0.62182  -0.61027  -0.59499  -0.57722
 Alpha  occ. eigenvalues --   -0.55374  -0.55323  -0.53455  -0.52925  -0.52631
 Alpha  occ. eigenvalues --   -0.52352  -0.50026  -0.48840  -0.48832  -0.48015
 Alpha  occ. eigenvalues --   -0.46727  -0.45870  -0.45788  -0.44837  -0.43907
 Alpha  occ. eigenvalues --   -0.37398  -0.36341
 Alpha virt. eigenvalues --    0.05012   0.11144   0.16441   0.21200   0.22820
 Alpha virt. eigenvalues --    0.24291   0.26534   0.26778   0.27406   0.28142
 Alpha virt. eigenvalues --    0.28538   0.30556   0.31330   0.31791   0.32160

 Mulliken charges:
               1
     1  C   -0.171073
     2  C   -0.221716
     3  C   -0.166939
     4  C    0.158328
     5  C   -0.170849
     6  C   -0.218314
     7  H    0.226188
     8  H    0.225754
     9  H    0.276766
    10  H    0.275833
    11  H    0.223778
    12  N    0.488068
    13  O   -0.460359
    14  O   -0.460206
    15  C   -0.298455
    16  C   -0.299822
    17  C   -0.475806
    18  H    0.150981
    19  H    0.148084
    20  H    0.153278
    21  H    0.151395
    22  H    0.154390
    23  H    0.155956
    24  H    0.160603
    25  C   -0.298734
    26  C   -0.297587
    27  C   -0.485206
    28  H    0.151972
    29  H    0.148668
    30  H    0.154410
    31  H    0.148786
    32  H    0.151869
    33  H    0.157507
    34  H    0.162453
 Sum of Mulliken charges =  -0.00000

 Dipole moment (field-independent basis, Debye):
    X=              0.6668    Y=             -4.9974    Z=              1.1534  Tot=              5.1719
 Quadrupole moment (field-independent basis, Debye-Ang):
   XX=           -100.2680   YY=            -97.8339   ZZ=            -90.5386
   XY=             15.3295   XZ=             -5.0321   YZ=              0.5711

 Normal termination of Gaussian 16 at Wed May  5 20:49:09 2021.
