 Gaussian 16, Revision A.03,
 Gaussian 16:  EM64L-G16RevA.03 25-Dec-2016

 -------------
 #p 6-31g* mp2
 -------------

 ------------------------------------------------------
 Input file generated by CHIRIPA (05-May-2021 14:53:14)
 ------------------------------------------------------
 Symbolic Z-matrix:
 Charge =  0 Multiplicity = 1

                         Standard orientation:
 ---------------------------------------------------------------------
 Center     Atomic      Atomic             Coordinates (Angstroms)
 Number     Number       Type             X           Y           Z
 ---------------------------------------------------------------------
      1          6           0        4.151430    0.846484    0.108892
      2          6           0        3.251647    1.656843   -0.824754
      3          6           0        3.197107    3.139136   -0.453773
      4          1           0        3.790370    0.954616    1.140826
      5          1           0        5.165731    1.268504    0.086796
      6          1           0        2.239675    1.232568   -0.801960
      7          1           0        3.614777    1.546615   -1.854609
      8          1           0        4.196787    3.583598   -0.494963
      9          1           0        2.813872    3.267767    0.563668
     10          1           0        2.548334    3.699636   -1.134063
     11          6           0        4.216195   -0.637207   -0.249147
     12          6           0        5.115978   -1.447566    0.684498
     13          6           0        5.170518   -2.929860    0.313518
     14          1           0        3.201895   -1.059227   -0.227051
     15          1           0        4.577255   -0.745340   -1.281082
     16          1           0        4.752849   -1.337338    1.714354
     17          1           0        6.127950   -1.023291    0.661704
     18          1           0        5.553753   -3.058490   -0.703923
     19          1           0        4.170839   -3.374321    0.354707
     20          1           0        5.819291   -3.490359    0.993807
     21          6           0       -0.852692    0.605329    0.293988
     22          6           0       -1.855736    1.337700    0.937458
     23          6           0       -3.197655    0.966146    0.811955
     24          6           0       -3.502165   -0.148173    0.031662
     25          6           0       -2.525506   -0.898132   -0.621781
     26          6           0       -1.190183   -0.508286   -0.482210
     27          1           0        0.187181    0.901066    0.396945
     28          1           0       -1.596572    2.202991    1.540906
     29          1           0       -3.994208    1.515229    1.299222
     30          1           0       -2.814787   -1.756022   -1.216557
     31          1           0       -0.413304   -1.078931   -0.983079
     32          7           0       -4.919303   -0.551202   -0.108649
     33          8           0       -5.161461   -1.536866   -0.801804
     34          8           0       -5.761064    0.126198    0.477187
 ---------------------------------------------------------------------

 SCF Done:  E(RHF) =  -669.535481684     A.U. after   15 cycles
 E2 =    -0.2091200275D+01 EUMP2 =    -0.67162668195932D+03

 The electronic state is 1-A.
 Alpha  occ. eigenvalues --  -20.60750 -20.60745 -15.85804 -11.31172 -11.27742
 Alpha  occ. eigenvalues --  -11.27738 -11.27463 -11.26758 -11.26747 -11.22787
 Alpha  occ. eigenvalues --  -11.22405 -11.22361 -11.22303 -11.22108 -11.21709
 Alpha  occ. eigenvalues --   -1.59826  -1.39379  -1.19344  -1.09405  -1.08738
 Alpha  occ. eigenvalues --   -1.04748  -1.04453  -0.96878  -0.95575  -0.87893
 Alpha  occ. eigenvalues --   -0.86145  -0.82409  -0.80528  -0.79204  -0.77452
 Alpha  occ. eigenvalues --   -0.72022  -0.71149  -0.70482  -0.66051  -0.64996
 Alpha  occ. eigenvalues --   -0.64749  -0.62096  -0.61868  -0.60253  -0.58486
 Alpha  occ. eigenvalues --   -0.56181  -0.55249  -0.53557  -0.53290  -0.53076
 Alpha  occ. eigenvalues --   -0.52839  -0.50828  -0.48833  -0.48777  -0.48771
 Alpha  occ. eigenvalues --   -0.47577  -0.46734  -0.46665  -0.44784  -0.44707
 Alpha  occ. eigenvalues --   -0.37321  -0.36353
 Alpha virt. eigenvalues --    0.05074   0.11294   0.16530   0.18418   0.22814
 Alpha virt. eigenvalues --    0.23303   0.24976   0.26045   0.27025   0.27854
 Alpha virt. eigenvalues --    0.29428   0.30325   0.30884   0.30982   0.32134

 Mulliken charges:
               1
     1  C   -0.299397
     2  C   -0.303800
     3  C   -0.476811
     4  H    0.148312
     5  H    0.154392
     6  H    0.141737
     7  H    0.157853
     8  H    0.160593
     9  H    0.151999
    10  H    0.163341
    11  C   -0.297163
    12  C   -0.300297
    13  C   -0.476166
    14  H    0.142047
    15  H    0.152479
    16  H    0.152707
    17  H    0.154360
    18  H    0.156428
    19  H    0.154592
    20  H    0.163115
    21  C   -0.176116
    22  C   -0.219555
    23  C   -0.170776
    24  C    0.158391
    25  C   -0.170887
    26  C   -0.220942
    27  H    0.234003
    28  H    0.223805
    29  H    0.275529
    30  H    0.275637
    31  H    0.223458
    32  N    0.488035
    33  O   -0.460457
    34  O   -0.460446
 Sum of Mulliken charges =  -0.00000

 Dipole moment (field-independent basis, Debye):
    X=              5.2456    Y=              1.4466    Z=              0.4722  Tot=              5.4619
 Quadrupole moment (field-independent basis, Debye-Ang):
   XX=           -128.1272   YY=            -93.4248   ZZ=            -93.1786
   XY=             -6.5508   XZ=             -3.1063   YZ=              2.2288

 Normal termination of Gaussian 16 at Thu May  6 15:27:48 2021.
