 Gaussian 16, Revision A.03,
 Gaussian 16:  EM64L-G16RevA.03 25-Dec-2016

 -------------
 #p 6-31g* mp2
 -------------

 ------------------------------------------------------
 Input file generated by CHIRIPA (05-May-2021 14:51:11)
 ------------------------------------------------------
 Symbolic Z-matrix:
 Charge =  0 Multiplicity = 1

                         Standard orientation:
 ---------------------------------------------------------------------
 Center     Atomic      Atomic             Coordinates (Angstroms)
 Number     Number       Type             X           Y           Z
 ---------------------------------------------------------------------
      1          6           0       -3.070942   -0.321327    0.253601
      2          6           0       -3.831583   -0.114707   -1.056636
      3          6           0       -5.022995    0.831615   -0.905620
      4          1           0       -3.760618   -0.715963    1.012254
      5          1           0       -2.722224    0.652436    0.624513
      6          1           0       -4.177572   -1.088727   -1.425681
      7          1           0       -3.139972    0.279302   -1.812312
      8          1           0       -4.691512    1.816306   -0.560506
      9          1           0       -5.735007    0.440504   -0.171677
     10          1           0       -5.552426    0.965090   -1.854170
     11          6           0       -1.877128   -1.264908    0.118732
     12          6           0       -1.116487   -1.471528    1.428968
     13          6           0        0.074925   -2.417850    1.277952
     14          1           0       -2.225846   -2.238671   -0.252180
     15          1           0       -1.187453   -0.870272   -0.639922
     16          1           0       -1.808098   -1.865538    2.184644
     17          1           0       -0.770498   -0.497509    1.798013
     18          1           0        0.786937   -2.026739    0.544009
     19          1           0       -0.256558   -3.402541    0.932838
     20          1           0        0.604355   -2.551325    2.226502
     21          6           0        2.927041    0.197668   -0.032356
     22          6           0        3.161218   -0.713384   -1.237816
     23          6           0        4.069440   -1.900096   -0.914335
     24          1           0        3.895054    0.564528    0.335485
     25          1           0        2.485581   -0.391440    0.783400
     26          1           0        3.600826   -0.122429   -2.051531
     27          1           0        2.192521   -1.077965   -1.602948
     28          1           0        3.632982   -2.513881   -0.119745
     29          1           0        5.049289   -1.552916   -0.570877
     30          1           0        4.223446   -2.538207   -1.790095
     31          6           0        2.021030    1.388568   -0.339976
     32          6           0        1.786852    2.299619    0.865484
     33          6           0        0.878630    3.486331    0.542003
     34          1           0        2.462490    1.977676   -1.155733
     35          1           0        1.053016    1.021707   -0.707817
     36          1           0        2.755549    2.664201    1.230615
     37          1           0        1.347244    1.708665    1.679199
     38          1           0       -0.101220    3.139152    0.198545
     39          1           0        1.315087    4.100117   -0.252587
     40          1           0        0.724624    4.124442    1.417763
 ---------------------------------------------------------------------

 SCF Done:  E(RHF) =  -470.733005267     A.U. after   11 cycles
 E2 =    -0.1584597221D+01 EUMP2 =    -0.47231760248826D+03

 The electronic state is 1-A.
 Alpha  occ. eigenvalues --  -11.21690 -11.21655 -11.21645 -11.21628 -11.21481
 Alpha  occ. eigenvalues --  -11.21437 -11.21418 -11.21346 -11.21130 -11.21129
 Alpha  occ. eigenvalues --  -11.21098 -11.21061  -1.08529  -1.08442  -1.03607
 Alpha  occ. eigenvalues --   -1.03554  -0.96053  -0.96001  -0.87093  -0.86997
 Alpha  occ. eigenvalues --   -0.79674  -0.79611  -0.78321  -0.78272  -0.65479
 Alpha  occ. eigenvalues --   -0.64830  -0.61106  -0.60855  -0.59412  -0.59374
 Alpha  occ. eigenvalues --   -0.57647  -0.57617  -0.55418  -0.55209  -0.52738
 Alpha  occ. eigenvalues --   -0.52700  -0.52466  -0.52430  -0.50208  -0.49750
 Alpha  occ. eigenvalues --   -0.48006  -0.47915  -0.46790  -0.46566  -0.46023
 Alpha  occ. eigenvalues --   -0.45825  -0.45660  -0.45583  -0.43849  -0.43814
 Alpha virt. eigenvalues --    0.18389   0.22185   0.23686   0.24836   0.24947
 Alpha virt. eigenvalues --    0.25999   0.27456   0.27920   0.28675   0.29796
 Alpha virt. eigenvalues --    0.30662   0.31439   0.31604   0.31910   0.32326

 Mulliken charges:
               1
     1  C   -0.298677
     2  C   -0.299754
     3  C   -0.475771
     4  H    0.150096
     5  H    0.149545
     6  H    0.152107
     7  H    0.151960
     8  H    0.155377
     9  H    0.155264
    10  H    0.160484
    11  C   -0.300853
    12  C   -0.301683
    13  C   -0.483648
    14  H    0.150120
    15  H    0.150970
    16  H    0.152743
    17  H    0.153187
    18  H    0.163648
    19  H    0.155794
    20  H    0.160037
    21  C   -0.303936
    22  C   -0.301701
    23  C   -0.477012
    24  H    0.150292
    25  H    0.155084
    26  H    0.152626
    27  H    0.151722
    28  H    0.157088
    29  H    0.155266
    30  H    0.160377
    31  C   -0.300637
    32  C   -0.301245
    33  C   -0.475839
    34  H    0.149965
    35  H    0.150844
    36  H    0.152462
    37  H    0.153117
    38  H    0.154456
    39  H    0.155553
    40  H    0.160571
 Sum of Mulliken charges =  -0.00000

 Dipole moment (field-independent basis, Debye):
    X=              0.0007    Y=             -0.0125    Z=              0.0102  Tot=              0.0161
 Quadrupole moment (field-independent basis, Debye-Ang):
   XX=            -84.8161   YY=            -85.0582   ZZ=            -84.6879
   XY=              2.1323   XZ=             -0.4198   YZ=             -0.2267

 Normal termination of Gaussian 16 at Thu May  6 07:01:14 2021.
