 Gaussian 16, Revision A.03,
 Gaussian 16:  EM64L-G16RevA.03 25-Dec-2016

 -------------
 #p 6-31g* mp2
 -------------

 ------------------------------------------------------
 Input file generated by CHIRIPA (05-May-2021 14:55:25)
 ------------------------------------------------------
 Symbolic Z-matrix:
 Charge =  0 Multiplicity = 1

                         Standard orientation:
 ---------------------------------------------------------------------
 Center     Atomic      Atomic             Coordinates (Angstroms)
 Number     Number       Type             X           Y           Z
 ---------------------------------------------------------------------
      1          6           0        3.378241    1.092294   -1.060903
      2          6           0        3.056764   -0.172336   -1.564773
      3          6           0        2.212570   -1.027669   -0.850427
      4          6           0        1.705369   -0.584144    0.369951
      5          6           0        2.007096    0.670032    0.898431
      6          6           0        2.853307    1.508708    0.166927
      7          1           0        4.034815    1.750267   -1.622488
      8          1           0        3.462973   -0.498377   -2.518049
      9          1           0        1.947308   -2.011825   -1.217157
     10          1           0        1.586764    0.967134    1.851568
     11          1           0        3.101253    2.490299    0.560686
     12          7           0        0.810591   -1.480830    1.135279
     13          8           0        0.376751   -1.066518    2.208017
     14          8           0        0.560047   -2.580984    0.647915
     15          6           0       -2.278292   -0.067322   -0.739888
     16          6           0       -3.039473   -1.283014   -0.210093
     17          6           0       -2.842814   -2.527303   -1.076617
     18          1           0       -2.606371    0.143734   -1.766905
     19          1           0       -1.208132   -0.309934   -0.797248
     20          1           0       -4.107706   -1.037719   -0.152441
     21          1           0       -2.709682   -1.491083    0.815852
     22          1           0       -1.783517   -2.799615   -1.124931
     23          1           0       -3.189483   -2.343675   -2.098724
     24          1           0       -3.395682   -3.384421   -0.679697
     25          6           0       -2.464977    1.184403    0.115719
     26          6           0       -1.703796    2.400095   -0.414075
     27          6           0       -1.900455    3.644384    0.452450
     28          1           0       -3.535137    1.427015    0.173080
     29          1           0       -2.136898    0.973347    1.142737
     30          1           0       -2.033587    2.608165   -1.440020
     31          1           0       -0.635563    2.154799   -0.471727
     32          1           0       -1.553786    3.460755    1.474556
     33          1           0       -2.959752    3.916696    0.500763
     34          1           0       -1.347587    4.501501    0.055528
 ---------------------------------------------------------------------

 SCF Done:  E(RHF) =  -669.536593230     A.U. after   15 cycles
 E2 =    -0.2094860935D+01 EUMP2 =    -0.67163145416509D+03

 The electronic state is 1-A.
 Alpha  occ. eigenvalues --  -20.61106 -20.61095 -15.86102 -11.31387 -11.27951
 Alpha  occ. eigenvalues --  -11.27935 -11.27661 -11.26947 -11.26923 -11.21359
 Alpha  occ. eigenvalues --  -11.21001 -11.20872 -11.20801 -11.20590 -11.19961
 Alpha  occ. eigenvalues --   -1.60144  -1.39701  -1.19555  -1.08963  -1.07878
 Alpha  occ. eigenvalues --   -1.04939  -1.02933  -0.95812  -0.95399  -0.86434
 Alpha  occ. eigenvalues --   -0.86335  -0.82643  -0.79032  -0.77719  -0.77640
 Alpha  occ. eigenvalues --   -0.72327  -0.71500  -0.70651  -0.65207  -0.64934
 Alpha  occ. eigenvalues --   -0.64475  -0.62285  -0.60311  -0.58833  -0.56996
 Alpha  occ. eigenvalues --   -0.55438  -0.54695  -0.53277  -0.53024  -0.52104
 Alpha  occ. eigenvalues --   -0.51837  -0.49368  -0.49096  -0.49084  -0.47344
 Alpha  occ. eigenvalues --   -0.46057  -0.45422  -0.45164  -0.44733  -0.43203
 Alpha  occ. eigenvalues --   -0.37493  -0.36512
 Alpha virt. eigenvalues --    0.04757   0.11078   0.16208   0.21084   0.22998
 Alpha virt. eigenvalues --    0.24735   0.26670   0.27186   0.27700   0.28276
 Alpha virt. eigenvalues --    0.28801   0.30782   0.31435   0.32199   0.32632

 Mulliken charges:
               1
     1  C   -0.170138
     2  C   -0.217796
     3  C   -0.171493
     4  C    0.156641
     5  C   -0.170747
     6  C   -0.218583
     7  H    0.226677
     8  H    0.224513
     9  H    0.276298
    10  H    0.276332
    11  H    0.224897
    12  N    0.492108
    13  O   -0.459140
    14  O   -0.458691
    15  C   -0.298607
    16  C   -0.302507
    17  C   -0.479505
    18  H    0.146196
    19  H    0.141702
    20  H    0.147029
    21  H    0.167890
    22  H    0.168070
    23  H    0.145828
    24  H    0.159510
    25  C   -0.302006
    26  C   -0.302159
    27  C   -0.475240
    28  H    0.148733
    29  H    0.158640
    30  H    0.150061
    31  H    0.149465
    32  H    0.153708
    33  H    0.156707
    34  H    0.155608
 Sum of Mulliken charges =  -0.00000

 Dipole moment (field-independent basis, Debye):
    X=              3.3606    Y=              2.9983    Z=             -2.5362  Tot=              5.1687
 Quadrupole moment (field-independent basis, Debye-Ang):
   XX=            -84.0579   YY=            -97.5223   ZZ=            -94.5841
   XY=              3.3090   XZ=             -3.9488   YZ=              4.8073

 Normal termination of Gaussian 16 at Thu May  6 03:13:02 2021.
