 Gaussian 16, Revision A.03,
 Gaussian 16:  EM64L-G16RevA.03 25-Dec-2016

 -------------
 #p 6-31g* mp2
 -------------

 ------------------------------------------------------
 Input file generated by CHIRIPA (05-May-2021 14:51:12)
 ------------------------------------------------------
 Symbolic Z-matrix:
 Charge =  0 Multiplicity = 1

                         Standard orientation:
 ---------------------------------------------------------------------
 Center     Atomic      Atomic             Coordinates (Angstroms)
 Number     Number       Type             X           Y           Z
 ---------------------------------------------------------------------
      1          6           0       -1.993989   -0.602001    0.551624
      2          6           0       -1.682811   -0.710494    2.044735
      3          6           0       -0.459331   -1.581389    2.331849
      4          1           0       -2.154900   -1.609011    0.142986
      5          1           0       -1.118774   -0.189510    0.030813
      6          1           0       -2.558847   -1.121365    2.562771
      7          1           0       -1.522811    0.296905    2.449906
      8          1           0        0.429205   -1.171279    1.841020
      9          1           0       -0.612718   -2.597607    1.954526
     10          1           0       -0.254963   -1.645264    3.405168
     11          6           0       -3.214440    0.265416    0.248612
     12          6           0       -3.525618    0.373908   -1.244499
     13          6           0       -4.749098    1.244803   -1.531613
     14          1           0       -4.089655   -0.147075    0.769423
     15          1           0       -3.053529    1.272425    0.657250
     16          1           0       -3.685618   -0.633491   -1.649670
     17          1           0       -2.649581    0.784779   -1.762535
     18          1           0       -4.595711    2.261022   -1.154290
     19          1           0       -5.637634    0.834693   -1.040784
     20          1           0       -4.953466    1.308678   -2.604932
     21          6           0        2.295503   -0.526354   -0.325320
     22          6           0        2.777172   -1.520958   -1.382080
     23          6           0        2.150702   -2.906169   -1.219239
     24          1           0        2.528463   -0.920611    0.673296
     25          1           0        1.201226   -0.443785   -0.381313
     26          1           0        3.870343   -1.600583   -1.325034
     27          1           0        2.543210   -1.124198   -2.378303
     28          1           0        1.060280   -2.847446   -1.297559
     29          1           0        2.394953   -3.326538   -0.238305
     30          1           0        2.508889   -3.601312   -1.984966
     31          6           0        2.912926    0.862940   -0.474916
     32          6           0        2.431257    1.857544    0.581845
     33          6           0        3.057727    3.242755    0.419003
     34          1           0        4.007203    0.780371   -0.418924
     35          1           0        2.679966    1.257197   -1.473533
     36          1           0        2.665219    1.460784    1.578068
     37          1           0        1.338086    1.937169    0.524798
     38          1           0        2.813475    3.663124   -0.561932
     39          1           0        4.148149    3.184032    0.497322
     40          1           0        2.699541    3.937898    1.184730
 ---------------------------------------------------------------------

 SCF Done:  E(RHF) =  -470.732094823     A.U. after   11 cycles
 E2 =    -0.1584823055D+01 EUMP2 =    -0.47231691787793D+03

 The electronic state is 1-A.
 Alpha  occ. eigenvalues --  -11.21684 -11.21630 -11.21617 -11.21541 -11.21445
 Alpha  occ. eigenvalues --  -11.21412 -11.21374 -11.21352 -11.21130 -11.21091
 Alpha  occ. eigenvalues --  -11.21048 -11.20853  -1.08511  -1.08405  -1.03573
 Alpha  occ. eigenvalues --   -1.03491  -0.96025  -0.95938  -0.87043  -0.86955
 Alpha  occ. eigenvalues --   -0.79698  -0.79539  -0.78493  -0.78072  -0.65231
 Alpha  occ. eigenvalues --   -0.64961  -0.60964  -0.60910  -0.59418  -0.59290
 Alpha  occ. eigenvalues --   -0.57675  -0.57525  -0.55361  -0.55190  -0.52713
 Alpha  occ. eigenvalues --   -0.52631  -0.52508  -0.52330  -0.50015  -0.49852
 Alpha  occ. eigenvalues --   -0.48134  -0.47790  -0.46804  -0.46662  -0.46275
 Alpha  occ. eigenvalues --   -0.45759  -0.45692  -0.44936  -0.43821  -0.43759
 Alpha virt. eigenvalues --    0.20640   0.23303   0.23807   0.24300   0.25192
 Alpha virt. eigenvalues --    0.25776   0.26962   0.27935   0.28599   0.30026
 Alpha virt. eigenvalues --    0.30837   0.31396   0.31624   0.31748   0.32182

 Mulliken charges:
               1
     1  C   -0.305787
     2  C   -0.298860
     3  C   -0.484748
     4  H    0.149464
     5  H    0.154788
     6  H    0.151494
     7  H    0.151484
     8  H    0.166754
     9  H    0.154280
    10  H    0.158608
    11  C   -0.297539
    12  C   -0.299586
    13  C   -0.475691
    14  H    0.149897
    15  H    0.149515
    16  H    0.152006
    17  H    0.151074
    18  H    0.155212
    19  H    0.155379
    20  H    0.160251
    21  C   -0.311640
    22  C   -0.298205
    23  C   -0.476673
    24  H    0.152292
    25  H    0.159879
    26  H    0.151823
    27  H    0.151694
    28  H    0.156258
    29  H    0.155856
    30  H    0.160081
    31  C   -0.296817
    32  C   -0.301314
    33  C   -0.475581
    34  H    0.149786
    35  H    0.149425
    36  H    0.152516
    37  H    0.151266
    38  H    0.155303
    39  H    0.155616
    40  H    0.160442
 Sum of Mulliken charges =  -0.00000

 Dipole moment (field-independent basis, Debye):
    X=              0.0487    Y=              0.0058    Z=             -0.0231  Tot=              0.0542
 Quadrupole moment (field-independent basis, Debye-Ang):
   XX=            -84.6537   YY=            -85.5064   ZZ=            -84.6683
   XY=              0.3967   XZ=              0.1907   YZ=              0.0463

 Normal termination of Gaussian 16 at Wed May  5 19:56:26 2021.
