 Gaussian 16, Revision A.03,
 Gaussian 16:  EM64L-G16RevA.03 25-Dec-2016

 -------------
 #p 6-31g* mp2
 -------------

 ------------------------------------------------------
 Input file generated by CHIRIPA (05-May-2021 14:53:12)
 ------------------------------------------------------
 Symbolic Z-matrix:
 Charge =  0 Multiplicity = 1

                         Standard orientation:
 ---------------------------------------------------------------------
 Center     Atomic      Atomic             Coordinates (Angstroms)
 Number     Number       Type             X           Y           Z
 ---------------------------------------------------------------------
      1          6           0       -5.101053    0.188959   -0.266773
      2          6           0       -6.525496   -0.078298    0.220588
      3          6           0       -7.576593    0.703087   -0.568352
      4          1           0       -4.891245    1.264893   -0.194033
      5          1           0       -5.030350   -0.071981   -1.331811
      6          1           0       -6.593127    0.181763    1.284735
      7          1           0       -6.731871   -1.153747    0.146859
      8          1           0       -7.538168    0.437038   -1.629644
      9          1           0       -7.398636    1.780136   -0.485303
     10          1           0       -8.587645    0.497142   -0.203358
     11          6           0       -4.039025   -0.585042    0.512167
     12          6           0       -2.614582   -0.317785    0.024806
     13          6           0       -1.563485   -1.099170    0.813745
     14          1           0       -4.109728   -0.324102    1.577205
     15          1           0       -4.248833   -1.660976    0.439426
     16          1           0       -2.408207    0.757663    0.098534
     17          1           0       -2.546950   -0.577847   -1.039342
     18          1           0       -1.741442   -2.176220    0.730696
     19          1           0       -1.601910   -0.833121    1.875038
     20          1           0       -0.552433   -0.893226    0.448751
     21          6           0        3.991956   -2.326400   -0.275330
     22          6           0        5.047635   -1.456249    0.016048
     23          6           0        4.825645   -0.079696    0.117885
     24          6           0        3.529583    0.394586   -0.078506
     25          6           0        2.457104   -0.446882   -0.370072
     26          6           0        2.702333   -1.819832   -0.467122
     27          1           0        4.173429   -3.394339   -0.352579
     28          1           0        6.050206   -1.846842    0.165487
     29          1           0        5.624669    0.616433    0.342349
     30          1           0        1.468586   -0.027869   -0.513871
     31          1           0        1.880567   -2.493246   -0.693526
     32          7           0        3.282271    1.849974    0.026770
     33          8           0        2.131240    2.242783   -0.150615
     34          8           0        4.244142    2.570339    0.284677
 ---------------------------------------------------------------------

 SCF Done:  E(RHF) =  -669.535411929     A.U. after   15 cycles
 E2 =    -0.2091093543D+01 EUMP2 =    -0.67162650547222D+03

 The electronic state is 1-A.
 Alpha  occ. eigenvalues --  -20.60757 -20.60752 -15.85810 -11.31174 -11.27746
 Alpha  occ. eigenvalues --  -11.27732 -11.27486 -11.26766 -11.26749 -11.21804
 Alpha  occ. eigenvalues --  -11.21632 -11.21550 -11.21523 -11.21413 -11.21067
 Alpha  occ. eigenvalues --   -1.59832  -1.39386  -1.19349  -1.08743  -1.08547
 Alpha  occ. eigenvalues --   -1.04756  -1.03688  -0.96160  -0.95579  -0.87179
 Alpha  occ. eigenvalues --   -0.86150  -0.82412  -0.79744  -0.78338  -0.77461
 Alpha  occ. eigenvalues --   -0.72030  -0.71154  -0.70470  -0.65170  -0.65004
 Alpha  occ. eigenvalues --   -0.64761  -0.62164  -0.61073  -0.59525  -0.57760
 Alpha  occ. eigenvalues --   -0.55432  -0.55257  -0.53132  -0.52961  -0.52748
 Alpha  occ. eigenvalues --   -0.52526  -0.50080  -0.48788  -0.48784  -0.48064
 Alpha  occ. eigenvalues --   -0.46756  -0.45888  -0.45795  -0.44791  -0.43945
 Alpha  occ. eigenvalues --   -0.37329  -0.36345
 Alpha virt. eigenvalues --    0.05052   0.11286   0.16523   0.20243   0.22860
 Alpha virt. eigenvalues --    0.23873   0.26205   0.26570   0.27340   0.27971
 Alpha virt. eigenvalues --    0.29033   0.30576   0.31276   0.31558   0.32025

 Mulliken charges:
               1
     1  C   -0.298796
     2  C   -0.299813
     3  C   -0.475871
     4  H    0.152446
     5  H    0.149262
     6  H    0.152493
     7  H    0.151091
     8  H    0.155042
     9  H    0.156408
    10  H    0.160292
    11  C   -0.298715
    12  C   -0.300891
    13  C   -0.478186
    14  H    0.151059
    15  H    0.148175
    16  H    0.160333
    17  H    0.149900
    18  H    0.152626
    19  H    0.161173
    20  H    0.151217
    21  C   -0.170919
    22  C   -0.218510
    23  C   -0.170897
    24  C    0.159894
    25  C   -0.176246
    26  C   -0.219134
    27  H    0.225627
    28  H    0.223458
    29  H    0.275567
    30  H    0.280322
    31  H    0.224551
    32  N    0.487911
    33  O   -0.460401
    34  O   -0.460466
 Sum of Mulliken charges =  -0.00000

 Dipole moment (field-independent basis, Debye):
    X=              0.7899    Y=             -5.0735    Z=             -0.3368  Tot=              5.1456
 Quadrupole moment (field-independent basis, Debye-Ang):
   XX=            -84.2552   YY=            -99.0144   ZZ=            -95.1289
   XY=            -16.8961   XZ=             -0.7095   YZ=              1.2249

 Normal termination of Gaussian 16 at Thu May  6 00:58:24 2021.
