 Gaussian 16, Revision A.03,
 Gaussian 16:  EM64L-G16RevA.03 25-Dec-2016

 -------------
 #p 6-31g* mp2
 -------------

 ------------------------------------------------------
 Input file generated by CHIRIPA (05-May-2021 14:53:18)
 ------------------------------------------------------
 Symbolic Z-matrix:
 Charge =  0 Multiplicity = 1

                         Standard orientation:
 ---------------------------------------------------------------------
 Center     Atomic      Atomic             Coordinates (Angstroms)
 Number     Number       Type             X           Y           Z
 ---------------------------------------------------------------------
      1          6           0        2.972997    0.760949    0.440747
      2          6           0        2.674027    2.239423    0.190311
      3          6           0        1.677558    2.819399    1.194539
      4          1           0        2.034478    0.191413    0.398840
      5          1           0        3.366149    0.641037    1.459789
      6          1           0        2.282855    2.356692   -0.828437
      7          1           0        3.613392    2.805478    0.232630
      8          1           0        2.063915    2.731633    2.215139
      9          1           0        0.725819    2.280296    1.148044
     10          1           0        1.478236    3.877286    0.997040
     11          6           0        3.967531    0.166843   -0.555078
     12          6           0        4.266501   -1.311630   -0.304643
     13          6           0        5.262969   -1.891606   -1.308870
     14          1           0        3.574379    0.286756   -1.574121
     15          1           0        4.906050    0.736379   -0.513171
     16          1           0        3.327136   -1.877686   -0.346961
     17          1           0        4.657672   -1.428899    0.714106
     18          1           0        6.214708   -1.352503   -1.262375
     19          1           0        4.876612   -1.803840   -2.329471
     20          1           0        5.462292   -2.949493   -1.111371
     21          6           0       -1.388306   -2.096353    1.313321
     22          6           0       -2.583486   -2.452883    0.680114
     23          6           0       -3.324657   -1.500436   -0.025618
     24          6           0       -2.839031   -0.194789   -0.077988
     25          6           0       -1.651897    0.191346    0.542418
     26          6           0       -0.927138   -0.777701    1.242576
     27          1           0       -0.818920   -2.842683    1.859386
     28          1           0       -2.944053   -3.476210    0.733379
     29          1           0       -4.253150   -1.749172   -0.525067
     30          1           0       -1.317955    1.219399    0.471666
     31          1           0        0.000717   -0.497956    1.733365
     32          7           0       -3.614988    0.822311   -0.822166
     33          8           0       -3.165630    1.965875   -0.853400
     34          8           0       -4.657848    0.456690   -1.360127
 ---------------------------------------------------------------------

 SCF Done:  E(RHF) =  -669.535241139     A.U. after   15 cycles
 E2 =    -0.2092391823D+01 EUMP2 =    -0.67162763296207D+03

 The electronic state is 1-A.
 Alpha  occ. eigenvalues --  -20.60764 -20.60758 -15.85815 -11.31182 -11.27759
 Alpha  occ. eigenvalues --  -11.27743 -11.27493 -11.26771 -11.26727 -11.22174
 Alpha  occ. eigenvalues --  -11.22142 -11.22087 -11.21902 -11.21796 -11.21493
 Alpha  occ. eigenvalues --   -1.59838  -1.39391  -1.19358  -1.09031  -1.08749
 Alpha  occ. eigenvalues --   -1.04767  -1.04101  -0.96563  -0.95586  -0.87579
 Alpha  occ. eigenvalues --   -0.86156  -0.82425  -0.80168  -0.78875  -0.77458
 Alpha  occ. eigenvalues --   -0.72035  -0.71161  -0.70476  -0.65680  -0.65007
 Alpha  occ. eigenvalues --   -0.64764  -0.62220  -0.61402  -0.59911  -0.58172
 Alpha  occ. eigenvalues --   -0.55886  -0.55253  -0.53233  -0.53128  -0.53058
 Alpha  occ. eigenvalues --   -0.52741  -0.50494  -0.48798  -0.48788  -0.48476
 Alpha  occ. eigenvalues --   -0.47191  -0.46389  -0.46298  -0.44797  -0.44354
 Alpha  occ. eigenvalues --   -0.37335  -0.36353
 Alpha virt. eigenvalues --    0.05053   0.11239   0.16440   0.19489   0.22710
 Alpha virt. eigenvalues --    0.23644   0.25414   0.26295   0.26557   0.28230
 Alpha virt. eigenvalues --    0.29148   0.29909   0.31278   0.31430   0.31748

 Mulliken charges:
               1
     1  C   -0.304140
     2  C   -0.300741
     3  C   -0.479309
     4  H    0.145939
     5  H    0.148193
     6  H    0.157488
     7  H    0.155553
     8  H    0.155966
     9  H    0.145903
    10  H    0.169084
    11  C   -0.298213
    12  C   -0.300117
    13  C   -0.476016
    14  H    0.153037
    15  H    0.152085
    16  H    0.149637
    17  H    0.150906
    18  H    0.156632
    19  H    0.157137
    20  H    0.160458
    21  C   -0.171618
    22  C   -0.218834
    23  C   -0.170324
    24  C    0.161142
    25  C   -0.181340
    26  C   -0.222900
    27  H    0.226003
    28  H    0.223510
    29  H    0.275633
    30  H    0.283418
    31  H    0.228514
    32  N    0.488058
    33  O   -0.460253
    34  O   -0.460493
 Sum of Mulliken charges =  -0.00000

 Dipole moment (field-independent basis, Debye):
    X=              2.8752    Y=             -3.5023    Z=              2.5465  Tot=              5.1979
 Quadrupole moment (field-independent basis, Debye-Ang):
   XX=           -107.7124   YY=            -91.0398   ZZ=            -95.6989
   XY=             13.3635   XZ=             -6.0685   YZ=              0.4147

 Normal termination of Gaussian 16 at Thu May  6 06:03:25 2021.
