 Gaussian 16, Revision A.03,
 Gaussian 16:  EM64L-G16RevA.03 25-Dec-2016

 -------------
 #p 6-31g* mp2
 -------------

 ------------------------------------------------------
 Input file generated by CHIRIPA (05-May-2021 14:57:24)
 ------------------------------------------------------
 Symbolic Z-matrix:
 Charge =  0 Multiplicity = 1

                         Standard orientation:
 ---------------------------------------------------------------------
 Center     Atomic      Atomic             Coordinates (Angstroms)
 Number     Number       Type             X           Y           Z
 ---------------------------------------------------------------------
      1          6           0        1.577704    1.498976   -0.865288
      2          6           0        1.494943    0.140334   -1.187412
      3          6           0        2.516486   -0.740195   -0.819082
      4          6           0        3.611312   -0.225727   -0.126285
      5          6           0        3.722775    1.122732    0.209163
      6          6           0        2.689396    1.984982   -0.169256
      7          1           0        0.779548    2.175892   -1.155335
      8          1           0        0.632771   -0.239902   -1.727897
      9          1           0        2.478009   -1.796590   -1.055658
     10          1           0        4.594686    1.472291    0.748604
     11          1           0        2.756352    3.039641    0.082251
     12          7           0        4.699039   -1.148228    0.268990
     13          8           0        5.653067   -0.670093    0.878788
     14          8           0        4.576975   -2.331952   -0.038476
     15          6           0       -1.685541    1.827288    0.681885
     16          6           0       -2.176659    1.020670    1.713724
     17          6           0       -3.144434    0.045854    1.453543
     18          6           0       -3.600887   -0.095843    0.144016
     19          6           0       -3.131161    0.692400   -0.905422
     20          6           0       -2.163516    1.660871   -0.622096
     21          1           0       -0.933800    2.582083    0.892989
     22          1           0       -1.807285    1.147681    2.727369
     23          1           0       -3.541927   -0.592199    2.233483
     24          1           0       -3.518636    0.542296   -1.905797
     25          1           0       -1.783919    2.285877   -1.425413
     26          7           0       -4.625359   -1.124479   -0.143678
     27          8           0       -5.011229   -1.229481   -1.305880
     28          8           0       -5.023070   -1.806244    0.798479
 ---------------------------------------------------------------------

 SCF Done:  E(RHF) =  -868.335775663     A.U. after   16 cycles
 E2 =    -0.2601918385D+01 EUMP2 =    -0.87093769404755D+03

 The electronic state is 1-A.
 Alpha  occ. eigenvalues --  -20.61405 -20.61394 -20.61187 -20.61176 -15.86466
 Alpha  occ. eigenvalues --  -15.86241 -11.31996 -11.31735 -11.28673 -11.28561
 Alpha  occ. eigenvalues --  -11.28438 -11.28333 -11.28266 -11.28177 -11.27779
 Alpha  occ. eigenvalues --  -11.27570 -11.27441 -11.27324  -1.60476  -1.60257
 Alpha  occ. eigenvalues --   -1.40025  -1.39807  -1.20220  -1.19929  -1.09612
 Alpha  occ. eigenvalues --   -1.09311  -1.05652  -1.05337  -0.96415  -0.96115
 Alpha  occ. eigenvalues --   -0.87064  -0.86738  -0.83218  -0.82951  -0.78226
 Alpha  occ. eigenvalues --   -0.77952  -0.72684  -0.72457  -0.71806  -0.71583
 Alpha  occ. eigenvalues --   -0.71557  -0.70942  -0.65879  -0.65708  -0.65581
 Alpha  occ. eigenvalues --   -0.65314  -0.62990  -0.62669  -0.56240  -0.55905
 Alpha  occ. eigenvalues --   -0.54060  -0.53739  -0.53563  -0.53418  -0.49453
 Alpha  occ. eigenvalues --   -0.49422  -0.49227  -0.49203  -0.45393  -0.45183
 Alpha  occ. eigenvalues --   -0.38572  -0.37601  -0.37253  -0.36893
 Alpha virt. eigenvalues --    0.04132   0.04731   0.10208   0.10738   0.15481
 Alpha virt. eigenvalues --    0.16236   0.18596   0.22033   0.25083   0.26129
 Alpha virt. eigenvalues --    0.27490   0.29368   0.29491   0.30752   0.32242

 Mulliken charges:
               1
     1  C   -0.170567
     2  C   -0.216096
     3  C   -0.170904
     4  C    0.159034
     5  C   -0.170513
     6  C   -0.221968
     7  H    0.215305
     8  H    0.226351
     9  H    0.278724
    10  H    0.276778
    11  H    0.221443
    12  N    0.487847
    13  O   -0.459665
    14  O   -0.457959
    15  C   -0.165144
    16  C   -0.218138
    17  C   -0.168883
    18  C    0.158569
    19  C   -0.172488
    20  C   -0.227257
    21  H    0.222461
    22  H    0.227677
    23  H    0.279363
    24  H    0.277189
    25  H    0.217548
    26  N    0.487972
    27  O   -0.459487
    28  O   -0.457191
 Sum of Mulliken charges =  -0.00000

 Dipole moment (field-independent basis, Debye):
    X=             -0.3115    Y=              6.6135    Z=             -0.2140  Tot=              6.6243
 Quadrupole moment (field-independent basis, Debye-Ang):
   XX=           -157.6711   YY=           -105.0218   ZZ=            -99.1446
   XY=              1.3382   XZ=             -6.8749   YZ=              0.9619

 Normal termination of Gaussian 16 at Fri May  7 12:35:59 2021.
