 Gaussian 16, Revision A.03,
 Gaussian 16:  EM64L-G16RevA.03 25-Dec-2016

 -------------
 #p 6-31g* mp2
 -------------

 ------------------------------------------------------
 Input file generated by CHIRIPA (05-May-2021 14:51:11)
 ------------------------------------------------------
 Symbolic Z-matrix:
 Charge =  0 Multiplicity = 1

                         Standard orientation:
 ---------------------------------------------------------------------
 Center     Atomic      Atomic             Coordinates (Angstroms)
 Number     Number       Type             X           Y           Z
 ---------------------------------------------------------------------
      1          6           0       -2.488656   -1.468857   -0.177180
      2          6           0       -0.973127   -1.351654   -0.342770
      3          6           0       -0.302690   -2.697912   -0.618266
      4          1           0       -2.708659   -2.164542    0.644140
      5          1           0       -2.916555   -1.913371   -1.086414
      6          1           0       -0.548373   -0.906217    0.565958
      7          1           0       -0.756704   -0.656019   -1.163666
      8          1           0       -0.698852   -3.144970   -1.535760
      9          1           0       -0.489337   -3.396589    0.203691
     10          1           0        0.780450   -2.590932   -0.733254
     11          6           0       -3.173163   -0.131307    0.098750
     12          6           0       -4.688692   -0.248511    0.264340
     13          6           0       -5.359129    1.097747    0.539835
     14          1           0       -2.745264    0.313206    1.007983
     15          1           0       -2.953160    0.564377   -0.722570
     16          1           0       -4.905115   -0.944145    1.085236
     17          1           0       -5.113446   -0.693948   -0.644388
     18          1           0       -5.172483    1.796424   -0.282122
     19          1           0       -4.962967    1.544805    1.457330
     20          1           0       -6.442270    0.990767    0.654823
     21          6           0        2.098822    1.002298    0.120386
     22          6           0        1.769223    2.354021   -0.513803
     23          6           0        0.300900    2.744774   -0.343116
     24          1           0        1.457989    0.229288   -0.325408
     25          1           0        1.849461    1.036409    1.189988
     26          1           0        2.020424    2.317819   -1.581607
     27          1           0        2.411050    3.123872   -0.066585
     28          1           0        0.040120    2.808615    0.718260
     29          1           0       -0.352724    1.997983   -0.805370
     30          1           0        0.087296    3.714283   -0.803860
     31          6           0        3.562997    0.597867   -0.041955
     32          6           0        3.892596   -0.753856    0.592234
     33          6           0        5.360920   -1.144609    0.421546
     34          1           0        3.812359    0.563757   -1.111558
     35          1           0        4.203831    1.370877    0.403839
     36          1           0        3.250769   -1.523707    0.145015
     37          1           0        3.641395   -0.717654    1.660037
     38          1           0        6.014543   -0.397818    0.883800
     39          1           0        5.621699   -1.208450   -0.639830
     40          1           0        5.574523   -2.114119    0.882290
 ---------------------------------------------------------------------

 SCF Done:  E(RHF) =  -470.732336609     A.U. after   11 cycles
 E2 =    -0.1584747688D+01 EUMP2 =    -0.47231708429690D+03

 The electronic state is 1-A.
 Alpha  occ. eigenvalues --  -11.21612 -11.21596 -11.21594 -11.21536 -11.21408
 Alpha  occ. eigenvalues --  -11.21347 -11.21335 -11.21225 -11.21132 -11.21060
 Alpha  occ. eigenvalues --  -11.21055 -11.20986  -1.08470  -1.08354  -1.03565
 Alpha  occ. eigenvalues --   -1.03476  -0.96013  -0.95916  -0.87020  -0.86941
 Alpha  occ. eigenvalues --   -0.79736  -0.79490  -0.78444  -0.77982  -0.65099
 Alpha  occ. eigenvalues --   -0.65007  -0.60978  -0.60861  -0.59409  -0.59273
 Alpha  occ. eigenvalues --   -0.57731  -0.57448  -0.55284  -0.55209  -0.52727
 Alpha  occ. eigenvalues --   -0.52614  -0.52442  -0.52330  -0.49935  -0.49882
 Alpha  occ. eigenvalues --   -0.48188  -0.47743  -0.46698  -0.46603  -0.46127
 Alpha  occ. eigenvalues --   -0.45780  -0.45589  -0.45099  -0.43787  -0.43729
 Alpha virt. eigenvalues --    0.20765   0.22351   0.23516   0.24142   0.25260
 Alpha virt. eigenvalues --    0.26037   0.26365   0.27456   0.29189   0.29299
 Alpha virt. eigenvalues --    0.30481   0.31052   0.31634   0.31917   0.32428

 Mulliken charges:
               1
     1  C   -0.297449
     2  C   -0.305075
     3  C   -0.480228
     4  H    0.149683
     5  H    0.149121
     6  H    0.157083
     7  H    0.151999
     8  H    0.155418
     9  H    0.156091
    10  H    0.162601
    11  C   -0.299573
    12  C   -0.299753
    13  C   -0.475628
    14  H    0.150460
    15  H    0.150698
    16  H    0.151914
    17  H    0.151784
    18  H    0.155426
    19  H    0.155316
    20  H    0.160123
    21  C   -0.308419
    22  C   -0.299062
    23  C   -0.479749
    24  H    0.164169
    25  H    0.147649
    26  H    0.150953
    27  H    0.151422
    28  H    0.154653
    29  H    0.159936
    30  H    0.159497
    31  C   -0.297303
    32  C   -0.302900
    33  C   -0.475526
    34  H    0.148889
    35  H    0.149304
    36  H    0.154019
    37  H    0.151825
    38  H    0.155302
    39  H    0.155122
    40  H    0.160207
 Sum of Mulliken charges =  -0.00000

 Dipole moment (field-independent basis, Debye):
    X=             -0.0425    Y=             -0.0271    Z=              0.0097  Tot=              0.0513
 Quadrupole moment (field-independent basis, Debye-Ang):
   XX=            -86.3409   YY=            -85.6526   ZZ=            -83.0201
   XY=              1.0222   XZ=              0.4758   YZ=              0.0534

 Normal termination of Gaussian 16 at Wed May  5 19:50:18 2021.
