 Gaussian 16, Revision A.03,
 Gaussian 16:  EM64L-G16RevA.03 25-Dec-2016

 -------------
 #p 6-31g* mp2
 -------------

 ------------------------------------------------------
 Input file generated by CHIRIPA (05-May-2021 14:53:11)
 ------------------------------------------------------
 Symbolic Z-matrix:
 Charge =  0 Multiplicity = 1

                         Standard orientation:
 ---------------------------------------------------------------------
 Center     Atomic      Atomic             Coordinates (Angstroms)
 Number     Number       Type             X           Y           Z
 ---------------------------------------------------------------------
      1          6           0        2.968806    0.971828    0.236163
      2          6           0        3.072724    2.245319   -0.603721
      3          6           0        2.799432    3.512312    0.207349
      4          1           0        1.966115    0.914690    0.681461
      5          1           0        3.679091    1.033392    1.072286
      6          1           0        2.363436    2.180768   -1.438802
      7          1           0        4.075222    2.299334   -1.047226
      8          1           0        3.514536    3.604033    1.031251
      9          1           0        1.793024    3.484793    0.637450
     10          1           0        2.879003    4.410786   -0.412548
     11          6           0        3.239394   -0.303154   -0.560664
     12          6           0        3.135475   -1.576645    0.279221
     13          6           0        3.408768   -2.843638   -0.531849
     14          1           0        2.529109   -0.364718   -1.396786
     15          1           0        4.242085   -0.246016   -1.005961
     16          1           0        2.132978   -1.630660    0.722726
     17          1           0        3.844763   -1.512094    1.114302
     18          1           0        4.415176   -2.816119   -0.961950
     19          1           0        2.693664   -2.935359   -1.355751
     20          1           0        3.329197   -3.742112    0.088048
     21          6           0       -1.000723   -2.287992    0.605558
     22          6           0       -2.088106   -2.387284   -0.268659
     23          6           0       -2.884180   -1.270825   -0.541302
     24          6           0       -2.562780   -0.065258    0.080470
     25          6           0       -1.486036    0.065492    0.956151
     26          6           0       -0.703681   -1.064079    1.214101
     27          1           0       -0.387642   -3.160378    0.811648
     28          1           0       -2.321146   -3.336511   -0.742692
     29          1           0       -3.731860   -1.319613   -1.213966
     30          1           0       -1.278535    1.025224    1.413618
     31          1           0        0.140181   -0.984024    1.893462
     32          7           0       -3.398286    1.123628   -0.200388
     33          8           0       -3.094189    2.174339    0.360118
     34          8           0       -4.341430    0.982253   -0.975713
 ---------------------------------------------------------------------

 SCF Done:  E(RHF) =  -669.535112081     A.U. after   15 cycles
 E2 =    -0.2093068360D+01 EUMP2 =    -0.67162818044073D+03

 The electronic state is 1-A.
 Alpha  occ. eigenvalues --  -20.60825 -20.60820 -15.85879 -11.31269 -11.27839
 Alpha  occ. eigenvalues --  -11.27835 -11.27569 -11.26849 -11.26829 -11.22380
 Alpha  occ. eigenvalues --  -11.21948 -11.21900 -11.21849 -11.21845 -11.21235
 Alpha  occ. eigenvalues --   -1.59900  -1.39453  -1.19444  -1.08978  -1.08821
 Alpha  occ. eigenvalues --   -1.04850  -1.04040  -0.96475  -0.95661  -0.87495
 Alpha  occ. eigenvalues --   -0.86250  -0.82493  -0.80135  -0.78787  -0.77532
 Alpha  occ. eigenvalues --   -0.72097  -0.71224  -0.70542  -0.65683  -0.65095
 Alpha  occ. eigenvalues --   -0.64802  -0.62204  -0.61414  -0.59873  -0.58089
 Alpha  occ. eigenvalues --   -0.55759  -0.55326  -0.53228  -0.53137  -0.52950
 Alpha  occ. eigenvalues --   -0.52886  -0.50421  -0.48866  -0.48851  -0.48428
 Alpha  occ. eigenvalues --   -0.47158  -0.46309  -0.46201  -0.44853  -0.44291
 Alpha  occ. eigenvalues --   -0.37395  -0.36420
 Alpha virt. eigenvalues --    0.04959   0.11057   0.16341   0.19934   0.22940
 Alpha virt. eigenvalues --    0.23272   0.25142   0.26506   0.26999   0.27881
 Alpha virt. eigenvalues --    0.29856   0.30640   0.31168   0.31348   0.31460

 Mulliken charges:
               1
     1  C   -0.299473
     2  C   -0.300506
     3  C   -0.476133
     4  H    0.143559
     5  H    0.149403
     6  H    0.155285
     7  H    0.152819
     8  H    0.154273
     9  H    0.156372
    10  H    0.163587
    11  C   -0.297595
    12  C   -0.303694
    13  C   -0.476860
    14  H    0.152964
    15  H    0.152128
    16  H    0.144572
    17  H    0.152939
    18  H    0.159642
    19  H    0.155907
    20  H    0.156854
    21  C   -0.171018
    22  C   -0.218979
    23  C   -0.170764
    24  C    0.158224
    25  C   -0.172840
    26  C   -0.218054
    27  H    0.227412
    28  H    0.223992
    29  H    0.275969
    30  H    0.275828
    31  H    0.226457
    32  N    0.488088
    33  O   -0.460226
    34  O   -0.460132
 Sum of Mulliken charges =  -0.00000

 Dipole moment (field-independent basis, Debye):
    X=              2.9663    Y=             -4.1226    Z=              0.8887  Tot=              5.1560
 Quadrupole moment (field-independent basis, Debye-Ang):
   XX=           -107.5002   YY=            -93.9640   ZZ=            -93.3934
   XY=             12.8882   XZ=             -0.2502   YZ=              1.0970

 Normal termination of Gaussian 16 at Wed May  5 20:04:26 2021.
