 Gaussian 16, Revision A.03,
 Gaussian 16:  EM64L-G16RevA.03 25-Dec-2016

 -------------
 #p 6-31g* mp2
 -------------

 ------------------------------------------------------
 Input file generated by CHIRIPA (05-May-2021 14:57:22)
 ------------------------------------------------------
 Symbolic Z-matrix:
 Charge =  0 Multiplicity = 1

                         Standard orientation:
 ---------------------------------------------------------------------
 Center     Atomic      Atomic             Coordinates (Angstroms)
 Number     Number       Type             X           Y           Z
 ---------------------------------------------------------------------
      1          6           0       -2.835039   -2.295293   -0.093984
      2          6           0       -2.115982   -1.250393   -0.683613
      3          6           0       -2.594316    0.061999   -0.625545
      4          6           0       -3.800677    0.294624    0.033142
      5          6           0       -4.540098   -0.725122    0.630357
      6          6           0       -4.042672   -2.029791    0.559966
      7          1           0       -2.456042   -3.311791   -0.143879
      8          1           0       -1.177825   -1.453635   -1.192139
      9          1           0       -2.057947    0.889733   -1.073410
     10          1           0       -5.472214   -0.491430    1.130322
     11          1           0       -4.603229   -2.839303    1.018782
     12          7           0       -4.317173    1.679907    0.101139
     13          8           0       -5.382583    1.858601    0.687318
     14          8           0       -3.646812    2.560767   -0.433032
     15          6           0        5.117852    1.987536    0.403720
     16          6           0        4.227392    1.959070   -0.674608
     17          6           0        3.445430    0.826427   -0.919973
     18          6           0        3.579983   -0.264871   -0.063086
     19          6           0        4.458182   -0.267004    1.019527
     20          6           0        5.230207    0.876368    1.245861
     21          1           0        5.721440    2.871567    0.586933
     22          1           0        4.138045    2.820557   -1.330277
     23          1           0        2.748134    0.777482   -1.747500
     24          1           0        4.525212   -1.141162    1.655743
     25          1           0        5.920918    0.895656    2.084068
     26          7           0        2.757415   -1.469628   -0.312770
     27          8           0        2.894560   -2.418073    0.456827
     28          8           0        1.991115   -1.442659   -1.273340
 ---------------------------------------------------------------------

 SCF Done:  E(RHF) =  -868.340442472     A.U. after   16 cycles
 E2 =    -0.2598136228D+01 EUMP2 =    -0.87093857870010D+03

 The electronic state is 1-A.
 Alpha  occ. eigenvalues --  -20.61626 -20.61576 -20.60309 -20.60302 -15.86626
 Alpha  occ. eigenvalues --  -15.85351 -11.31695 -11.30515 -11.28235 -11.28218
 Alpha  occ. eigenvalues --  -11.27901 -11.27169 -11.27158 -11.27066 -11.26994
 Alpha  occ. eigenvalues --  -11.26649 -11.26046 -11.25795  -1.60661  -1.59387
 Alpha  occ. eigenvalues --   -1.40225  -1.38946  -1.19836  -1.18636  -1.09284
 Alpha  occ. eigenvalues --   -1.08053  -1.05194  -1.03993  -0.96170  -0.94936
 Alpha  occ. eigenvalues --   -0.86606  -0.85386  -0.83016  -0.81767  -0.78097
 Alpha  occ. eigenvalues --   -0.76854  -0.72862  -0.71958  -0.71575  -0.70940
 Alpha  occ. eigenvalues --   -0.70706  -0.69722  -0.65493  -0.65191  -0.64271
 Alpha  occ. eigenvalues --   -0.63938  -0.62548  -0.61329  -0.55699  -0.54458
 Alpha  occ. eigenvalues --   -0.53536  -0.53282  -0.52354  -0.52043  -0.49628
 Alpha  occ. eigenvalues --   -0.49585  -0.48343  -0.48307  -0.45688  -0.44398
 Alpha  occ. eigenvalues --   -0.37792  -0.36782  -0.36591  -0.35601
 Alpha virt. eigenvalues --    0.04390   0.05643   0.10877   0.12058   0.15930
 Alpha virt. eigenvalues --    0.17214   0.21027   0.22369   0.26966   0.27704
 Alpha virt. eigenvalues --    0.28457   0.29118   0.30653   0.31832   0.32288

 Mulliken charges:
               1
     1  C   -0.171853
     2  C   -0.226001
     3  C   -0.174131
     4  C    0.158243
     5  C   -0.173089
     6  C   -0.218714
     7  H    0.229517
     8  H    0.245458
     9  H    0.271586
    10  H    0.272700
    11  H    0.221197
    12  N    0.488245
    13  O   -0.462380
    14  O   -0.463688
    15  C   -0.169550
    16  C   -0.217933
    17  C   -0.170577
    18  C    0.157959
    19  C   -0.170323
    20  C   -0.218345
    21  H    0.228195
    22  H    0.226263
    23  H    0.273797
    24  H    0.275914
    25  H    0.225295
    26  N    0.490175
    27  O   -0.457588
    28  O   -0.470372
 Sum of Mulliken charges =  -0.00000

 Dipole moment (field-independent basis, Debye):
    X=              5.1675    Y=             -0.6996    Z=              0.6580  Tot=              5.2560
 Quadrupole moment (field-independent basis, Debye-Ang):
   XX=            -94.8655   YY=           -109.2331   ZZ=           -101.4263
   XY=             34.9814   XZ=              3.9363   YZ=             -3.7350

 Normal termination of Gaussian 16 at Thu May  6 11:14:28 2021.
