 Gaussian 16, Revision A.03,
 Gaussian 16:  EM64L-G16RevA.03 25-Dec-2016

 -------------
 #p 6-31g* mp2
 -------------

 ------------------------------------------------------
 Input file generated by CHIRIPA (05-May-2021 14:53:13)
 ------------------------------------------------------
 Symbolic Z-matrix:
 Charge =  0 Multiplicity = 1

                         Standard orientation:
 ---------------------------------------------------------------------
 Center     Atomic      Atomic             Coordinates (Angstroms)
 Number     Number       Type             X           Y           Z
 ---------------------------------------------------------------------
      1          6           0        3.803748   -0.683746   -0.150826
      2          6           0        3.111015   -1.638452   -1.123782
      3          6           0        3.517576   -3.096970   -0.911113
      4          1           0        4.892186   -0.782514   -0.262591
      5          1           0        3.566659   -0.985034    0.878936
      6          1           0        3.348217   -1.334621   -2.151418
      7          1           0        2.024097   -1.537261   -1.009822
      8          1           0        3.265613   -3.423163    0.103142
      9          1           0        4.597256   -3.219371   -1.044941
     10          1           0        3.010645   -3.762087   -1.617157
     11          6           0        3.407504    0.777988   -0.350956
     12          6           0        4.100236    1.732693    0.622000
     13          6           0        3.693675    3.191211    0.409331
     14          1           0        3.644593    1.079275   -1.380718
     15          1           0        2.319065    0.876756   -0.239191
     16          1           0        5.187154    1.631502    0.508040
     17          1           0        3.863034    1.428862    1.649637
     18          1           0        2.613995    3.313612    0.543159
     19          1           0        3.945638    3.517404   -0.604924
     20          1           0        4.200606    3.856329    1.115376
     21          6           0       -0.939521   -1.074008    1.524773
     22          6           0       -0.738125    0.138889    0.857808
     23          6           0       -1.771193    0.722750    0.118603
     24          6           0       -2.998393    0.063459    0.067548
     25          6           0       -3.230011   -1.145861    0.721143
     26          6           0       -2.182629   -1.711389    1.454435
     27          1           0       -0.131448   -1.520444    2.096708
     28          1           0        0.226241    0.636130    0.910673
     29          1           0       -1.642601    1.660957   -0.407372
     30          1           0       -4.202392   -1.617899    0.649905
     31          1           0       -2.341899   -2.653422    1.971400
     32          7           0       -4.099632    0.671862   -0.711885
     33          8           0       -5.171466    0.071070   -0.741211
     34          8           0       -3.870100    1.738001   -1.278719
 ---------------------------------------------------------------------

 SCF Done:  E(RHF) =  -669.535544768     A.U. after   15 cycles
 E2 =    -0.2091641494D+01 EUMP2 =    -0.67162718626192D+03

 The electronic state is 1-A.
 Alpha  occ. eigenvalues --  -20.60781 -20.60776 -15.85835 -11.31218 -11.27794
 Alpha  occ. eigenvalues --  -11.27791 -11.27550 -11.26809 -11.26798 -11.22406
 Alpha  occ. eigenvalues --  -11.22305 -11.22279 -11.22189 -11.21782 -11.21704
 Alpha  occ. eigenvalues --   -1.59856  -1.39409  -1.19397  -1.09250  -1.08788
 Alpha  occ. eigenvalues --   -1.04803  -1.04267  -0.96722  -0.95619  -0.87732
 Alpha  occ. eigenvalues --   -0.86202  -0.82452  -0.80323  -0.79068  -0.77493
 Alpha  occ. eigenvalues --   -0.72053  -0.71179  -0.70504  -0.65977  -0.65049
 Alpha  occ. eigenvalues --   -0.64759  -0.62157  -0.61663  -0.60079  -0.58322
 Alpha  occ. eigenvalues --   -0.56036  -0.55301  -0.53378  -0.53160  -0.53125
 Alpha  occ. eigenvalues --   -0.52883  -0.50669  -0.48819  -0.48806  -0.48631
 Alpha  occ. eigenvalues --   -0.47370  -0.46579  -0.46532  -0.44810  -0.44545
 Alpha  occ. eigenvalues --   -0.37374  -0.36397
 Alpha virt. eigenvalues --    0.05040   0.11138   0.16491   0.18794   0.23091
 Alpha virt. eigenvalues --    0.23117   0.25202   0.26257   0.27212   0.28288
 Alpha virt. eigenvalues --    0.29373   0.30074   0.31131   0.31400   0.31970

 Mulliken charges:
               1
     1  C   -0.297966
     2  C   -0.302246
     3  C   -0.475432
     4  H    0.153630
     5  H    0.143821
     6  H    0.155535
     7  H    0.151983
     8  H    0.151551
     9  H    0.157272
    10  H    0.163204
    11  C   -0.302720
    12  C   -0.300605
    13  C   -0.475076
    14  H    0.155337
    15  H    0.142425
    16  H    0.155897
    17  H    0.149217
    18  H    0.150553
    19  H    0.158750
    20  H    0.163580
    21  C   -0.172424
    22  C   -0.223653
    23  C   -0.172324
    24  C    0.158659
    25  C   -0.170728
    26  C   -0.218502
    27  H    0.225949
    28  H    0.231300
    29  H    0.275992
    30  H    0.275832
    31  H    0.223649
    32  N    0.488104
    33  O   -0.460387
    34  O   -0.460177
 Sum of Mulliken charges =  -0.00000

 Dipole moment (field-independent basis, Debye):
    X=              4.0189    Y=             -2.1393    Z=              2.6629  Tot=              5.2744
 Quadrupole moment (field-independent basis, Debye-Ang):
   XX=           -115.3091   YY=            -93.3382   ZZ=            -94.3164
   XY=              9.8551   XZ=             -9.7076   YZ=             -1.1164

 Normal termination of Gaussian 16 at Thu May  6 20:16:15 2021.
