 Gaussian 16, Revision A.03,
 Gaussian 16:  EM64L-G16RevA.03 25-Dec-2016

 -------------
 #p 6-31g* mp2
 -------------

 ------------------------------------------------------
 Input file generated by CHIRIPA (05-May-2021 14:51:07)
 ------------------------------------------------------
 Symbolic Z-matrix:
 Charge =  0 Multiplicity = 1

                         Standard orientation:
 ---------------------------------------------------------------------
 Center     Atomic      Atomic             Coordinates (Angstroms)
 Number     Number       Type             X           Y           Z
 ---------------------------------------------------------------------
      1          6           0       -3.171930   -0.484690    0.446775
      2          6           0       -1.984109   -0.988877   -0.373506
      3          6           0       -0.688443   -1.046614    0.436253
      4          1           0       -2.939520    0.514013    0.841139
      5          1           0       -3.311661   -1.139924    1.317717
      6          1           0       -1.847521   -0.333696   -1.243390
      7          1           0       -2.219450   -1.986416   -0.766122
      8          1           0       -0.800686   -1.715657    1.295546
      9          1           0       -0.426643   -0.053547    0.815566
     10          1           0        0.147698   -1.409699   -0.169469
     11          6           0       -4.474426   -0.421371   -0.348977
     12          6           0       -5.662247    0.082816    0.471305
     13          6           0       -6.957913    0.140553   -0.338454
     14          1           0       -4.334696    0.233862   -1.219919
     15          1           0       -4.706837   -1.420074   -0.743340
     16          1           0       -5.426906    1.080355    0.863920
     17          1           0       -5.798835   -0.572365    1.341188
     18          1           0       -7.219713   -0.852515   -0.717768
     19          1           0       -6.845671    0.809596   -1.197747
     20          1           0       -7.794054    0.503638    0.267267
     21          6           0        4.052530   -0.231547   -0.298264
     22          6           0        5.366247   -0.697041    0.330582
     23          6           0        5.812015   -2.068227   -0.178276
     24          1           0        3.270092   -0.973899   -0.089339
     25          1           0        4.168376   -0.198459   -1.390455
     26          1           0        5.248386   -0.727914    1.421348
     27          1           0        6.145603    0.046599    0.120298
     28          1           0        5.957279   -2.047943   -1.263214
     29          1           0        5.054964   -2.826856    0.045229
     30          1           0        6.753171   -2.381565    0.284224
     31          6           0        3.593826    1.137609    0.200466
     32          6           0        2.280110    1.603102   -0.428379
     33          6           0        1.834341    2.974288    0.080478
     34          1           0        3.477981    1.104520    1.292656
     35          1           0        4.376264    1.879961   -0.008459
     36          1           0        1.500753    0.859462   -0.218096
     37          1           0        2.397970    1.633975   -1.519146
     38          1           0        2.591392    3.732917   -0.143027
     39          1           0        1.689078    2.954004    1.165415
     40          1           0        0.893187    3.287626   -0.382023
 ---------------------------------------------------------------------

 SCF Done:  E(RHF) =  -470.732894672     A.U. after   11 cycles
 E2 =    -0.1582978176D+01 EUMP2 =    -0.47231587284814D+03

 The electronic state is 1-A.
 Alpha  occ. eigenvalues --  -11.21655 -11.21621 -11.21566 -11.21449 -11.21438
 Alpha  occ. eigenvalues --  -11.21377 -11.21351 -11.21286 -11.21147 -11.21086
 Alpha  occ. eigenvalues --  -11.21045 -11.21040  -1.08468  -1.08370  -1.03584
 Alpha  occ. eigenvalues --   -1.03468  -0.96034  -0.95934  -0.87063  -0.86942
 Alpha  occ. eigenvalues --   -0.79684  -0.79502  -0.78284  -0.78176  -0.65144
 Alpha  occ. eigenvalues --   -0.64974  -0.61120  -0.60759  -0.59417  -0.59280
 Alpha  occ. eigenvalues --   -0.57638  -0.57545  -0.55385  -0.55165  -0.52766
 Alpha  occ. eigenvalues --   -0.52610  -0.52450  -0.52357  -0.50083  -0.49805
 Alpha  occ. eigenvalues --   -0.47965  -0.47839  -0.46810  -0.46425  -0.45844
 Alpha  occ. eigenvalues --   -0.45764  -0.45701  -0.45542  -0.43799  -0.43723
 Alpha virt. eigenvalues --    0.21458   0.23037   0.23794   0.24486   0.25984
 Alpha virt. eigenvalues --    0.26629   0.27022   0.27480   0.27814   0.29149
 Alpha virt. eigenvalues --    0.31080   0.31625   0.31671   0.31756   0.32035

 Mulliken charges:
               1
     1  C   -0.298783
     2  C   -0.300099
     3  C   -0.481280
     4  H    0.150116
     5  H    0.149590
     6  H    0.152822
     7  H    0.152352
     8  H    0.155731
     9  H    0.158326
    10  H    0.162288
    11  C   -0.298348
    12  C   -0.299702
    13  C   -0.475733
    14  H    0.149659
    15  H    0.149732
    16  H    0.152040
    17  H    0.151945
    18  H    0.155204
    19  H    0.155242
    20  H    0.160334
    21  C   -0.299787
    22  C   -0.299575
    23  C   -0.475712
    24  H    0.150785
    25  H    0.149238
    26  H    0.152007
    27  H    0.151904
    28  H    0.155044
    29  H    0.155135
    30  H    0.160149
    31  C   -0.297293
    32  C   -0.310259
    33  C   -0.475628
    34  H    0.149213
    35  H    0.149163
    36  H    0.164463
    37  H    0.150805
    38  H    0.155212
    39  H    0.154539
    40  H    0.159162
 Sum of Mulliken charges =  -0.00000

 Dipole moment (field-independent basis, Debye):
    X=             -0.0508    Y=             -0.0322    Z=              0.0068  Tot=              0.0605
 Quadrupole moment (field-independent basis, Debye-Ang):
   XX=            -85.8103   YY=            -84.7228   ZZ=            -84.4341
   XY=              0.9401   XZ=             -0.7622   YZ=             -0.8287

 Normal termination of Gaussian 16 at Thu May  6 06:50:17 2021.
