 Gaussian 16, Revision A.03,
 Gaussian 16:  EM64L-G16RevA.03 25-Dec-2016

 -------------
 #p 6-31g* mp2
 -------------

 ------------------------------------------------------
 Input file generated by CHIRIPA (05-May-2021 14:55:25)
 ------------------------------------------------------
 Symbolic Z-matrix:
 Charge =  0 Multiplicity = 1

                         Standard orientation:
 ---------------------------------------------------------------------
 Center     Atomic      Atomic             Coordinates (Angstroms)
 Number     Number       Type             X           Y           Z
 ---------------------------------------------------------------------
      1          6           0        0.157866   -2.453578    0.366061
      2          6           0        0.968256   -2.028866    1.424083
      3          6           0        1.966248   -1.072514    1.214441
      4          6           0        2.127025   -0.559646   -0.071796
      5          6           0        1.335603   -0.962600   -1.146305
      6          6           0        0.343798   -1.920030   -0.913500
      7          1           0       -0.614995   -3.196915    0.537913
      8          1           0        0.826121   -2.441496    2.418859
      9          1           0        2.607733   -0.725895    2.015547
     10          1           0        1.501139   -0.533028   -2.126858
     11          1           0       -0.284082   -2.247999   -1.737058
     12          7           0        3.180280    0.453372   -0.305995
     13          8           0        3.301789    0.889809   -1.448534
     14          8           0        3.864368    0.791757    0.657413
     15          6           0       -2.524100    0.166863    0.022165
     16          6           0       -3.925273   -0.389708   -0.232641
     17          6           0       -3.956459   -1.917904   -0.270523
     18          1           0       -1.844381   -0.195874   -0.761000
     19          1           0       -2.146046   -0.232214    0.973589
     20          1           0       -4.301127    0.011392   -1.182625
     21          1           0       -4.601778   -0.025448    0.551114
     22          1           0       -3.606509   -2.334035    0.679726
     23          1           0       -3.304150   -2.296986   -1.063865
     24          1           0       -4.967644   -2.294396   -0.453873
     25          6           0       -2.476697    1.693241    0.062820
     26          6           0       -1.075524    2.249812    0.317626
     27          6           0       -1.044337    3.778009    0.355507
     28          1           0       -2.854752    2.092319   -0.888603
     29          1           0       -3.156416    2.055978    0.845985
     30          1           0       -0.399019    1.885553   -0.466129
     31          1           0       -0.699669    1.848713    1.267610
     32          1           0       -1.696647    4.157090    1.148849
     33          1           0       -1.394288    4.194139   -0.594741
     34          1           0       -0.033152    4.154501    0.538859
 ---------------------------------------------------------------------

 SCF Done:  E(RHF) =  -669.534139582     A.U. after   15 cycles
 E2 =    -0.2095183364D+01 EUMP2 =    -0.67162932294591D+03

 The electronic state is 1-A.
 Alpha  occ. eigenvalues --  -20.60790 -20.60785 -15.85844 -11.31217 -11.27782
 Alpha  occ. eigenvalues --  -11.27771 -11.27480 -11.26799 -11.26768 -11.22121
 Alpha  occ. eigenvalues --  -11.21961 -11.21621 -11.21592 -11.21508 -11.20927
 Alpha  occ. eigenvalues --   -1.59864  -1.39418  -1.19387  -1.08815  -1.08665
 Alpha  occ. eigenvalues --   -1.04802  -1.03829  -0.96287  -0.95609  -0.87314
 Alpha  occ. eigenvalues --   -0.86198  -0.82449  -0.79910  -0.78492  -0.77495
 Alpha  occ. eigenvalues --   -0.72062  -0.71184  -0.70478  -0.65375  -0.65039
 Alpha  occ. eigenvalues --   -0.64793  -0.62151  -0.61234  -0.59685  -0.57893
 Alpha  occ. eigenvalues --   -0.55610  -0.55275  -0.53332  -0.52895  -0.52886
 Alpha  occ. eigenvalues --   -0.52673  -0.50266  -0.48822  -0.48816  -0.48241
 Alpha  occ. eigenvalues --   -0.46947  -0.45959  -0.45947  -0.44817  -0.44036
 Alpha  occ. eigenvalues --   -0.37257  -0.36298
 Alpha virt. eigenvalues --    0.05010   0.11117   0.16405   0.19843   0.22968
 Alpha virt. eigenvalues --    0.23988   0.25361   0.26339   0.27223   0.28056
 Alpha virt. eigenvalues --    0.29163   0.29816   0.31374   0.31669   0.32211

 Mulliken charges:
               1
     1  C   -0.165773
     2  C   -0.219846
     3  C   -0.170914
     4  C    0.161725
     5  C   -0.172128
     6  C   -0.219324
     7  H    0.227964
     8  H    0.223360
     9  H    0.275595
    10  H    0.275274
    11  H    0.223817
    12  N    0.487912
    13  O   -0.460782
    14  O   -0.460395
    15  C   -0.300189
    16  C   -0.299311
    17  C   -0.475560
    18  H    0.151424
    19  H    0.147709
    20  H    0.153200
    21  H    0.153766
    22  H    0.150539
    23  H    0.146252
    24  H    0.164159
    25  C   -0.298531
    26  C   -0.300850
    27  C   -0.476334
    28  H    0.149186
    29  H    0.149094
    30  H    0.153056
    31  H    0.151106
    32  H    0.153645
    33  H    0.155228
    34  H    0.165927
 Sum of Mulliken charges =  -0.00000

 Dipole moment (field-independent basis, Debye):
    X=             -3.6557    Y=             -3.5247    Z=              0.8476  Tot=              5.1484
 Quadrupole moment (field-independent basis, Debye-Ang):
   XX=           -111.1399   YY=            -92.5903   ZZ=            -89.3017
   XY=             -5.8400   XZ=              3.3050   YZ=             -0.6153

 Normal termination of Gaussian 16 at Wed May  5 17:39:32 2021.
