 Gaussian 16, Revision A.03,
 Gaussian 16:  EM64L-G16RevA.03 25-Dec-2016

 -------------
 #p 6-31g* mp2
 -------------

 ------------------------------------------------------
 Input file generated by CHIRIPA (05-May-2021 14:55:22)
 ------------------------------------------------------
 Symbolic Z-matrix:
 Charge =  0 Multiplicity = 1

                         Standard orientation:
 ---------------------------------------------------------------------
 Center     Atomic      Atomic             Coordinates (Angstroms)
 Number     Number       Type             X           Y           Z
 ---------------------------------------------------------------------
      1          6           0        3.299471   -1.568804    0.911778
      2          6           0        2.916558   -0.578878    1.822791
      3          6           0        2.325043    0.606542    1.376206
      4          6           0        2.130420    0.769632    0.005508
      5          6           0        2.501099   -0.198043   -0.926958
      6          6           0        3.090887   -1.375568   -0.457774
      7          1           0        3.758303   -2.486600    1.267473
      8          1           0        3.077327   -0.726225    2.886975
      9          1           0        2.019052    1.389333    2.059599
     10          1           0        2.327978   -0.022472   -1.981767
     11          1           0        3.387260   -2.142636   -1.167573
     12          7           0        1.505123    2.020404   -0.479233
     13          8           0        1.344517    2.139867   -1.691904
     14          8           0        1.187463    2.857612    0.362676
     15          6           0       -2.431000   -1.350743   -0.044999
     16          6           0       -1.165330   -1.313834   -0.902147
     17          6           0       -0.319824   -2.580120   -0.762738
     18          1           0       -2.149386   -1.491281    1.007563
     19          1           0       -3.031389   -2.226583   -0.327549
     20          1           0       -0.568177   -0.437556   -0.619019
     21          1           0       -1.449980   -1.173176   -1.952768
     22          1           0       -0.894172   -3.461988   -1.064458
     23          1           0       -0.007359   -2.722188    0.276869
     24          1           0        0.580000   -2.532444   -1.383949
     25          6           0       -3.286699   -0.091791   -0.173623
     26          6           0       -4.552370   -0.128700    0.683525
     27          6           0       -5.397875    1.137586    0.544115
     28          1           0       -2.686311    0.784048    0.108927
     29          1           0       -3.568313    0.048747   -1.226187
     30          1           0       -4.267720   -0.269358    1.734146
     31          1           0       -5.149522   -1.004979    0.400396
     32          1           0       -5.710340    1.279654   -0.495491
     33          1           0       -4.823528    2.019453    0.845836
     34          1           0       -6.297701    1.089910    1.165326
 ---------------------------------------------------------------------

 SCF Done:  E(RHF) =  -669.533820869     A.U. after   15 cycles
 E2 =    -0.2094806695D+01 EUMP2 =    -0.67162862756382D+03

 The electronic state is 1-A.
 Alpha  occ. eigenvalues --  -20.60848 -20.60833 -15.85889 -11.31234 -11.27806
 Alpha  occ. eigenvalues --  -11.27786 -11.27536 -11.26834 -11.26805 -11.21486
 Alpha  occ. eigenvalues --  -11.21331 -11.21240 -11.21130 -11.21042 -11.20731
 Alpha  occ. eigenvalues --   -1.59917  -1.39469  -1.19428  -1.08821  -1.08228
 Alpha  occ. eigenvalues --   -1.04837  -1.03359  -0.95825  -0.95648  -0.86846
 Alpha  occ. eigenvalues --   -0.86220  -0.82489  -0.79433  -0.78021  -0.77537
 Alpha  occ. eigenvalues --   -0.72107  -0.71256  -0.70521  -0.65077  -0.64867
 Alpha  occ. eigenvalues --   -0.64830  -0.62184  -0.60792  -0.59254  -0.57463
 Alpha  occ. eigenvalues --   -0.55316  -0.55182  -0.53159  -0.52919  -0.52386
 Alpha  occ. eigenvalues --   -0.52213  -0.49757  -0.48867  -0.48865  -0.47755
 Alpha  occ. eigenvalues --   -0.46492  -0.45570  -0.45490  -0.44849  -0.43629
 Alpha  occ. eigenvalues --   -0.37331  -0.36330
 Alpha virt. eigenvalues --    0.04969   0.11190   0.16389   0.21077   0.23026
 Alpha virt. eigenvalues --    0.24414   0.26580   0.26752   0.27516   0.28210
 Alpha virt. eigenvalues --    0.28565   0.30512   0.31461   0.31934   0.32520

 Mulliken charges:
               1
     1  C   -0.171076
     2  C   -0.218640
     3  C   -0.172971
     4  C    0.157649
     5  C   -0.169526
     6  C   -0.213607
     7  H    0.226030
     8  H    0.223646
     9  H    0.275580
    10  H    0.275839
    11  H    0.223739
    12  N    0.489662
    13  O   -0.459465
    14  O   -0.460744
    15  C   -0.298078
    16  C   -0.301157
    17  C   -0.471935
    18  H    0.147219
    19  H    0.148126
    20  H    0.152503
    21  H    0.154169
    22  H    0.153014
    23  H    0.153306
    24  H    0.151850
    25  C   -0.299779
    26  C   -0.299398
    27  C   -0.476057
    28  H    0.155601
    29  H    0.151298
    30  H    0.150207
    31  H    0.150136
    32  H    0.155723
    33  H    0.158514
    34  H    0.158622
 Sum of Mulliken charges =  -0.00000

 Dipole moment (field-independent basis, Debye):
    X=              2.2666    Y=             -4.3103    Z=              1.6959  Tot=              5.1568
 Quadrupole moment (field-independent basis, Debye-Ang):
   XX=            -86.3197   YY=           -102.4751   ZZ=            -89.7883
   XY=             -7.4981   XZ=              3.8282   YZ=              3.3000

 Normal termination of Gaussian 16 at Wed May  5 22:19:24 2021.
