 Gaussian 16, Revision A.03,
 Gaussian 16:  EM64L-G16RevA.03 25-Dec-2016

 -------------
 #p 6-31g* mp2
 -------------

 ------------------------------------------------------
 Input file generated by CHIRIPA (05-May-2021 14:55:24)
 ------------------------------------------------------
 Symbolic Z-matrix:
 Charge =  0 Multiplicity = 1

                         Standard orientation:
 ---------------------------------------------------------------------
 Center     Atomic      Atomic             Coordinates (Angstroms)
 Number     Number       Type             X           Y           Z
 ---------------------------------------------------------------------
      1          6           0       -1.263776    1.597690    1.571201
      2          6           0       -1.910107    0.432513    1.996807
      3          6           0       -2.788359   -0.243841    1.144887
      4          6           0       -2.997989    0.275303   -0.131763
      5          6           0       -2.369030    1.433896   -0.584934
      6          6           0       -1.494893    2.093788    0.283959
      7          1           0       -0.583127    2.116704    2.239585
      8          1           0       -1.732527    0.044937    2.995954
      9          1           0       -3.301959   -1.147913    1.448673
     10          1           0       -2.566163    1.796014   -1.586646
     11          1           0       -0.994331    2.998467   -0.049266
     12          7           0       -3.925577   -0.432009   -1.042636
     13          8           0       -4.093282    0.045820   -2.162543
     14          8           0       -4.467352   -1.450836   -0.619424
     15          6           0        2.993857   -0.488201    0.380845
     16          6           0        2.148927   -1.751670    0.214337
     17          6           0        0.855990   -1.709862    1.029419
     18          1           0        3.233428   -0.352503    1.444394
     19          1           0        2.398199    0.385024    0.080735
     20          1           0        2.746465   -2.622388    0.513361
     21          1           0        1.911501   -1.884479   -0.848963
     22          1           0        0.236792   -0.859405    0.726235
     23          1           0        1.076500   -1.601506    2.096300
     24          1           0        0.267385   -2.622831    0.895659
     25          6           0        4.289629   -0.515004   -0.427847
     26          6           0        5.134557    0.748465   -0.261339
     27          6           0        6.427495    0.706658   -1.076422
     28          1           0        4.885286   -1.388228   -0.127737
     29          1           0        4.050057   -0.650701   -1.491397
     30          1           0        5.371984    0.881275    0.801961
     31          1           0        4.537020    1.619183   -0.560364
     32          1           0        6.206984    0.598302   -2.143303
     33          1           0        7.046693   -0.143799   -0.773239
     34          1           0        7.016100    1.619627   -0.942662
 ---------------------------------------------------------------------

 SCF Done:  E(RHF) =  -669.534414985     A.U. after   15 cycles
 E2 =    -0.2092993085D+01 EUMP2 =    -0.67162740807044D+03

 The electronic state is 1-A.
 Alpha  occ. eigenvalues --  -20.60802 -20.60797 -15.85856 -11.31245 -11.27818
 Alpha  occ. eigenvalues --  -11.27765 -11.27517 -11.26850 -11.26771 -11.21947
 Alpha  occ. eigenvalues --  -11.21818 -11.21742 -11.21664 -11.21350 -11.21194
 Alpha  occ. eigenvalues --   -1.59877  -1.39429  -1.19424  -1.08816  -1.08727
 Alpha  occ. eigenvalues --   -1.04822  -1.03798  -0.96255  -0.95634  -0.87282
 Alpha  occ. eigenvalues --   -0.86205  -0.82461  -0.79879  -0.78563  -0.77508
 Alpha  occ. eigenvalues --   -0.72072  -0.71200  -0.70505  -0.65368  -0.65059
 Alpha  occ. eigenvalues --   -0.64810  -0.62156  -0.61214  -0.59623  -0.57896
 Alpha  occ. eigenvalues --   -0.55638  -0.55303  -0.53481  -0.52919  -0.52899
 Alpha  occ. eigenvalues --   -0.52412  -0.50127  -0.48833  -0.48827  -0.48164
 Alpha  occ. eigenvalues --   -0.46883  -0.46095  -0.46019  -0.44829  -0.44071
 Alpha  occ. eigenvalues --   -0.37361  -0.36355
 Alpha virt. eigenvalues --    0.05008   0.11205   0.16453   0.21224   0.22610
 Alpha virt. eigenvalues --    0.24089   0.26183   0.26946   0.27137   0.28149
 Alpha virt. eigenvalues --    0.28338   0.30533   0.31378   0.31610   0.31703

 Mulliken charges:
               1
     1  C   -0.172055
     2  C   -0.216336
     3  C   -0.169987
     4  C    0.159347
     5  C   -0.172078
     6  C   -0.218652
     7  H    0.226502
     8  H    0.224543
     9  H    0.275940
    10  H    0.275801
    11  H    0.223837
    12  N    0.488103
    13  O   -0.460415
    14  O   -0.460030
    15  C   -0.297729
    16  C   -0.299292
    17  C   -0.483003
    18  H    0.146685
    19  H    0.146038
    20  H    0.151998
    21  H    0.154426
    22  H    0.167376
    23  H    0.146426
    24  H    0.160986
    25  C   -0.298400
    26  C   -0.299352
    27  C   -0.475822
    28  H    0.150778
    29  H    0.151269
    30  H    0.150936
    31  H    0.149608
    32  H    0.156190
    33  H    0.156129
    34  H    0.160232
 Sum of Mulliken charges =  -0.00000

 Dipole moment (field-independent basis, Debye):
    X=              3.2128    Y=              2.4979    Z=              3.1873  Tot=              5.1692
 Quadrupole moment (field-independent basis, Debye-Ang):
   XX=           -115.7042   YY=            -91.3163   ZZ=            -93.1112
   XY=             -6.2409   XZ=            -10.1439   YZ=             -2.3864

 Normal termination of Gaussian 16 at Wed May  5 16:06:23 2021.
