 Gaussian 16, Revision A.03,
 Gaussian 16:  EM64L-G16RevA.03 25-Dec-2016

 -------------
 #p 6-31g* mp2
 -------------

 ------------------------------------------------------
 Input file generated by CHIRIPA (05-May-2021 14:51:13)
 ------------------------------------------------------
 Symbolic Z-matrix:
 Charge =  0 Multiplicity = 1

                         Standard orientation:
 ---------------------------------------------------------------------
 Center     Atomic      Atomic             Coordinates (Angstroms)
 Number     Number       Type             X           Y           Z
 ---------------------------------------------------------------------
      1          6           0        3.819143   -0.101729   -0.207064
      2          6           0        5.191139   -0.207816    0.459538
      3          6           0        6.126965    0.937427    0.071669
      4          1           0        3.948795   -0.085681   -1.297879
      5          1           0        3.359188    0.857763    0.067185
      6          1           0        5.647781   -1.167425    0.185228
      7          1           0        5.058194   -0.223807    1.548889
      8          1           0        5.696148    1.901587    0.360448
      9          1           0        6.289086    0.952607   -1.010961
     10          1           0        7.102062    0.841811    0.559422
     11          6           0        2.872372   -1.239489    0.170895
     12          6           0        1.500376   -1.133401   -0.495706
     13          6           0        0.564550   -2.278645   -0.107838
     14          1           0        3.332328   -2.198981   -0.103354
     15          1           0        2.742721   -1.255537    1.261710
     16          1           0        1.633322   -1.117411   -1.585057
     17          1           0        1.043735   -0.173793   -0.221396
     18          1           0        0.402430   -2.293825    0.974792
     19          1           0        0.995367   -3.242805   -0.396617
     20          1           0       -0.410547   -2.183029   -0.595591
     21          6           0       -3.639637    0.010725   -0.230152
     22          6           0       -4.906204   -0.408172    0.517054
     23          6           0       -5.482289   -1.730245    0.009073
     24          1           0       -3.864922    0.095070   -1.302103
     25          1           0       -2.884733   -0.781514   -0.130800
     26          1           0       -5.658010    0.385231    0.417482
     27          1           0       -4.677925   -0.491343    1.587374
     28          1           0       -4.752141   -2.537937    0.123604
     29          1           0       -5.737796   -1.656382   -1.052935
     30          1           0       -6.387237   -2.010755    0.557020
     31          6           0       -3.051878    1.330492    0.266321
     32          6           0       -1.785311    1.749390   -0.480885
     33          6           0       -1.209226    3.071463    0.027095
     34          1           0       -3.806783    2.122732    0.166969
     35          1           0       -2.826593    1.246147    1.338271
     36          1           0       -2.013591    1.832561   -1.551205
     37          1           0       -1.033505    0.955987   -0.381314
     38          1           0       -0.953720    2.997600    1.089104
     39          1           0       -1.939375    3.879155   -0.087436
     40          1           0       -0.304279    3.351972   -0.520852
 ---------------------------------------------------------------------

 SCF Done:  E(RHF) =  -470.733290979     A.U. after   11 cycles
 E2 =    -0.1583196309D+01 EUMP2 =    -0.47231648728790D+03

 The electronic state is 1-A.
 Alpha  occ. eigenvalues --  -11.21630 -11.21614 -11.21592 -11.21566 -11.21427
 Alpha  occ. eigenvalues --  -11.21395 -11.21367 -11.21336 -11.21134 -11.21082
 Alpha  occ. eigenvalues --  -11.21079 -11.21058  -1.08463  -1.08415  -1.03572
 Alpha  occ. eigenvalues --   -1.03511  -0.96011  -0.95973  -0.87029  -0.86986
 Alpha  occ. eigenvalues --   -0.79688  -0.79528  -0.78310  -0.78194  -0.65176
 Alpha  occ. eigenvalues --   -0.64982  -0.61084  -0.60812  -0.59413  -0.59305
 Alpha  occ. eigenvalues --   -0.57622  -0.57584  -0.55299  -0.55265  -0.52724
 Alpha  occ. eigenvalues --   -0.52656  -0.52440  -0.52387  -0.49996  -0.49884
 Alpha  occ. eigenvalues --   -0.48077  -0.47809  -0.46874  -0.46444  -0.45910
 Alpha  occ. eigenvalues --   -0.45778  -0.45750  -0.45436  -0.43806  -0.43774
 Alpha virt. eigenvalues --    0.20603   0.23111   0.23801   0.24057   0.26006
 Alpha virt. eigenvalues --    0.26627   0.27069   0.27138   0.28454   0.29192
 Alpha virt. eigenvalues --    0.30269   0.31519   0.31638   0.31832   0.32133

 Mulliken charges:
               1
     1  C   -0.298480
     2  C   -0.299658
     3  C   -0.475752
     4  H    0.149751
     5  H    0.149760
     6  H    0.151954
     7  H    0.151940
     8  H    0.155291
     9  H    0.155201
    10  H    0.160297
    11  C   -0.297589
    12  C   -0.305949
    13  C   -0.479388
    14  H    0.149630
    15  H    0.149477
    16  H    0.152501
    17  H    0.157497
    18  H    0.154783
    19  H    0.155879
    20  H    0.163149
    21  C   -0.301965
    22  C   -0.299477
    23  C   -0.475831
    24  H    0.149534
    25  H    0.152788
    26  H    0.151941
    27  H    0.151958
    28  H    0.155406
    29  H    0.155088
    30  H    0.160238
    31  C   -0.297308
    32  C   -0.309157
    33  C   -0.475646
    34  H    0.149501
    35  H    0.149283
    36  H    0.151989
    37  H    0.161139
    38  H    0.154516
    39  H    0.155490
    40  H    0.160217
 Sum of Mulliken charges =  -0.00000

 Dipole moment (field-independent basis, Debye):
    X=              0.0177    Y=             -0.0101    Z=             -0.0095  Tot=              0.0225
 Quadrupole moment (field-independent basis, Debye-Ang):
   XX=            -85.2832   YY=            -85.7122   ZZ=            -83.7764
   XY=             -1.5785   XZ=              0.1135   YZ=             -0.0027

 Normal termination of Gaussian 16 at Wed May  5 21:37:03 2021.
