 Gaussian 16, Revision A.03,
 Gaussian 16:  EM64L-G16RevA.03 25-Dec-2016

 -------------
 #p 6-31g* mp2
 -------------

 ------------------------------------------------------
 Input file generated by CHIRIPA (05-May-2021 14:55:24)
 ------------------------------------------------------
 Symbolic Z-matrix:
 Charge =  0 Multiplicity = 1

                         Standard orientation:
 ---------------------------------------------------------------------
 Center     Atomic      Atomic             Coordinates (Angstroms)
 Number     Number       Type             X           Y           Z
 ---------------------------------------------------------------------
      1          6           0       -4.964753    0.183508   -0.209662
      2          6           0       -4.271979   -0.445910   -1.249094
      3          6           0       -2.922861   -0.781757   -1.102004
      4          6           0       -2.294843   -0.472129    0.103406
      5          6           0       -2.957876    0.154536    1.157430
      6          6           0       -4.306650    0.481197    0.988171
      7          1           0       -6.012646    0.440834   -0.332536
      8          1           0       -4.780511   -0.678305   -2.180455
      9          1           0       -2.362543   -1.269419   -1.890451
     10          1           0       -2.423984    0.373498    2.074182
     11          1           0       -4.842152    0.969971    1.797111
     12          7           0       -0.866774   -0.822813    0.270858
     13          8           0       -0.336252   -0.539307    1.342683
     14          8           0       -0.305017   -1.374546   -0.672888
     15          6           0        3.884888    0.126457   -0.148992
     16          6           0        3.699483   -1.357765    0.168334
     17          6           0        5.001196   -2.152514    0.060117
     18          1           0        4.295965    0.229617   -1.162559
     19          1           0        4.632286    0.550142    0.536050
     20          1           0        2.951643   -1.778203   -0.516196
     21          1           0        3.288620   -1.457396    1.181193
     22          1           0        5.750965   -1.760199    0.754765
     23          1           0        5.412073   -2.082828   -0.952268
     24          1           0        4.845711   -3.210985    0.291036
     25          6           0        2.592439    0.934234   -0.045076
     26          6           0        2.777844    2.418455   -0.362402
     27          6           0        1.476132    3.213204   -0.254185
     28          1           0        1.845041    0.510548   -0.730118
     29          1           0        2.181362    0.831074    0.968492
     30          1           0        3.188707    2.518086   -1.375261
     31          1           0        3.525684    2.838894    0.322129
     32          1           0        1.065254    3.143519    0.758201
     33          1           0        0.726362    2.820890   -0.948833
     34          1           0        1.631616    4.271676   -0.485104
 ---------------------------------------------------------------------

 SCF Done:  E(RHF) =  -669.536323980     A.U. after   15 cycles
 E2 =    -0.2093022495D+01 EUMP2 =    -0.67162934647521D+03

 The electronic state is 1-A.
 Alpha  occ. eigenvalues --  -20.61072 -20.61065 -15.86058 -11.31353 -11.27908
 Alpha  occ. eigenvalues --  -11.27903 -11.27636 -11.26904 -11.26894 -11.20435
 Alpha  occ. eigenvalues --  -11.20254 -11.19888 -11.19821 -11.19754 -11.19537
 Alpha  occ. eigenvalues --   -1.60096  -1.39659  -1.19512  -1.08924  -1.06918
 Alpha  occ. eigenvalues --   -1.04902  -1.02207  -0.95774  -0.94683  -0.86305
 Alpha  occ. eigenvalues --   -0.85721  -0.82614  -0.78235  -0.77670  -0.76657
 Alpha  occ. eigenvalues --   -0.72294  -0.71388  -0.70622  -0.65171  -0.64905
 Alpha  occ. eigenvalues --   -0.63560  -0.62251  -0.59624  -0.58068  -0.56280
 Alpha  occ. eigenvalues --   -0.55406  -0.53999  -0.53236  -0.52994  -0.51462
 Alpha  occ. eigenvalues --   -0.51121  -0.49098  -0.49063  -0.48665  -0.46555
 Alpha  occ. eigenvalues --   -0.45414  -0.45016  -0.44086  -0.43943  -0.42385
 Alpha  occ. eigenvalues --   -0.37482  -0.36500
 Alpha virt. eigenvalues --    0.04821   0.11155   0.16314   0.21282   0.24302
 Alpha virt. eigenvalues --    0.25446   0.27210   0.28087   0.28161   0.28874
 Alpha virt. eigenvalues --    0.29595   0.30938   0.32358   0.32567   0.32918

 Mulliken charges:
               1
     1  C   -0.170379
     2  C   -0.218537
     3  C   -0.170825
     4  C    0.159538
     5  C   -0.170304
     6  C   -0.218510
     7  H    0.226250
     8  H    0.224006
     9  H    0.275657
    10  H    0.275739
    11  H    0.224079
    12  N    0.488770
    13  O   -0.457117
    14  O   -0.459773
    15  C   -0.297966
    16  C   -0.301219
    17  C   -0.475277
    18  H    0.142798
    19  H    0.142395
    20  H    0.166298
    21  H    0.156691
    22  H    0.150017
    23  H    0.150439
    24  H    0.156977
    25  C   -0.306148
    26  C   -0.298437
    27  C   -0.473947
    28  H    0.160451
    29  H    0.164259
    30  H    0.147029
    31  H    0.147444
    32  H    0.154751
    33  H    0.149906
    34  H    0.154946
 Sum of Mulliken charges =  -0.00000

 Dipole moment (field-independent basis, Debye):
    X=             -5.4595    Y=              1.0300    Z=             -0.4930  Tot=              5.5776
 Quadrupole moment (field-independent basis, Debye-Ang):
   XX=            -74.6076   YY=            -97.3283   ZZ=            -89.7335
   XY=             -0.1387   XZ=              1.2141   YZ=              2.8434

 Normal termination of Gaussian 16 at Thu May  6 07:57:31 2021.
