 Gaussian 16, Revision A.03,
 Gaussian 16:  EM64L-G16RevA.03 25-Dec-2016

 -------------
 #p 6-31g* mp2
 -------------

 ------------------------------------------------------
 Input file generated by CHIRIPA (05-May-2021 14:55:25)
 ------------------------------------------------------
 Symbolic Z-matrix:
 Charge =  0 Multiplicity = 1

                         Standard orientation:
 ---------------------------------------------------------------------
 Center     Atomic      Atomic             Coordinates (Angstroms)
 Number     Number       Type             X           Y           Z
 ---------------------------------------------------------------------
      1          6           0       -4.046889    1.081445    0.971179
      2          6           0       -4.152493    0.563451   -0.323831
      3          6           0       -3.207439   -0.348604   -0.802974
      4          6           0       -2.164978   -0.722538    0.043630
      5          6           0       -2.032526   -0.224144    1.338756
      6          6           0       -2.989108    0.686689    1.796884
      7          1           0       -4.785507    1.789477    1.335226
      8          1           0       -4.972922    0.868232   -0.967298
      9          1           0       -3.265162   -0.765232   -1.801226
     10          1           0       -1.203540   -0.546843    1.956870
     11          1           0       -2.904575    1.087333    2.803057
     12          7           0       -1.158390   -1.687443   -0.452493
     13          8           0       -0.249387   -2.000941    0.313058
     14          8           0       -1.297490   -2.111968   -1.597512
     15          6           0        2.590786    1.088924   -0.702760
     16          6           0        1.218268    1.573445   -0.234337
     17          6           0        0.444633    2.307041   -1.330293
     18          1           0        3.176398    1.949742   -1.053468
     19          1           0        2.461616    0.425059   -1.568780
     20          1           0        1.349894    2.235100    0.631401
     21          1           0        0.635925    0.711398    0.115475
     22          1           0        0.284002    1.652092   -2.192754
     23          1           0        1.002028    3.184452   -1.673897
     24          1           0       -0.533534    2.644703   -0.973875
     25          6           0        3.376256    0.353660    0.381744
     26          6           0        4.748774   -0.130861   -0.086679
     27          6           0        5.522409   -0.864457    1.009277
     28          1           0        3.505425    1.017526    1.247765
     29          1           0        2.790643   -0.507158    0.732452
     30          1           0        5.331117    0.731186   -0.436491
     31          1           0        4.617148   -0.792516   -0.952417
     32          1           0        4.965014   -1.741867    1.352881
     33          1           0        5.683040   -0.209507    1.871738
     34          1           0        6.500576   -1.202119    0.652859
 ---------------------------------------------------------------------

 SCF Done:  E(RHF) =  -669.536155520     A.U. after   15 cycles
 E2 =    -0.2093499884D+01 EUMP2 =    -0.67162965540386D+03

 The electronic state is 1-A.
 Alpha  occ. eigenvalues --  -20.61013 -20.61007 -15.86016 -11.31285 -11.27852
 Alpha  occ. eigenvalues --  -11.27846 -11.27587 -11.26848 -11.26838 -11.21144
 Alpha  occ. eigenvalues --  -11.20925 -11.20787 -11.20751 -11.20605 -11.20461
 Alpha  occ. eigenvalues --   -1.60060  -1.39620  -1.19460  -1.08875  -1.07806
 Alpha  occ. eigenvalues --   -1.04848  -1.03000  -0.95723  -0.95443  -0.86470
 Alpha  occ. eigenvalues --   -0.86251  -0.82559  -0.79080  -0.77686  -0.77543
 Alpha  occ. eigenvalues --   -0.72249  -0.71392  -0.70571  -0.65122  -0.64852
 Alpha  occ. eigenvalues --   -0.64404  -0.62198  -0.60396  -0.58839  -0.57069
 Alpha  occ. eigenvalues --   -0.55359  -0.54730  -0.53157  -0.52940  -0.52168
 Alpha  occ. eigenvalues --   -0.51873  -0.49398  -0.49019  -0.49001  -0.47405
 Alpha  occ. eigenvalues --   -0.46184  -0.45367  -0.45126  -0.44600  -0.43217
 Alpha  occ. eigenvalues --   -0.37416  -0.36421
 Alpha virt. eigenvalues --    0.04884   0.11140   0.16362   0.21284   0.23417
 Alpha virt. eigenvalues --    0.24691   0.26807   0.27325   0.27823   0.28338
 Alpha virt. eigenvalues --    0.28799   0.30905   0.31819   0.32066   0.32185

 Mulliken charges:
               1
     1  C   -0.170658
     2  C   -0.218716
     3  C   -0.170167
     4  C    0.159600
     5  C   -0.171526
     6  C   -0.218748
     7  H    0.226102
     8  H    0.223917
     9  H    0.275782
    10  H    0.275877
    11  H    0.224093
    12  N    0.489357
    13  O   -0.459990
    14  O   -0.457825
    15  C   -0.296429
    16  C   -0.306750
    17  C   -0.477763
    18  H    0.145770
    19  H    0.155440
    20  H    0.146361
    21  H    0.156620
    22  H    0.157604
    23  H    0.154062
    24  H    0.156165
    25  C   -0.303159
    26  C   -0.299375
    27  C   -0.476015
    28  H    0.143317
    29  H    0.164472
    30  H    0.148388
    31  H    0.155293
    32  H    0.158554
    33  H    0.151970
    34  H    0.158379
 Sum of Mulliken charges =  -0.00000

 Dipole moment (field-independent basis, Debye):
    X=             -3.7023    Y=              3.2020    Z=              1.7223  Tot=              5.1891
 Quadrupole moment (field-independent basis, Debye-Ang):
   XX=            -79.3471   YY=           -100.2692   ZZ=            -91.2713
   XY=             -4.4830   XZ=             -2.0798   YZ=             -0.0851

 Normal termination of Gaussian 16 at Thu May  6 19:24:15 2021.
