 Gaussian 16, Revision A.03,
 Gaussian 16:  EM64L-G16RevA.03 25-Dec-2016

 -------------
 #p 6-31g* mp2
 -------------

 ------------------------------------------------------
 Input file generated by CHIRIPA (05-May-2021 14:51:11)
 ------------------------------------------------------
 Symbolic Z-matrix:
 Charge =  0 Multiplicity = 1

                         Standard orientation:
 ---------------------------------------------------------------------
 Center     Atomic      Atomic             Coordinates (Angstroms)
 Number     Number       Type             X           Y           Z
 ---------------------------------------------------------------------
      1          6           0        3.113280    0.404140   -0.283892
      2          6           0        4.455045    1.082070   -0.004494
      3          6           0        4.664669    2.345024   -0.840435
      4          1           0        3.051794    0.153201   -1.351690
      5          1           0        2.301428    1.116848   -0.083047
      6          1           0        5.264070    0.367856   -0.204480
      7          1           0        4.513424    1.331252    1.062800
      8          1           0        3.878089    3.078191   -0.634618
      9          1           0        4.633000    2.109322   -1.909099
     10          1           0        5.629996    2.813546   -0.624818
     11          6           0        2.889107   -0.859860    0.544226
     12          6           0        1.547342   -1.537789    0.264828
     13          6           0        1.337719   -2.800744    1.100769
     14          1           0        3.700959   -1.572568    0.343381
     15          1           0        2.950593   -0.608920    1.612025
     16          1           0        1.488964   -1.786971   -0.802466
     17          1           0        0.738318   -0.823576    0.464814
     18          1           0        1.369388   -2.565041    2.169433
     19          1           0        2.124298   -3.533911    0.894952
     20          1           0        0.372392   -3.269266    0.885152
     21          6           0       -3.219972   -0.429956   -0.450864
     22          6           0       -2.179684   -1.543084   -0.321510
     23          6           0       -2.631871   -2.852836   -0.967941
     24          1           0       -4.161320   -0.761361    0.008459
     25          1           0       -3.434340   -0.259832   -1.515054
     26          1           0       -1.966318   -1.710107    0.742067
     27          1           0       -1.240645   -1.208916   -0.781025
     28          1           0       -2.826137   -2.708507   -2.035662
     29          1           0       -3.555933   -3.212545   -0.503917
     30          1           0       -1.873233   -3.634811   -0.863807
     31          6           0       -2.782416    0.885676    0.190530
     32          6           0       -3.822704    1.998804    0.061175
     33          6           0       -3.370518    3.308556    0.707606
     34          1           0       -2.568047    0.715552    1.254720
     35          1           0       -1.841068    1.217081   -0.268793
     36          1           0       -4.761742    1.664636    0.520691
     37          1           0       -4.036069    2.165826   -1.002401
     38          1           0       -2.446455    3.668265    0.243584
     39          1           0       -3.176251    3.164228    1.775329
     40          1           0       -4.129155    4.090531    0.603474
 ---------------------------------------------------------------------

 SCF Done:  E(RHF) =  -470.732420864     A.U. after   11 cycles
 E2 =    -0.1583938189D+01 EUMP2 =    -0.47231635905392D+03

 The electronic state is 1-A.
 Alpha  occ. eigenvalues --  -11.21620 -11.21596 -11.21514 -11.21507 -11.21416
 Alpha  occ. eigenvalues --  -11.21386 -11.21342 -11.21316 -11.21093 -11.21071
 Alpha  occ. eigenvalues --  -11.21068 -11.21030  -1.08460  -1.08381  -1.03596
 Alpha  occ. eigenvalues --   -1.03443  -0.96020  -0.95926  -0.87013  -0.86965
 Alpha  occ. eigenvalues --   -0.79764  -0.79454  -0.78392  -0.78065  -0.65069
 Alpha  occ. eigenvalues --   -0.65032  -0.60930  -0.60911  -0.59668  -0.59103
 Alpha  occ. eigenvalues --   -0.57818  -0.57281  -0.55277  -0.55245  -0.52750
 Alpha  occ. eigenvalues --   -0.52591  -0.52455  -0.52317  -0.49947  -0.49890
 Alpha  occ. eigenvalues --   -0.48198  -0.47727  -0.46681  -0.46575  -0.46047
 Alpha  occ. eigenvalues --   -0.45778  -0.45653  -0.45254  -0.43806  -0.43719
 Alpha virt. eigenvalues --    0.21288   0.22989   0.23253   0.24895   0.25406
 Alpha virt. eigenvalues --    0.26410   0.26640   0.27040   0.28748   0.29242
 Alpha virt. eigenvalues --    0.30443   0.30931   0.31406   0.31597   0.32312

 Mulliken charges:
               1
     1  C   -0.298342
     2  C   -0.299550
     3  C   -0.475706
     4  H    0.149197
     5  H    0.149155
     6  H    0.151975
     7  H    0.152029
     8  H    0.155098
     9  H    0.155040
    10  H    0.160286
    11  C   -0.297626
    12  C   -0.302741
    13  C   -0.479723
    14  H    0.149078
    15  H    0.149451
    16  H    0.150557
    17  H    0.157517
    18  H    0.154702
    19  H    0.154805
    20  H    0.164368
    21  C   -0.297752
    22  C   -0.305737
    23  C   -0.477890
    24  H    0.149284
    25  H    0.149273
    26  H    0.152283
    27  H    0.160712
    28  H    0.155200
    29  H    0.155094
    30  H    0.160944
    31  C   -0.299236
    32  C   -0.299494
    33  C   -0.475743
    34  H    0.149155
    35  H    0.149569
    36  H    0.152145
    37  H    0.152117
    38  H    0.155050
    39  H    0.155055
    40  H    0.160403
 Sum of Mulliken charges =  -0.00000

 Dipole moment (field-independent basis, Debye):
    X=             -0.0135    Y=              0.0051    Z=             -0.0038  Tot=              0.0149
 Quadrupole moment (field-independent basis, Debye-Ang):
   XX=            -84.7025   YY=            -86.3673   ZZ=            -83.9085
   XY=             -0.5952   XZ=             -0.6250   YZ=              0.2308

 Normal termination of Gaussian 16 at Wed May  5 18:17:35 2021.
