 Gaussian 16, Revision A.03,
 Gaussian 16:  EM64L-G16RevA.03 25-Dec-2016

 -------------
 #p 6-31g* mp2
 -------------

 ------------------------------------------------------
 Input file generated by CHIRIPA (05-May-2021 14:53:14)
 ------------------------------------------------------
 Symbolic Z-matrix:
 Charge =  0 Multiplicity = 1

                         Standard orientation:
 ---------------------------------------------------------------------
 Center     Atomic      Atomic             Coordinates (Angstroms)
 Number     Number       Type             X           Y           Z
 ---------------------------------------------------------------------
      1          6           0       -2.217253   -0.642100   -0.662299
      2          6           0       -1.552572   -2.018882   -0.687935
      3          6           0       -0.238480   -2.026443   -1.469535
      4          1           0       -2.400546   -0.311206   -1.693734
      5          1           0       -1.522129    0.084757   -0.219720
      6          1           0       -2.249265   -2.743200   -1.129067
      7          1           0       -1.371013   -2.346621    0.343685
      8          1           0        0.476856   -1.325536   -1.027241
      9          1           0       -0.406385   -1.724368   -2.508361
     10          1           0        0.219627   -3.020409   -1.475067
     11          6           0       -3.531956   -0.618478    0.115341
     12          6           0       -4.196637    0.758304    0.140977
     13          6           0       -5.510729    0.765865    0.922577
     14          1           0       -4.227080   -1.345335   -0.327238
     15          1           0       -3.348662   -0.949372    1.146776
     16          1           0       -4.378195    1.086043   -0.890643
     17          1           0       -3.499944    1.482622    0.582109
     18          1           0       -5.342824    0.463790    1.961403
     19          1           0       -6.226065    0.064958    0.480283
     20          1           0       -5.968835    1.759831    0.928109
     21          6           0        1.446746    2.664651   -0.790759
     22          6           0        2.138221    1.740561   -1.580974
     23          6           0        2.585612    0.533771   -1.035034
     24          6           0        2.323033    0.282409    0.310759
     25          6           0        1.636720    1.182995    1.123906
     26          6           0        1.198640    2.383414    0.556785
     27          1           0        1.102819    3.599639   -1.223084
     28          1           0        2.332327    1.956305   -2.627789
     29          1           0        3.123241   -0.199371   -1.623995
     30          1           0        1.458219    0.939823    2.164303
     31          1           0        0.661873    3.099215    1.172866
     32          7           0        2.791737   -0.991792    0.899932
     33          8           0        2.547747   -1.189512    2.088214
     34          8           0        3.394223   -1.768665    0.162289
 ---------------------------------------------------------------------

 SCF Done:  E(RHF) =  -669.534463191     A.U. after   15 cycles
 E2 =    -0.2094179607D+01 EUMP2 =    -0.67162864279793D+03

 The electronic state is 1-A.
 Alpha  occ. eigenvalues --  -20.60840 -20.60823 -15.85874 -11.31235 -11.27865
 Alpha  occ. eigenvalues --  -11.27808 -11.27592 -11.26879 -11.26833 -11.21781
 Alpha  occ. eigenvalues --  -11.21421 -11.21396 -11.21310 -11.21226 -11.20743
 Alpha  occ. eigenvalues --   -1.59904  -1.39456  -1.19462  -1.08844  -1.08422
 Alpha  occ. eigenvalues --   -1.04858  -1.03501  -0.95950  -0.95666  -0.86976
 Alpha  occ. eigenvalues --   -0.86246  -0.82497  -0.79586  -0.78233  -0.77539
 Alpha  occ. eigenvalues --   -0.72099  -0.71257  -0.70549  -0.65111  -0.65053
 Alpha  occ. eigenvalues --   -0.64847  -0.62197  -0.60925  -0.59315  -0.57569
 Alpha  occ. eigenvalues --   -0.55384  -0.55271  -0.53296  -0.52938  -0.52614
 Alpha  occ. eigenvalues --   -0.52307  -0.49913  -0.48861  -0.48853  -0.47876
 Alpha  occ. eigenvalues --   -0.46630  -0.45756  -0.45674  -0.44822  -0.43739
 Alpha  occ. eigenvalues --   -0.37370  -0.36421
 Alpha virt. eigenvalues --    0.04967   0.11158   0.16459   0.21336   0.22790
 Alpha virt. eigenvalues --    0.24295   0.26510   0.27209   0.27445   0.28006
 Alpha virt. eigenvalues --    0.28343   0.30703   0.31544   0.31791   0.32124

 Mulliken charges:
               1
     1  C   -0.299706
     2  C   -0.300661
     3  C   -0.480063
     4  H    0.146732
     5  H    0.148664
     6  H    0.151418
     7  H    0.156269
     8  H    0.156318
     9  H    0.149544
    10  H    0.167992
    11  C   -0.298418
    12  C   -0.298401
    13  C   -0.475630
    14  H    0.150284
    15  H    0.150977
    16  H    0.150803
    17  H    0.147289
    18  H    0.155859
    19  H    0.156357
    20  H    0.158884
    21  C   -0.170369
    22  C   -0.214895
    23  C   -0.173104
    24  C    0.154764
    25  C   -0.172140
    26  C   -0.218265
    27  H    0.226359
    28  H    0.224142
    29  H    0.276495
    30  H    0.275969
    31  H    0.224052
    32  N    0.492387
    33  O   -0.460700
    34  O   -0.459205
 Sum of Mulliken charges =  -0.00000

 Dipole moment (field-independent basis, Debye):
    X=             -1.5347    Y=              4.4665    Z=             -2.0668  Tot=              5.1552
 Quadrupole moment (field-independent basis, Debye-Ang):
   XX=           -103.1573   YY=            -92.2047   ZZ=            -91.9033
   XY=              9.8293   XZ=             -6.5780   YZ=              2.1347

 Normal termination of Gaussian 16 at Wed May  5 18:37:04 2021.
