 Gaussian 16, Revision A.03,
 Gaussian 16:  EM64L-G16RevA.03 25-Dec-2016

 -------------
 #p 6-31g* mp2
 -------------

 ------------------------------------------------------
 Input file generated by CHIRIPA (05-May-2021 14:55:24)
 ------------------------------------------------------
 Symbolic Z-matrix:
 Charge =  0 Multiplicity = 1

                         Standard orientation:
 ---------------------------------------------------------------------
 Center     Atomic      Atomic             Coordinates (Angstroms)
 Number     Number       Type             X           Y           Z
 ---------------------------------------------------------------------
      1          6           0       -3.425093    2.059750    0.098421
      2          6           0       -2.071135    1.829301   -0.166553
      3          6           0       -1.576379    0.524497   -0.251702
      4          6           0       -2.467649   -0.531127   -0.065728
      5          6           0       -3.821897   -0.333916    0.199622
      6          6           0       -4.294620    0.979311    0.280342
      7          1           0       -3.800874    3.076625    0.162847
      8          1           0       -1.393542    2.666457   -0.308272
      9          1           0       -0.532836    0.317510   -0.455646
     10          1           0       -4.473050   -1.188748    0.336292
     11          1           0       -5.346608    1.155285    0.486250
     12          7           0       -1.955535   -1.916923   -0.153527
     13          8           0       -2.761265   -2.829778    0.014201
     14          8           0       -0.758109   -2.064015   -0.388410
     15          6           0        3.343506    1.097101   -0.206386
     16          6           0        2.328821    2.082425    0.374594
     17          6           0        2.495356    3.497826   -0.179211
     18          1           0        4.359011    1.458395    0.006125
     19          1           0        3.240969    1.078259   -1.300244
     20          1           0        2.432304    2.098371    1.467138
     21          1           0        1.315614    1.718644    0.160841
     22          1           0        2.371182    3.502989   -1.266941
     23          1           0        3.494216    3.884875    0.046778
     24          1           0        1.759947    4.185768    0.249475
     25          6           0        3.189746   -0.322110    0.337606
     26          6           0        4.204430   -1.307433   -0.243375
     27          6           0        4.037895   -2.722835    0.310430
     28          1           0        3.292282   -0.303269    1.431464
     29          1           0        2.174241   -0.683404    0.125094
     30          1           0        5.217637   -0.943654   -0.029622
     31          1           0        4.100948   -1.323381   -1.335919
     32          1           0        3.039035   -3.109884    0.084440
     33          1           0        4.162069   -2.727999    1.398159
     34          1           0        4.773303   -3.410776   -0.118256
 ---------------------------------------------------------------------

 SCF Done:  E(RHF) =  -669.535734949     A.U. after   15 cycles
 E2 =    -0.2092396945D+01 EUMP2 =    -0.67162813189414D+03

 The electronic state is 1-A.
 Alpha  occ. eigenvalues --  -20.60866 -20.60861 -15.85909 -11.31219 -11.27786
 Alpha  occ. eigenvalues --  -11.27767 -11.27521 -11.26795 -11.26774 -11.22139
 Alpha  occ. eigenvalues --  -11.21647 -11.21500 -11.21207 -11.21091 -11.20409
 Alpha  occ. eigenvalues --   -1.59930  -1.39486  -1.19390  -1.08794  -1.08443
 Alpha  occ. eigenvalues --   -1.04789  -1.03523  -0.95948  -0.95639  -0.86968
 Alpha  occ. eigenvalues --   -0.86187  -0.82476  -0.79675  -0.78166  -0.77506
 Alpha  occ. eigenvalues --   -0.72130  -0.71245  -0.70513  -0.65140  -0.65035
 Alpha  occ. eigenvalues --   -0.64770  -0.62169  -0.60889  -0.59404  -0.57538
 Alpha  occ. eigenvalues --   -0.55295  -0.55214  -0.53118  -0.52893  -0.52684
 Alpha  occ. eigenvalues --   -0.52350  -0.49897  -0.48880  -0.48878  -0.47940
 Alpha  occ. eigenvalues --   -0.46719  -0.45688  -0.45547  -0.44886  -0.43758
 Alpha  occ. eigenvalues --   -0.37369  -0.36379
 Alpha virt. eigenvalues --    0.04986   0.11260   0.16465   0.19260   0.23115
 Alpha virt. eigenvalues --    0.23748   0.24933   0.26819   0.27098   0.28376
 Alpha virt. eigenvalues --    0.29777   0.31099   0.31321   0.31727   0.32482

 Mulliken charges:
               1
     1  C   -0.170544
     2  C   -0.221521
     3  C   -0.177389
     4  C    0.159334
     5  C   -0.170449
     6  C   -0.218822
     7  H    0.225849
     8  H    0.225893
     9  H    0.283127
    10  H    0.275572
    11  H    0.223610
    12  N    0.489525
    13  O   -0.459397
    14  O   -0.463829
    15  C   -0.298457
    16  C   -0.302810
    17  C   -0.476552
    18  H    0.150856
    19  H    0.149407
    20  H    0.156103
    21  H    0.140985
    22  H    0.155100
    23  H    0.159982
    24  H    0.155211
    25  C   -0.307254
    26  C   -0.298718
    27  C   -0.479075
    28  H    0.148845
    29  H    0.164038
    30  H    0.148820
    31  H    0.152244
    32  H    0.169123
    33  H    0.152986
    34  H    0.158206
 Sum of Mulliken charges =  -0.00000

 Dipole moment (field-independent basis, Debye):
    X=             -1.7977    Y=              4.7530    Z=              0.3232  Tot=              5.0918
 Quadrupole moment (field-independent basis, Debye-Ang):
   XX=            -81.1221   YY=           -100.8945   ZZ=            -95.0551
   XY=             -9.3128   XZ=             -1.1694   YZ=             -0.3081

 Normal termination of Gaussian 16 at Thu May  6 19:18:39 2021.
