 Gaussian 16, Revision A.03,
 Gaussian 16:  EM64L-G16RevA.03 25-Dec-2016

 -------------
 #p 6-31g* mp2
 -------------

 ------------------------------------------------------
 Input file generated by CHIRIPA (05-May-2021 14:51:09)
 ------------------------------------------------------
 Symbolic Z-matrix:
 Charge =  0 Multiplicity = 1

                         Standard orientation:
 ---------------------------------------------------------------------
 Center     Atomic      Atomic             Coordinates (Angstroms)
 Number     Number       Type             X           Y           Z
 ---------------------------------------------------------------------
      1          6           0        1.763113    1.153359    0.098804
      2          6           0        1.821657    2.591162    0.615794
      3          6           0        0.441618    3.152272    0.959953
      4          1           0        1.118454    1.115997   -0.789995
      5          1           0        1.286494    0.517378    0.857591
      6          1           0        2.299274    3.223986   -0.143173
      7          1           0        2.466405    2.625140    1.503353
      8          1           0       -0.039012    2.545188    1.733933
      9          1           0       -0.207093    3.147437    0.078051
     10          1           0        0.506803    4.181106    1.327526
     11          6           0        3.134945    0.578492   -0.249525
     12          6           0        3.076402   -0.859311   -0.766515
     13          6           0        4.456440   -1.420420   -1.110673
     14          1           0        3.611564    1.214473   -1.008312
     15          1           0        3.779604    0.615854    0.639274
     16          1           0        2.431653   -0.893288   -1.654074
     17          1           0        2.598784   -1.492135   -0.007548
     18          1           0        5.105151   -1.415586   -0.228771
     19          1           0        4.937071   -0.813337   -1.884653
     20          1           0        4.391255   -2.449255   -1.478247
     21          6           0       -2.883467   -0.240424    0.134040
     22          6           0       -3.731198    0.027941   -1.109872
     23          6           0       -4.594868    1.282643   -0.977244
     24          1           0       -3.544342   -0.338961    1.006095
     25          1           0       -2.240557    0.629795    0.325817
     26          1           0       -4.371321   -0.843089   -1.300047
     27          1           0       -3.068243    0.125660   -1.979100
     28          1           0       -3.968973    2.165323   -0.810709
     29          1           0       -5.279455    1.191070   -0.127799
     30          1           0       -5.192623    1.455581   -1.877600
     31          6           0       -2.014590   -1.491427    0.016682
     32          6           0       -1.166860   -1.759792    1.260593
     33          6           0       -0.303190   -3.014495    1.127964
     34          1           0       -2.657502   -2.361646   -0.175097
     35          1           0       -1.353716   -1.392890   -0.855374
     36          1           0       -1.829816   -1.857510    2.129820
     37          1           0       -0.526738   -0.888762    1.450768
     38          1           0        0.381396   -2.922921    0.278519
     39          1           0       -0.929086   -3.897174    0.961430
     40          1           0        0.294565   -3.187432    2.028321
 ---------------------------------------------------------------------

 SCF Done:  E(RHF) =  -470.733204004     A.U. after   11 cycles
 E2 =    -0.1584359561D+01 EUMP2 =    -0.47231756356474D+03

 The electronic state is 1-A.
 Alpha  occ. eigenvalues --  -11.21679 -11.21647 -11.21564 -11.21541 -11.21476
 Alpha  occ. eigenvalues --  -11.21415 -11.21342 -11.21281 -11.21163 -11.21105
 Alpha  occ. eigenvalues --  -11.21038 -11.21036  -1.08513  -1.08369  -1.03597
 Alpha  occ. eigenvalues --   -1.03490  -0.96046  -0.95939  -0.87072  -0.86946
 Alpha  occ. eigenvalues --   -0.79690  -0.79532  -0.78364  -0.78158  -0.65217
 Alpha  occ. eigenvalues --   -0.64942  -0.60995  -0.60896  -0.59420  -0.59306
 Alpha  occ. eigenvalues --   -0.57686  -0.57523  -0.55341  -0.55225  -0.52735
 Alpha  occ. eigenvalues --   -0.52639  -0.52487  -0.52361  -0.50071  -0.49813
 Alpha  occ. eigenvalues --   -0.48014  -0.47904  -0.46861  -0.46438  -0.46121
 Alpha  occ. eigenvalues --   -0.45812  -0.45658  -0.45254  -0.43850  -0.43739
 Alpha virt. eigenvalues --    0.20021   0.22284   0.23753   0.23861   0.25808
 Alpha virt. eigenvalues --    0.25960   0.27216   0.27685   0.28353   0.29914
 Alpha virt. eigenvalues --    0.30724   0.31412   0.31800   0.32042   0.32249

 Mulliken charges:
               1
     1  C   -0.306458
     2  C   -0.299198
     3  C   -0.477581
     4  H    0.149263
     5  H    0.157254
     6  H    0.152317
     7  H    0.152283
     8  H    0.156299
     9  H    0.155185
    10  H    0.160994
    11  C   -0.297488
    12  C   -0.305003
    13  C   -0.475498
    14  H    0.149820
    15  H    0.149838
    16  H    0.151212
    17  H    0.157522
    18  H    0.155377
    19  H    0.155255
    20  H    0.160544
    21  C   -0.301351
    22  C   -0.299478
    23  C   -0.475715
    24  H    0.149250
    25  H    0.152931
    26  H    0.151778
    27  H    0.151368
    28  H    0.155297
    29  H    0.155200
    30  H    0.159977
    31  C   -0.297790
    32  C   -0.305754
    33  C   -0.479487
    34  H    0.149168
    35  H    0.150166
    36  H    0.151631
    37  H    0.157252
    38  H    0.159336
    39  H    0.155268
    40  H    0.159018
 Sum of Mulliken charges =  -0.00000

 Dipole moment (field-independent basis, Debye):
    X=              0.0477    Y=              0.0245    Z=              0.0071  Tot=              0.0541
 Quadrupole moment (field-independent basis, Debye-Ang):
   XX=            -85.5177   YY=            -85.4126   ZZ=            -83.8257
   XY=              1.4866   XZ=              0.0470   YZ=             -0.6014

 Normal termination of Gaussian 16 at Wed May  5 19:45:57 2021.
