 Gaussian 16, Revision A.03,
 Gaussian 16:  EM64L-G16RevA.03 25-Dec-2016

 -------------
 #p 6-31g* mp2
 -------------

 ------------------------------------------------------
 Input file generated by CHIRIPA (05-May-2021 14:53:15)
 ------------------------------------------------------
 Symbolic Z-matrix:
 Charge =  0 Multiplicity = 1

                         Standard orientation:
 ---------------------------------------------------------------------
 Center     Atomic      Atomic             Coordinates (Angstroms)
 Number     Number       Type             X           Y           Z
 ---------------------------------------------------------------------
      1          6           0        3.230974   -0.538235   -0.183683
      2          6           0        4.313619   -1.599504    0.015248
      3          6           0        3.744951   -3.016632    0.093722
      4          1           0        2.509571   -0.600139    0.642569
      5          1           0        2.672789   -0.761779   -1.103385
      6          1           0        4.870494   -1.373245    0.933569
      7          1           0        5.032634   -1.534940   -0.811471
      8          1           0        3.205945   -3.266898   -0.825757
      9          1           0        3.042884   -3.104284    0.929198
     10          1           0        4.536106   -3.759380    0.236055
     11          6           0        3.783881    0.883581   -0.264055
     12          6           0        2.701236    1.944850   -0.462986
     13          6           0        3.269904    3.361978   -0.541459
     14          1           0        4.342066    1.107125    0.655648
     15          1           0        4.505284    0.945485   -1.090306
     16          1           0        1.982221    1.880286    0.363734
     17          1           0        2.144361    1.718591   -1.381306
     18          1           0        3.971971    3.449631   -1.376935
     19          1           0        3.808910    3.612245    0.378020
     20          1           0        2.478749    4.104727   -0.683792
     21          6           0       -5.005213   -0.054830   -0.933762
     22          6           0       -3.979304   -0.824322   -1.492256
     23          6           0       -2.720343   -0.876093   -0.886546
     24          6           0       -2.521202   -0.142642    0.282079
     25          6           0       -3.523221    0.633271    0.862776
     26          6           0       -4.774304    0.670231    0.239902
     27          1           0       -5.980145   -0.020366   -1.410959
     28          1           0       -4.155771   -1.388436   -2.403671
     29          1           0       -1.908365   -1.463646   -1.297509
     30          1           0       -3.317176    1.184835    1.772028
     31          1           0       -5.569178    1.268683    0.675879
     32          7           0       -1.192567   -0.189610    0.932402
     33          8           0       -1.042564    0.465656    1.961364
     34          8           0       -0.326342   -0.880800    0.400849
 ---------------------------------------------------------------------

 SCF Done:  E(RHF) =  -669.536207770     A.U. after   15 cycles
 E2 =    -0.2091590075D+01 EUMP2 =    -0.67162779784517D+03

 The electronic state is 1-A.
 Alpha  occ. eigenvalues --  -20.61003 -20.60978 -15.86010 -11.31317 -11.27877
 Alpha  occ. eigenvalues --  -11.27874 -11.27613 -11.26881 -11.26871 -11.20425
 Alpha  occ. eigenvalues --  -11.20373 -11.20189 -11.20141 -11.19942 -11.19686
 Alpha  occ. eigenvalues --   -1.60048  -1.39603  -1.19483  -1.08892  -1.07120
 Alpha  occ. eigenvalues --   -1.04876  -1.02371  -0.95737  -0.94815  -0.86278
 Alpha  occ. eigenvalues --   -0.85840  -0.82571  -0.78429  -0.77628  -0.76867
 Alpha  occ. eigenvalues --   -0.72222  -0.71353  -0.70592  -0.65138  -0.64881
 Alpha  occ. eigenvalues --   -0.63757  -0.62224  -0.59780  -0.58195  -0.56422
 Alpha  occ. eigenvalues --   -0.55383  -0.54108  -0.53209  -0.52968  -0.51582
 Alpha  occ. eigenvalues --   -0.51243  -0.49068  -0.48995  -0.48724  -0.46748
 Alpha  occ. eigenvalues --   -0.45455  -0.45066  -0.44405  -0.44195  -0.42567
 Alpha  occ. eigenvalues --   -0.37460  -0.36476
 Alpha virt. eigenvalues --    0.04895   0.11179   0.16395   0.21309   0.24104
 Alpha virt. eigenvalues --    0.25379   0.27225   0.27949   0.28110   0.28831
 Alpha virt. eigenvalues --    0.29210   0.30934   0.32423   0.32463   0.32807

 Mulliken charges:
               1
     1  C   -0.302800
     2  C   -0.299203
     3  C   -0.473941
     4  H    0.177074
     5  H    0.145458
     6  H    0.148705
     7  H    0.145330
     8  H    0.151750
     9  H    0.160855
    10  H    0.153845
    11  C   -0.297791
    12  C   -0.300621
    13  C   -0.474669
    14  H    0.146756
    15  H    0.142813
    16  H    0.163305
    17  H    0.146916
    18  H    0.151380
    19  H    0.154247
    20  H    0.155880
    21  C   -0.170512
    22  C   -0.218567
    23  C   -0.170732
    24  C    0.158039
    25  C   -0.170580
    26  C   -0.218598
    27  H    0.226083
    28  H    0.223916
    29  H    0.275941
    30  H    0.275828
    31  H    0.223882
    32  N    0.489683
    33  O   -0.460707
    34  O   -0.458967
 Sum of Mulliken charges =  -0.00000

 Dipole moment (field-independent basis, Debye):
    X=             -5.0653    Y=              0.1012    Z=             -2.1366  Tot=              5.4984
 Quadrupole moment (field-independent basis, Debye-Ang):
   XX=            -72.7130   YY=            -95.4164   ZZ=            -92.9378
   XY=             -1.2527   XZ=              3.7237   YZ=              3.2836

 Normal termination of Gaussian 16 at Thu May  6 12:11:25 2021.
