 Gaussian 16, Revision A.03,
 Gaussian 16:  EM64L-G16RevA.03 25-Dec-2016

 -------------
 #p 6-31g* mp2
 -------------

 ------------------------------------------------------
 Input file generated by CHIRIPA (05-May-2021 14:57:25)
 ------------------------------------------------------
 Symbolic Z-matrix:
 Charge =  0 Multiplicity = 1

                         Standard orientation:
 ---------------------------------------------------------------------
 Center     Atomic      Atomic             Coordinates (Angstroms)
 Number     Number       Type             X           Y           Z
 ---------------------------------------------------------------------
      1          6           0       -1.273972   -2.135107    0.474914
      2          6           0       -2.240744   -1.879911    1.453048
      3          6           0       -3.244146   -0.932425    1.229435
      4          6           0       -3.250809   -0.255469    0.010839
      5          6           0       -2.301560   -0.487423   -0.983351
      6          6           0       -1.307406   -1.439276   -0.738026
      7          1           0       -0.498098   -2.872833    0.657055
      8          1           0       -2.217244   -2.418794    2.395968
      9          1           0       -4.004916   -0.715180    1.969335
     10          1           0       -2.350957    0.065665   -1.913443
     11          1           0       -0.557890   -1.635402   -1.499475
     12          7           0       -4.308170    0.749904   -0.237383
     13          8           0       -4.292113    1.332876   -1.319290
     14          8           0       -5.132965    0.935905    0.654667
     15          6           0        1.956263    2.652520    0.311513
     16          6           0        3.128532    2.336480    1.006082
     17          6           0        3.757799    1.103123    0.812685
     18          6           0        3.184847    0.205447   -0.086867
     19          6           0        2.017807    0.491068   -0.793781
     20          6           0        1.405612    1.730430   -0.584621
     21          1           0        1.474065    3.612953    0.467871
     22          1           0        3.558424    3.050642    1.702652
     23          1           0        4.666142    0.832641    1.337252
     24          1           0        1.612974   -0.241333   -1.481616
     25          1           0        0.495298    1.973165   -1.125411
     26          7           0        3.841987   -1.103431   -0.299951
     27          8           0        3.317202   -1.876987   -1.097981
     28          8           0        4.869395   -1.330992    0.335097
 ---------------------------------------------------------------------

 SCF Done:  E(RHF) =  -868.338309603     A.U. after   16 cycles
 E2 =    -0.2600301723D+01 EUMP2 =    -0.87093861132507D+03

 The electronic state is 1-A.
 Alpha  occ. eigenvalues --  -20.61443 -20.61401 -20.61182 -20.61166 -15.86471
 Alpha  occ. eigenvalues --  -15.86230 -11.31695 -11.31560 -11.28298 -11.28204
 Alpha  occ. eigenvalues --  -11.28173 -11.28091 -11.27881 -11.27744 -11.27192
 Alpha  occ. eigenvalues --  -11.27174 -11.27124 -11.27048  -1.60500  -1.60255
 Alpha  occ. eigenvalues --   -1.40061  -1.39810  -1.19840  -1.19714  -1.09244
 Alpha  occ. eigenvalues --   -1.09090  -1.05245  -1.05105  -0.96113  -0.95936
 Alpha  occ. eigenvalues --   -0.86648  -0.86482  -0.82961  -0.82777  -0.78069
 Alpha  occ. eigenvalues --   -0.77834  -0.72691  -0.72443  -0.71824  -0.71584
 Alpha  occ. eigenvalues --   -0.70944  -0.70755  -0.65490  -0.65364  -0.65326
 Alpha  occ. eigenvalues --   -0.65004  -0.62733  -0.62330  -0.55698  -0.55515
 Alpha  occ. eigenvalues --   -0.53651  -0.53427  -0.53333  -0.53074  -0.49463
 Alpha  occ. eigenvalues --   -0.49425  -0.49208  -0.49195  -0.45498  -0.45225
 Alpha  occ. eigenvalues --   -0.37813  -0.37651  -0.37056  -0.36443
 Alpha virt. eigenvalues --    0.04466   0.04682   0.10493   0.11215   0.15916
 Alpha virt. eigenvalues --    0.16250   0.19437   0.21998   0.25099   0.26795
 Alpha virt. eigenvalues --    0.28201   0.29229   0.29707   0.31159   0.31942

 Mulliken charges:
               1
     1  C   -0.170552
     2  C   -0.218446
     3  C   -0.170691
     4  C    0.158584
     5  C   -0.176819
     6  C   -0.223085
     7  H    0.234994
     8  H    0.225938
     9  H    0.276297
    10  H    0.272188
    11  H    0.227170
    12  N    0.487857
    13  O   -0.462548
    14  O   -0.459016
    15  C   -0.170541
    16  C   -0.218340
    17  C   -0.171049
    18  C    0.157287
    19  C   -0.170638
    20  C   -0.216785
    21  H    0.229867
    22  H    0.225496
    23  H    0.276203
    24  H    0.267289
    25  H    0.225900
    26  N    0.487923
    27  O   -0.467049
    28  O   -0.457434
 Sum of Mulliken charges =  -0.00000

 Dipole moment (field-independent basis, Debye):
    X=              1.4407    Y=              1.0897    Z=              1.8437  Tot=              2.5812
 Quadrupole moment (field-independent basis, Debye-Ang):
   XX=           -141.5499   YY=           -101.2315   ZZ=            -99.3369
   XY=             26.8101   XZ=              0.4942   YZ=             -0.6212

 Normal termination of Gaussian 16 at Wed May  5 21:10:20 2021.
