 Gaussian 16, Revision A.03,
 Gaussian 16:  EM64L-G16RevA.03 25-Dec-2016

 -------------
 #p 6-31g* mp2
 -------------

 ------------------------------------------------------
 Input file generated by CHIRIPA (05-May-2021 14:53:15)
 ------------------------------------------------------
 Symbolic Z-matrix:
 Charge =  0 Multiplicity = 1

                         Standard orientation:
 ---------------------------------------------------------------------
 Center     Atomic      Atomic             Coordinates (Angstroms)
 Number     Number       Type             X           Y           Z
 ---------------------------------------------------------------------
      1          6           0        3.229890   -0.821636   -0.852769
      2          6           0        1.777756   -1.275558   -0.700305
      3          6           0        1.421241   -2.437805   -1.627599
      4          1           0        3.407922   -0.527902   -1.896307
      5          1           0        3.895751   -1.671731   -0.649391
      6          1           0        1.114866   -0.424508   -0.902559
      7          1           0        1.603109   -1.568064    0.343033
      8          1           0        2.058493   -3.304001   -1.422136
      9          1           0        1.567476   -2.153948   -2.674805
     10          1           0        0.378662   -2.746257   -1.502117
     11          6           0        3.601446    0.339586    0.067687
     12          6           0        5.053580    0.793508   -0.084777
     13          6           0        5.410095    1.955755    0.842516
     14          1           0        2.935585    1.189681   -0.135692
     15          1           0        3.423414    0.045852    1.111224
     16          1           0        5.228227    1.086014   -1.128115
     17          1           0        5.716470   -0.057542    0.117476
     18          1           0        5.263860    1.671898    1.889723
     19          1           0        4.772843    2.821951    0.637054
     20          1           0        6.452674    2.264207    0.717034
     21          6           0       -3.938966    1.892055   -1.053120
     22          6           0       -4.465533    0.609260   -0.869579
     23          6           0       -3.770291   -0.342792   -0.118057
     24          6           0       -2.545666    0.023588    0.438132
     25          6           0       -1.994779    1.293477    0.273218
     26          6           0       -2.707441    2.229474   -0.482144
     27          1           0       -4.485813    2.625396   -1.638412
     28          1           0       -5.421732    0.344423   -1.311834
     29          1           0       -4.154774   -1.343116    0.039875
     30          1           0       -1.039280    1.528047    0.726446
     31          1           0       -2.296074    3.224951   -0.623024
     32          7           0       -1.800424   -0.975808    1.235767
     33          8           0       -0.723479   -0.628178    1.715331
     34          8           0       -2.307359   -2.087842    1.366287
 ---------------------------------------------------------------------

 SCF Done:  E(RHF) =  -669.535975567     A.U. after   15 cycles
 E2 =    -0.2091935227D+01 EUMP2 =    -0.67162791079364D+03

 The electronic state is 1-A.
 Alpha  occ. eigenvalues --  -20.60908 -20.60873 -15.85916 -11.31262 -11.27821
 Alpha  occ. eigenvalues --  -11.27818 -11.27563 -11.26837 -11.26827 -11.21207
 Alpha  occ. eigenvalues --  -11.20850 -11.20773 -11.20730 -11.20608 -11.20335
 Alpha  occ. eigenvalues --   -1.59949  -1.39505  -1.19428  -1.08829  -1.07827
 Alpha  occ. eigenvalues --   -1.04827  -1.02928  -0.95670  -0.95418  -0.86435
 Alpha  occ. eigenvalues --   -0.86226  -0.82505  -0.78995  -0.77673  -0.77485
 Alpha  occ. eigenvalues --   -0.72143  -0.71257  -0.70535  -0.65083  -0.64832
 Alpha  occ. eigenvalues --   -0.64463  -0.62173  -0.60327  -0.58784  -0.57007
 Alpha  occ. eigenvalues --   -0.55330  -0.54722  -0.53156  -0.52919  -0.52114
 Alpha  occ. eigenvalues --   -0.51838  -0.49380  -0.48914  -0.48902  -0.47352
 Alpha  occ. eigenvalues --   -0.46025  -0.45404  -0.45083  -0.44541  -0.43179
 Alpha  occ. eigenvalues --   -0.37403  -0.36426
 Alpha virt. eigenvalues --    0.04958   0.11175   0.16435   0.21251   0.23342
 Alpha virt. eigenvalues --    0.24769   0.26420   0.27517   0.27723   0.28361
 Alpha virt. eigenvalues --    0.28907   0.30947   0.31708   0.32225   0.32441

 Mulliken charges:
               1
     1  C   -0.298618
     2  C   -0.303614
     3  C   -0.475666
     4  H    0.144587
     5  H    0.148955
     6  H    0.141568
     7  H    0.176209
     8  H    0.155072
     9  H    0.148978
    10  H    0.160808
    11  C   -0.296684
    12  C   -0.299202
    13  C   -0.475113
    14  H    0.142931
    15  H    0.156070
    16  H    0.149585
    17  H    0.152240
    18  H    0.156573
    19  H    0.152132
    20  H    0.158766
    21  C   -0.170645
    22  C   -0.218440
    23  C   -0.170947
    24  C    0.158718
    25  C   -0.171361
    26  C   -0.218666
    27  H    0.225874
    28  H    0.223738
    29  H    0.275742
    30  H    0.276580
    31  H    0.223722
    32  N    0.488280
    33  O   -0.458012
    34  O   -0.460163
 Sum of Mulliken charges =  -0.00000

 Dipole moment (field-independent basis, Debye):
    X=             -2.7766    Y=              3.4442    Z=             -2.6204  Tot=              5.1419
 Quadrupole moment (field-independent basis, Debye-Ang):
   XX=            -79.5449   YY=            -93.0102   ZZ=            -98.0071
   XY=             -7.2118   XZ=              7.2515   YZ=              0.7728

 Normal termination of Gaussian 16 at Wed May  5 17:09:33 2021.
