 Gaussian 16, Revision A.03,
 Gaussian 16:  EM64L-G16RevA.03 25-Dec-2016

 -------------
 #p 6-31g* mp2
 -------------

 ------------------------------------------------------
 Input file generated by CHIRIPA (05-May-2021 14:53:16)
 ------------------------------------------------------
 Symbolic Z-matrix:
 Charge =  0 Multiplicity = 1

                         Standard orientation:
 ---------------------------------------------------------------------
 Center     Atomic      Atomic             Coordinates (Angstroms)
 Number     Number       Type             X           Y           Z
 ---------------------------------------------------------------------
      1          6           0       -4.558135   -0.503111   -0.251912
      2          6           0       -5.625956   -0.936579    0.753000
      3          6           0       -6.223759   -2.305519    0.426764
      4          1           0       -4.997860   -0.482336   -1.258469
      5          1           0       -3.759092   -1.257017   -0.275389
      6          1           0       -6.422072   -0.181394    0.775587
      7          1           0       -5.183689   -0.956140    1.757308
      8          1           0       -5.445100   -3.075117    0.423788
      9          1           0       -6.690519   -2.295969   -0.563511
     10          1           0       -6.984842   -2.595770    1.157768
     11          6           0       -3.951102    0.863437    0.060793
     12          6           0       -2.883281    1.296905   -0.944120
     13          6           0       -2.285479    2.665844   -0.617884
     14          1           0       -4.750145    1.617342    0.084269
     15          1           0       -3.511378    0.842661    1.067349
     16          1           0       -3.325548    1.316465   -1.948427
     17          1           0       -2.087165    0.541719   -0.966706
     18          1           0       -1.818719    2.656294    0.372392
     19          1           0       -3.064138    3.435443   -0.614907
     20          1           0       -1.524395    2.956095   -1.348888
     21          6           0        0.930979    0.642840    0.235081
     22          6           0        1.908536    1.204723    1.062844
     23          6           0        3.237537    0.778269    0.982598
     24          6           0        3.555262   -0.216507    0.059146
     25          6           0        2.603998   -0.795740   -0.779231
     26          6           0        1.281213   -0.353841   -0.681698
     27          1           0       -0.099006    0.980119    0.304132
     28          1           0        1.639427    1.978922    1.775755
     29          1           0        4.014359    1.196129    1.611374
     30          1           0        2.902687   -1.565787   -1.480110
     31          1           0        0.524129   -0.792003   -1.325812
     32          7           0        4.958926   -0.676151   -0.034956
     33          8           0        5.213152   -1.553995   -0.856780
     34          8           0        5.778312   -0.149871    0.714892
 ---------------------------------------------------------------------

 SCF Done:  E(RHF) =  -669.534830187     A.U. after   15 cycles
 E2 =    -0.2092128336D+01 EUMP2 =    -0.67162695852362D+03

 The electronic state is 1-A.
 Alpha  occ. eigenvalues --  -20.60711 -20.60705 -15.85765 -11.31113 -11.27691
 Alpha  occ. eigenvalues --  -11.27686 -11.27340 -11.26687 -11.26676 -11.22973
 Alpha  occ. eigenvalues --  -11.22466 -11.22442 -11.22317 -11.22246 -11.21649
 Alpha  occ. eigenvalues --   -1.59787  -1.39341  -1.19285  -1.09462  -1.08675
 Alpha  occ. eigenvalues --   -1.04691  -1.04554  -0.96986  -0.95513  -0.87993
 Alpha  occ. eigenvalues --   -0.86087  -0.82356  -0.80635  -0.79211  -0.77407
 Alpha  occ. eigenvalues --   -0.71982  -0.71111  -0.70479  -0.66103  -0.64934
 Alpha  occ. eigenvalues --   -0.64699  -0.62065  -0.61949  -0.60363  -0.58563
 Alpha  occ. eigenvalues --   -0.56447  -0.54928  -0.53668  -0.53380  -0.53012
 Alpha  occ. eigenvalues --   -0.52781  -0.50941  -0.48920  -0.48739  -0.48738
 Alpha  occ. eigenvalues --   -0.47709  -0.46751  -0.46657  -0.44770  -0.44750
 Alpha  occ. eigenvalues --   -0.37250  -0.36302
 Alpha virt. eigenvalues --    0.05127   0.11351   0.16598   0.18912   0.22638
 Alpha virt. eigenvalues --    0.23743   0.24488   0.25718   0.26960   0.27971
 Alpha virt. eigenvalues --    0.29112   0.29997   0.30653   0.31328   0.31869

 Mulliken charges:
               1
     1  C   -0.298685
     2  C   -0.300392
     3  C   -0.476309
     4  H    0.151917
     5  H    0.147993
     6  H    0.153563
     7  H    0.152712
     8  H    0.155806
     9  H    0.156251
    10  H    0.162656
    11  C   -0.298403
    12  C   -0.306297
    13  C   -0.482543
    14  H    0.154216
    15  H    0.148078
    16  H    0.159797
    17  H    0.142624
    18  H    0.146967
    19  H    0.164846
    20  H    0.166115
    21  C   -0.177111
    22  C   -0.221624
    23  C   -0.170629
    24  C    0.157922
    25  C   -0.170567
    26  C   -0.223702
    27  H    0.240922
    28  H    0.223013
    29  H    0.275296
    30  H    0.275289
    31  H    0.223622
    32  N    0.488000
    33  O   -0.460697
    34  O   -0.460645
 Sum of Mulliken charges =  -0.00000

 Dipole moment (field-independent basis, Debye):
    X=             -5.2654    Y=              1.6790    Z=              0.2869  Tot=              5.5341
 Quadrupole moment (field-independent basis, Debye-Ang):
   XX=           -128.8290   YY=            -94.2658   ZZ=            -92.1518
   XY=              6.8246   XZ=              2.4696   YZ=              2.2074

 Normal termination of Gaussian 16 at Thu May  6 20:28:55 2021.
