 Gaussian 16, Revision A.03,
 Gaussian 16:  EM64L-G16RevA.03 25-Dec-2016

 -------------
 #p 6-31g* mp2
 -------------

 ------------------------------------------------------
 Input file generated by CHIRIPA (05-May-2021 14:57:22)
 ------------------------------------------------------
 Symbolic Z-matrix:
 Charge =  0 Multiplicity = 1

                         Standard orientation:
 ---------------------------------------------------------------------
 Center     Atomic      Atomic             Coordinates (Angstroms)
 Number     Number       Type             X           Y           Z
 ---------------------------------------------------------------------
      1          6           0        3.585507    2.465719    0.490645
      2          6           0        2.905144    1.670999    1.419110
      3          6           0        2.649251    0.323585    1.147926
      4          6           0        3.089914   -0.198793   -0.067075
      5          6           0        3.770224    0.567270   -1.012387
      6          6           0        4.015119    1.912293   -0.720006
      7          1           0        3.780019    3.511494    0.709540
      8          1           0        2.570334    2.098113    2.360131
      9          1           0        2.124696   -0.314369    1.848836
     10          1           0        4.091670    0.113226   -1.941868
     11          1           0        4.543724    2.527103   -1.442938
     12          7           0        2.824833   -1.623975   -0.365386
     13          8           0        3.223450   -2.060319   -1.443043
     14          8           0        2.223465   -2.277703    0.484104
     15          6           0       -5.289633    1.163379   -0.510033
     16          6           0       -4.068006    1.834041   -0.629873
     17          6           0       -2.867204    1.179374   -0.339987
     18          6           0       -2.925165   -0.152055    0.068949
     19          6           0       -4.126480   -0.847397    0.197915
     20          6           0       -5.314926   -0.172844   -0.097249
     21          1           0       -6.217645    1.679664   -0.737273
     22          1           0       -4.045332    2.871780   -0.950230
     23          1           0       -1.907499    1.674626   -0.424321
     24          1           0       -4.117154   -1.881752    0.519535
     25          1           0       -6.262194   -0.696199   -0.003295
     26          7           0       -1.660470   -0.855647    0.378633
     27          8           0       -1.738490   -2.028734    0.736988
     28          8           0       -0.615129   -0.220715    0.257143
 ---------------------------------------------------------------------

 SCF Done:  E(RHF) =  -868.336958708     A.U. after   16 cycles
 E2 =    -0.2600825035D+01 EUMP2 =    -0.87093778374330D+03

 The electronic state is 1-A.
 Alpha  occ. eigenvalues --  -20.60673 -20.60598 -20.59309 -20.59181 -15.85693
 Alpha  occ. eigenvalues --  -15.84301 -11.31150 -11.29850 -11.27751 -11.27706
 Alpha  occ. eigenvalues --  -11.27490 -11.26780 -11.26745 -11.26589 -11.26423
 Alpha  occ. eigenvalues --  -11.26416 -11.25663 -11.25574  -1.59695  -1.58306
 Alpha  occ. eigenvalues --   -1.39255  -1.37854  -1.19330  -1.18100  -1.08706
 Alpha  occ. eigenvalues --   -1.07479  -1.04748  -1.03556  -0.95528  -0.94272
 Alpha  occ. eigenvalues --   -0.86142  -0.84949  -0.82363  -0.81118  -0.77392
 Alpha  occ. eigenvalues --   -0.76096  -0.71933  -0.71033  -0.70546  -0.70438
 Alpha  occ. eigenvalues --   -0.69591  -0.69265  -0.64985  -0.64751  -0.63777
 Alpha  occ. eigenvalues --   -0.63605  -0.62095  -0.60901  -0.55244  -0.54129
 Alpha  occ. eigenvalues --   -0.53072  -0.52843  -0.51859  -0.51680  -0.48685
 Alpha  occ. eigenvalues --   -0.48619  -0.47331  -0.47250  -0.44651  -0.43195
 Alpha  occ. eigenvalues --   -0.37316  -0.36356  -0.36125  -0.35134
 Alpha virt. eigenvalues --    0.05122   0.06495   0.11297   0.12514   0.16610
 Alpha virt. eigenvalues --    0.17879   0.21422   0.22424   0.27320   0.28279
 Alpha virt. eigenvalues --    0.28352   0.29383   0.30966   0.31902   0.32554

 Mulliken charges:
               1
     1  C   -0.172662
     2  C   -0.222902
     3  C   -0.151345
     4  C    0.161257
     5  C   -0.172367
     6  C   -0.220790
     7  H    0.218988
     8  H    0.217963
     9  H    0.280756
    10  H    0.271788
    11  H    0.217260
    12  N    0.489307
    13  O   -0.470725
    14  O   -0.448308
    15  C   -0.171030
    16  C   -0.218485
    17  C   -0.171670
    18  C    0.158339
    19  C   -0.170527
    20  C   -0.218514
    21  H    0.225228
    22  H    0.222092
    23  H    0.273744
    24  H    0.277282
    25  H    0.223812
    26  N    0.490736
    27  O   -0.449808
    28  O   -0.469420
 Sum of Mulliken charges =  -0.00000

 Dipole moment (field-independent basis, Debye):
    X=             -3.9031    Y=              7.1078    Z=              0.1340  Tot=              8.1100
 Quadrupole moment (field-independent basis, Debye-Ang):
   XX=            -73.2113   YY=           -105.3471   ZZ=           -102.2015
   XY=             11.0672   XZ=              3.5463   YZ=             -2.1298

 Normal termination of Gaussian 16 at Fri May  7 01:47:48 2021.
