 Gaussian 16, Revision A.03,
 Gaussian 16:  EM64L-G16RevA.03 25-Dec-2016

 -------------
 #p 6-31g* mp2
 -------------

 ------------------------------------------------------
 Input file generated by CHIRIPA (05-May-2021 14:51:14)
 ------------------------------------------------------
 Symbolic Z-matrix:
 Charge =  0 Multiplicity = 1

                         Standard orientation:
 ---------------------------------------------------------------------
 Center     Atomic      Atomic             Coordinates (Angstroms)
 Number     Number       Type             X           Y           Z
 ---------------------------------------------------------------------
      1          6           0       -2.850944    1.083040   -0.192855
      2          6           0       -1.981015    1.342699    1.037505
      3          6           0       -0.923739    2.420738    0.797104
      4          1           0       -2.207812    0.787024   -1.032915
      5          1           0       -3.342187    2.019851   -0.490279
      6          1           0       -1.492642    0.405371    1.333349
      7          1           0       -2.626311    1.637946    1.874785
      8          1           0       -1.396373    3.369730    0.523916
      9          1           0       -0.256262    2.130152   -0.020597
     10          1           0       -0.313171    2.590323    1.689465
     11          6           0       -3.912632    0.007839    0.031846
     12          6           0       -4.782561   -0.251820   -1.198514
     13          6           0       -5.839837   -1.329859   -0.958113
     14          1           0       -3.421389   -0.928971    0.329270
     15          1           0       -4.555764    0.303855    0.871906
     16          1           0       -4.137265   -0.547066   -2.035794
     17          1           0       -5.270934    0.685508   -1.494358
     18          1           0       -6.507314   -1.039273   -0.140412
     19          1           0       -5.367203   -2.278851   -0.684925
     20          1           0       -6.450405   -1.499444   -1.850474
     21          6           0        3.819010   -0.464710   -0.540584
     22          6           0        5.065210    0.387492   -0.298258
     23          6           0        5.929792    0.539816   -1.550093
     24          1           0        4.125175   -1.456894   -0.899443
     25          1           0        3.223972   -0.011162   -1.345333
     26          1           0        5.657019   -0.066774    0.506739
     27          1           0        4.756052    1.377699    0.060249
     28          1           0        5.360448    1.013859   -2.356153
     29          1           0        6.266536   -0.438822   -1.907126
     30          1           0        6.815242    1.152611   -1.354338
     31          6           0        2.944566   -0.626169    0.701593
     32          6           0        1.698365   -1.478371    0.459267
     33          6           0        0.833784   -1.630695    1.711102
     34          1           0        3.539603   -1.079718    1.506342
     35          1           0        2.638402    0.366015    1.060452
     36          1           0        2.007525   -2.468578    0.100760
     37          1           0        1.106557   -1.024106   -0.345731
     38          1           0        0.497040   -0.652057    2.068135
     39          1           0        1.403127   -2.104739    2.517163
     40          1           0       -0.051666   -2.243490    1.515347
 ---------------------------------------------------------------------

 SCF Done:  E(RHF) =  -470.733201327     A.U. after   11 cycles
 E2 =    -0.1583100553D+01 EUMP2 =    -0.47231630188003D+03

 The electronic state is 1-A.
 Alpha  occ. eigenvalues --  -11.21654 -11.21608 -11.21599 -11.21552 -11.21424
 Alpha  occ. eigenvalues --  -11.21401 -11.21364 -11.21342 -11.21123 -11.21110
 Alpha  occ. eigenvalues --  -11.21076 -11.21069  -1.08462  -1.08419  -1.03587
 Alpha  occ. eigenvalues --   -1.03507  -0.96025  -0.95975  -0.87043  -0.86990
 Alpha  occ. eigenvalues --   -0.79669  -0.79552  -0.78276  -0.78227  -0.65208
 Alpha  occ. eigenvalues --   -0.64958  -0.61202  -0.60705  -0.59376  -0.59358
 Alpha  occ. eigenvalues --   -0.57654  -0.57569  -0.55391  -0.55181  -0.52717
 Alpha  occ. eigenvalues --   -0.52677  -0.52432  -0.52412  -0.50095  -0.49823
 Alpha  occ. eigenvalues --   -0.47986  -0.47860  -0.46811  -0.46459  -0.45846
 Alpha  occ. eigenvalues --   -0.45762  -0.45746  -0.45587  -0.43811  -0.43785
 Alpha virt. eigenvalues --    0.20009   0.23151   0.23697   0.25205   0.26230
 Alpha virt. eigenvalues --    0.26384   0.26467   0.27800   0.28352   0.29202
 Alpha virt. eigenvalues --    0.30860   0.31064   0.31603   0.31865   0.32278

 Mulliken charges:
               1
     1  C   -0.297669
     2  C   -0.307890
     3  C   -0.476526
     4  H    0.149049
     5  H    0.149331
     6  H    0.161245
     7  H    0.151825
     8  H    0.155706
     9  H    0.154750
    10  H    0.159679
    11  C   -0.298403
    12  C   -0.299669
    13  C   -0.475699
    14  H    0.149639
    15  H    0.149744
    16  H    0.151892
    17  H    0.151919
    18  H    0.155206
    19  H    0.155164
    20  H    0.160242
    21  C   -0.298238
    22  C   -0.299753
    23  C   -0.475725
    24  H    0.149620
    25  H    0.149275
    26  H    0.151932
    27  H    0.152284
    28  H    0.155222
    29  H    0.155130
    30  H    0.160339
    31  C   -0.299226
    32  C   -0.300042
    33  C   -0.480247
    34  H    0.149610
    35  H    0.151056
    36  H    0.152230
    37  H    0.151532
    38  H    0.160173
    39  H    0.155893
    40  H    0.159399
 Sum of Mulliken charges =  -0.00000

 Dipole moment (field-independent basis, Debye):
    X=              0.0126    Y=             -0.0084    Z=              0.0196  Tot=              0.0248
 Quadrupole moment (field-independent basis, Debye-Ang):
   XX=            -85.2523   YY=            -84.2124   ZZ=            -85.2824
   XY=             -1.6773   XZ=              0.5377   YZ=              0.1778

 Normal termination of Gaussian 16 at Thu May  6 07:12:20 2021.
