 Gaussian 16, Revision A.03,
 Gaussian 16:  EM64L-G16RevA.03 25-Dec-2016

 -------------
 #p 6-31g* mp2
 -------------

 ------------------------------------------------------
 Input file generated by CHIRIPA (05-May-2021 14:57:22)
 ------------------------------------------------------
 Symbolic Z-matrix:
 Charge =  0 Multiplicity = 1

                         Standard orientation:
 ---------------------------------------------------------------------
 Center     Atomic      Atomic             Coordinates (Angstroms)
 Number     Number       Type             X           Y           Z
 ---------------------------------------------------------------------
      1          6           0       -4.735364    1.693457   -0.326895
      2          6           0       -4.683242    0.945683    0.854054
      3          6           0       -3.711122   -0.044387    1.025200
      4          6           0       -2.802723   -0.261179   -0.009741
      5          6           0       -2.828864    0.467205   -1.198043
      6          6           0       -3.809641    1.452256   -1.347375
      7          1           0       -5.493892    2.460618   -0.451372
      8          1           0       -5.400883    1.130827    1.648256
      9          1           0       -3.648016   -0.637971    1.929132
     10          1           0       -2.099916    0.259721   -1.971996
     11          1           0       -3.847734    2.031448   -2.265597
     12          7           0       -1.769001   -1.306666    0.159897
     13          8           0       -0.980155   -1.478306   -0.766871
     14          8           0       -1.767190   -1.934681    1.216415
     15          6           0        3.777290    2.430975    0.521161
     16          6           0        3.901364    1.900191   -0.767014
     17          6           0        3.459211    0.603645   -1.046329
     18          6           0        2.895346   -0.137555   -0.009040
     19          6           0        2.757950    0.363272    1.284631
     20          6           0        3.206985    1.662177    1.541074
     21          1           0        4.123437    3.439080    0.729256
     22          1           0        4.343870    2.494959   -1.561045
     23          1           0        3.543109    0.168020   -2.034564
     24          1           0        2.312606   -0.253763    2.055573
     25          1           0        3.109353    2.071800    2.542434
     26          7           0        2.423616   -1.511400   -0.292631
     27          8           0        1.930425   -2.144017    0.638602
     28          8           0        2.555998   -1.929587   -1.440774
 ---------------------------------------------------------------------

 SCF Done:  E(RHF) =  -868.335259673     A.U. after   16 cycles
 E2 =    -0.2601444758D+01 EUMP2 =    -0.87093670443046D+03

 The electronic state is 1-A.
 Alpha  occ. eigenvalues --  -20.60134 -20.60117 -20.59376 -20.59288 -15.85201
 Alpha  occ. eigenvalues --  -15.84409 -11.30874 -11.30333 -11.27481 -11.27472
 Alpha  occ. eigenvalues --  -11.27278 -11.26979 -11.26943 -11.26832 -11.26563
 Alpha  occ. eigenvalues --  -11.26553 -11.26129 -11.26110  -1.59194  -1.58369
 Alpha  occ. eigenvalues --   -1.38747  -1.37927  -1.19076  -1.18561  -1.08411
 Alpha  occ. eigenvalues --   -1.07851  -1.04523  -1.04049  -0.95191  -0.94592
 Alpha  occ. eigenvalues --   -0.85906  -0.85420  -0.82023  -0.81437  -0.77020
 Alpha  occ. eigenvalues --   -0.76373  -0.71440  -0.70676  -0.70577  -0.70178
 Alpha  occ. eigenvalues --   -0.69668  -0.69587  -0.64717  -0.64523  -0.64201
 Alpha  occ. eigenvalues --   -0.64062  -0.61865  -0.61388  -0.55011  -0.54543
 Alpha  occ. eigenvalues --   -0.52840  -0.52617  -0.52351  -0.52150  -0.48183
 Alpha  occ. eigenvalues --   -0.48130  -0.47385  -0.47342  -0.44111  -0.43174
 Alpha  occ. eigenvalues --   -0.37078  -0.36573  -0.36143  -0.35686
 Alpha virt. eigenvalues --    0.05502   0.06193   0.11506   0.11962   0.16940
 Alpha virt. eigenvalues --    0.17582   0.21619   0.22023   0.27509   0.27895
 Alpha virt. eigenvalues --    0.28539   0.28976   0.31147   0.31535   0.32790

 Mulliken charges:
               1
     1  C   -0.171930
     2  C   -0.218673
     3  C   -0.172022
     4  C    0.158332
     5  C   -0.172015
     6  C   -0.218657
     7  H    0.223918
     8  H    0.222033
     9  H    0.275344
    10  H    0.276324
    11  H    0.221932
    12  N    0.487076
    13  O   -0.455204
    14  O   -0.455746
    15  C   -0.173189
    16  C   -0.219159
    17  C   -0.172420
    18  C    0.161609
    19  C   -0.173097
    20  C   -0.219108
    21  H    0.221446
    22  H    0.219606
    23  H    0.274288
    24  H    0.278024
    25  H    0.220135
    26  N    0.493500
    27  O   -0.448669
    28  O   -0.463677
 Sum of Mulliken charges =  -0.00000

 Dipole moment (field-independent basis, Debye):
    X=             -2.0894    Y=              8.1327    Z=              0.4278  Tot=              8.4077
 Quadrupole moment (field-independent basis, Debye-Ang):
   XX=            -76.6003   YY=           -109.2997   ZZ=            -96.4705
   XY=              4.5849   XZ=              1.1670   YZ=             -1.8612

 Normal termination of Gaussian 16 at Thu May  6 08:08:46 2021.
