 Gaussian 16, Revision A.03,
 Gaussian 16:  EM64L-G16RevA.03 25-Dec-2016

 -------------
 #p 6-31g* mp2
 -------------

 ------------------------------------------------------
 Input file generated by CHIRIPA (05-May-2021 14:51:11)
 ------------------------------------------------------
 Symbolic Z-matrix:
 Charge =  0 Multiplicity = 1

                         Standard orientation:
 ---------------------------------------------------------------------
 Center     Atomic      Atomic             Coordinates (Angstroms)
 Number     Number       Type             X           Y           Z
 ---------------------------------------------------------------------
      1          6           0       -2.748424    0.227256   -0.405271
      2          6           0       -4.198350   -0.239755   -0.272603
      3          6           0       -4.482896   -1.516653   -1.064031
      4          1           0       -2.519039    0.393298   -1.466760
      5          1           0       -2.079529   -0.574343   -0.062614
      6          1           0       -4.864358    0.563004   -0.614111
      7          1           0       -4.424367   -0.404520    0.788709
      8          1           0       -3.842388   -2.334667   -0.718774
      9          1           0       -4.284878   -1.361646   -2.129565
     10          1           0       -5.525076   -1.832652   -0.955099
     11          6           0       -2.448472    1.502657    0.380292
     12          6           0       -0.998546    1.969668    0.247623
     13          6           0       -0.713999    3.246566    1.039052
     14          1           0       -3.117367    2.304255    0.037635
     15          1           0       -2.677856    1.336615    1.441780
     16          1           0       -0.772528    2.134433   -0.813689
     17          1           0       -0.332538    1.166909    0.589131
     18          1           0       -0.912018    3.091559    2.104586
     19          1           0       -1.354508    4.064580    0.693794
     20          1           0        0.328180    3.562564    0.930119
     21          6           0        2.794934   -0.276159   -0.432643
     22          6           0        4.222695    0.215574   -0.192471
     23          6           0        4.601031    1.393840   -1.090439
     24          1           0        2.686439   -0.566846   -1.486528
     25          1           0        2.095321    0.554161   -0.263808
     26          1           0        4.919304   -0.615788   -0.360361
     27          1           0        4.327858    0.504944    0.861010
     28          1           0        3.929405    2.241010   -0.917750
     29          1           0        4.524210    1.113909   -2.146062
     30          1           0        5.625650    1.729327   -0.902115
     31          6           0        2.401961   -1.453754    0.457623
     32          6           0        0.974201   -1.945487    0.217450
     33          6           0        0.595865   -3.123752    1.115419
     34          1           0        3.101574   -2.284073    0.288788
     35          1           0        2.510457   -1.163066    1.511508
     36          1           0        0.869038   -2.234857   -0.836031
     37          1           0        0.277592   -1.114124    0.385341
     38          1           0        0.672685   -2.843821    2.171042
     39          1           0        1.267491   -3.970922    0.942730
     40          1           0       -0.428754   -3.459239    0.927094
 ---------------------------------------------------------------------

 SCF Done:  E(RHF) =  -470.732609476     A.U. after   11 cycles
 E2 =    -0.1584396122D+01 EUMP2 =    -0.47231700559862D+03

 The electronic state is 1-A.
 Alpha  occ. eigenvalues --  -11.21644 -11.21605 -11.21588 -11.21579 -11.21423
 Alpha  occ. eigenvalues --  -11.21392 -11.21347 -11.21322 -11.21132 -11.21110
 Alpha  occ. eigenvalues --  -11.21077 -11.21065  -1.08486  -1.08402  -1.03563
 Alpha  occ. eigenvalues --   -1.03535  -0.96017  -0.95976  -0.87024  -0.87000
 Alpha  occ. eigenvalues --   -0.79643  -0.79610  -0.78447  -0.78060  -0.65294
 Alpha  occ. eigenvalues --   -0.64893  -0.61011  -0.60891  -0.59380  -0.59357
 Alpha  occ. eigenvalues --   -0.57693  -0.57528  -0.55340  -0.55226  -0.52725
 Alpha  occ. eigenvalues --   -0.52668  -0.52432  -0.52408  -0.49954  -0.49932
 Alpha  occ. eigenvalues --   -0.48009  -0.47953  -0.46916  -0.46632  -0.46202
 Alpha  occ. eigenvalues --   -0.45768  -0.45736  -0.44904  -0.43811  -0.43769
 Alpha virt. eigenvalues --    0.20774   0.22372   0.23856   0.24231   0.25745
 Alpha virt. eigenvalues --    0.26723   0.26950   0.27227   0.27425   0.29610
 Alpha virt. eigenvalues --    0.30681   0.31505   0.31737   0.31893   0.32732

 Mulliken charges:
               1
     1  C   -0.304642
     2  C   -0.299309
     3  C   -0.475566
     4  H    0.149749
     5  H    0.156421
     6  H    0.151922
     7  H    0.151811
     8  H    0.154903
     9  H    0.155276
    10  H    0.160284
    11  C   -0.297943
    12  C   -0.308638
    13  C   -0.475503
    14  H    0.149762
    15  H    0.149175
    16  H    0.152703
    17  H    0.159591
    18  H    0.155161
    19  H    0.155761
    20  H    0.159744
    21  C   -0.303493
    22  C   -0.299434
    23  C   -0.475575
    24  H    0.149607
    25  H    0.155094
    26  H    0.151869
    27  H    0.151736
    28  H    0.154938
    29  H    0.155188
    30  H    0.160206
    31  C   -0.297215
    32  C   -0.311089
    33  C   -0.475714
    34  H    0.149564
    35  H    0.148854
    36  H    0.152470
    37  H    0.162192
    38  H    0.154804
    39  H    0.155752
    40  H    0.159580
 Sum of Mulliken charges =  -0.00000

 Dipole moment (field-independent basis, Debye):
    X=             -0.0141    Y=              0.0096    Z=             -0.0150  Tot=              0.0227
 Quadrupole moment (field-independent basis, Debye-Ang):
   XX=            -85.0029   YY=            -85.6659   ZZ=            -84.2079
   XY=             -1.0715   XZ=              0.0174   YZ=              0.0336

 Normal termination of Gaussian 16 at Wed May  5 23:06:12 2021.
