 Gaussian 16, Revision A.03,
 Gaussian 16:  EM64L-G16RevA.03 25-Dec-2016

 -------------
 #p 6-31g* mp2
 -------------

 ------------------------------------------------------
 Input file generated by CHIRIPA (05-May-2021 14:57:26)
 ------------------------------------------------------
 Symbolic Z-matrix:
 Charge =  0 Multiplicity = 1

                         Standard orientation:
 ---------------------------------------------------------------------
 Center     Atomic      Atomic             Coordinates (Angstroms)
 Number     Number       Type             X           Y           Z
 ---------------------------------------------------------------------
      1          6           0       -3.435179   -2.375208   -0.341707
      2          6           0       -4.479364   -1.561890   -0.794157
      3          6           0       -4.389032   -0.170218   -0.695988
      4          6           0       -3.234915    0.376972   -0.137518
      5          6           0       -2.177637   -0.406673    0.322215
      6          6           0       -2.289668   -1.796025    0.214056
      7          1           0       -3.513779   -3.455391   -0.421847
      8          1           0       -5.370168   -2.008929   -1.226209
      9          1           0       -5.182467    0.482972   -1.038367
     10          1           0       -1.302129    0.068064    0.748277
     11          1           0       -1.477174   -2.425190    0.566262
     12          7           0       -3.127800    1.849044   -0.028303
     13          8           0       -2.100477    2.306546    0.467619
     14          8           0       -4.073193    2.517480   -0.440689
     15          6           0        5.035349    0.611088   -1.466805
     16          6           0        4.606231    1.474143   -0.453142
     17          6           0        3.619069    1.071705    0.451348
     18          6           0        3.080217   -0.206423    0.312358
     19          6           0        3.486782   -1.089238   -0.686958
     20          6           0        4.475243   -0.665598   -1.580278
     21          1           0        5.802705    0.931946   -2.165096
     22          1           0        5.039441    2.466200   -0.362619
     23          1           0        3.268350    1.719619    1.245465
     24          1           0        3.036227   -2.072192   -0.751920
     25          1           0        4.806561   -1.337980   -2.366520
     26          7           0        2.034464   -0.643689    1.263989
     27          8           0        1.575531   -1.774769    1.120200
     28          8           0        1.693540    0.152941    2.135646
 ---------------------------------------------------------------------

 SCF Done:  E(RHF) =  -868.340668826     A.U. after   16 cycles
 E2 =    -0.2599021352D+01 EUMP2 =    -0.87093969017826D+03

 The electronic state is 1-A.
 Alpha  occ. eigenvalues --  -20.61540 -20.61455 -20.60044 -20.60027 -15.86500
 Alpha  occ. eigenvalues --  -15.85080 -11.31520 -11.30280 -11.28093 -11.28008
 Alpha  occ. eigenvalues --  -11.27748 -11.27020 -11.26960 -11.26896 -11.26669
 Alpha  occ. eigenvalues --  -11.26557 -11.25916 -11.25608  -1.60559  -1.59119
 Alpha  occ. eigenvalues --   -1.40113  -1.38673  -1.19666  -1.18433  -1.09130
 Alpha  occ. eigenvalues --   -1.07874  -1.05016  -1.03775  -0.96017  -0.94732
 Alpha  occ. eigenvalues --   -0.86432  -0.85196  -0.82861  -0.81540  -0.77943
 Alpha  occ. eigenvalues --   -0.76601  -0.72720  -0.71863  -0.71302  -0.70775
 Alpha  occ. eigenvalues --   -0.70440  -0.69551  -0.65324  -0.65020  -0.64071
 Alpha  occ. eigenvalues --   -0.63747  -0.62366  -0.61088  -0.55540  -0.54335
 Alpha  occ. eigenvalues --   -0.53361  -0.53106  -0.52169  -0.51832  -0.49501
 Alpha  occ. eigenvalues --   -0.49454  -0.48066  -0.48047  -0.45575  -0.44115
 Alpha  occ. eigenvalues --   -0.37630  -0.36598  -0.36453  -0.35384
 Alpha virt. eigenvalues --    0.04520   0.05875   0.11061   0.12250   0.16064
 Alpha virt. eigenvalues --    0.17403   0.21188   0.22486   0.27151   0.27868
 Alpha virt. eigenvalues --    0.28632   0.29133   0.30876   0.31878   0.32387

 Mulliken charges:
               1
     1  C   -0.172317
     2  C   -0.219074
     3  C   -0.173075
     4  C    0.157443
     5  C   -0.176821
     6  C   -0.225038
     7  H    0.222689
     8  H    0.219324
     9  H    0.271917
    10  H    0.284589
    11  H    0.241913
    12  N    0.487636
    13  O   -0.459760
    14  O   -0.464690
    15  C   -0.169354
    16  C   -0.218423
    17  C   -0.168083
    18  C    0.157419
    19  C   -0.170549
    20  C   -0.218601
    21  H    0.227356
    22  H    0.226448
    23  H    0.279838
    24  H    0.272988
    25  H    0.223901
    26  N    0.487608
    27  O   -0.471553
    28  O   -0.453729
 Sum of Mulliken charges =  -0.00000

 Dipole moment (field-independent basis, Debye):
    X=              3.8269    Y=             -3.5583    Z=             -3.6212  Tot=              6.3576
 Quadrupole moment (field-independent basis, Debye-Ang):
   XX=            -76.8323   YY=           -106.3418   ZZ=           -106.0227
   XY=             21.2269   XZ=             -6.2201   YZ=              3.9290

 Normal termination of Gaussian 16 at Wed May  5 18:00:58 2021.
