 Gaussian 16, Revision A.03,
 Gaussian 16:  EM64L-G16RevA.03 25-Dec-2016

 -------------
 #p 6-31g* mp2
 -------------

 ------------------------------------------------------
 Input file generated by CHIRIPA (05-May-2021 14:51:08)
 ------------------------------------------------------
 Symbolic Z-matrix:
 Charge =  0 Multiplicity = 1

                         Standard orientation:
 ---------------------------------------------------------------------
 Center     Atomic      Atomic             Coordinates (Angstroms)
 Number     Number       Type             X           Y           Z
 ---------------------------------------------------------------------
      1          6           0        3.483308   -0.060467    0.308094
      2          6           0        4.519140   -0.071418   -0.816592
      3          6           0        5.671489    0.902396   -0.568455
      4          1           0        3.086671    0.957607    0.422759
      5          1           0        3.978981   -0.311423    1.256105
      6          1           0        4.021401    0.178129   -1.762424
      7          1           0        4.913218   -1.089625   -0.928720
      8          1           0        6.193986    0.652249    0.360536
      9          1           0        5.297102    1.927206   -0.477905
     10          1           0        6.400266    0.878320   -1.384643
     11          6           0        2.325126   -1.028846    0.074463
     12          6           0        1.289294   -1.017895    1.199149
     13          6           0        0.136945   -1.991709    0.951012
     14          1           0        1.829453   -0.777890   -0.873548
     15          1           0        2.721763   -2.046921   -0.040202
     16          1           0        0.895216    0.000312    1.311277
     17          1           0        1.787033   -1.267442    2.144981
     18          1           0        0.511332   -3.016520    0.860462
     19          1           0       -0.385552   -1.741563    0.022021
     20          1           0       -0.591833   -1.967633    1.767200
     21          6           0       -2.834735    1.152612    0.265880
     22          6           0       -2.204088    2.362027   -0.425196
     23          6           0       -2.071778    3.570380    0.502258
     24          1           0       -3.825497    1.432688    0.649145
     25          1           0       -2.226999    0.880349    1.139908
     26          1           0       -2.812068    2.631072   -1.298460
     27          1           0       -1.214791    2.078986   -0.807029
     28          1           0       -1.447597    3.325266    1.367658
     29          1           0       -3.053949    3.880490    0.873435
     30          1           0       -1.618622    4.423561   -0.012126
     31          6           0       -2.973699   -0.063299   -0.648437
     32          6           0       -3.604346   -1.272713    0.042639
     33          6           0       -3.736656   -2.481067   -0.884816
     34          1           0       -3.581434    0.208964   -1.522465
     35          1           0       -1.982936   -0.343374   -1.031703
     36          1           0       -4.593643   -0.989672    0.424471
     37          1           0       -2.996365   -1.541759    0.915903
     38          1           0       -2.754485   -2.791176   -1.255992
     39          1           0       -4.360838   -2.235952   -1.750215
     40          1           0       -4.189812   -3.334248   -0.370431
 ---------------------------------------------------------------------

 SCF Done:  E(RHF) =  -470.732596257     A.U. after   11 cycles
 E2 =    -0.1584218609D+01 EUMP2 =    -0.47231681486615D+03

 The electronic state is 1-A.
 Alpha  occ. eigenvalues --  -11.21690 -11.21639 -11.21627 -11.21501 -11.21470
 Alpha  occ. eigenvalues --  -11.21406 -11.21392 -11.21328 -11.21135 -11.21098
 Alpha  occ. eigenvalues --  -11.21096 -11.21009  -1.08507  -1.08404  -1.03611
 Alpha  occ. eigenvalues --   -1.03492  -0.96046  -0.95960  -0.87090  -0.86955
 Alpha  occ. eigenvalues --   -0.79668  -0.79564  -0.78312  -0.78230  -0.65344
 Alpha  occ. eigenvalues --   -0.64897  -0.61124  -0.60783  -0.59440  -0.59303
 Alpha  occ. eigenvalues --   -0.57656  -0.57572  -0.55395  -0.55170  -0.52761
 Alpha  occ. eigenvalues --   -0.52644  -0.52475  -0.52378  -0.50136  -0.49757
 Alpha  occ. eigenvalues --   -0.48003  -0.47888  -0.46704  -0.46595  -0.45919
 Alpha  occ. eigenvalues --   -0.45811  -0.45712  -0.45544  -0.43818  -0.43760
 Alpha virt. eigenvalues --    0.19581   0.22974   0.23590   0.24777   0.25377
 Alpha virt. eigenvalues --    0.26179   0.27382   0.27866   0.28041   0.29708
 Alpha virt. eigenvalues --    0.30374   0.30819   0.31748   0.32200   0.32417

 Mulliken charges:
               1
     1  C   -0.298380
     2  C   -0.299720
     3  C   -0.475762
     4  H    0.149733
     5  H    0.149743
     6  H    0.152024
     7  H    0.152043
     8  H    0.155244
     9  H    0.155304
    10  H    0.160412
    11  C   -0.298549
    12  C   -0.300962
    13  C   -0.482321
    14  H    0.149036
    15  H    0.150090
    16  H    0.152086
    17  H    0.152465
    18  H    0.155680
    19  H    0.161481
    20  H    0.161443
    21  C   -0.299718
    22  C   -0.299689
    23  C   -0.475712
    24  H    0.149872
    25  H    0.150945
    26  H    0.152147
    27  H    0.151037
    28  H    0.154942
    29  H    0.155444
    30  H    0.160197
    31  C   -0.300482
    32  C   -0.303534
    33  C   -0.476523
    34  H    0.149692
    35  H    0.150567
    36  H    0.151569
    37  H    0.157394
    38  H    0.155917
    39  H    0.154690
    40  H    0.160155
 Sum of Mulliken charges =  -0.00000

 Dipole moment (field-independent basis, Debye):
    X=              0.0236    Y=             -0.0183    Z=              0.0177  Tot=              0.0347
 Quadrupole moment (field-independent basis, Debye-Ang):
   XX=            -84.4988   YY=            -85.4656   ZZ=            -84.7871
   XY=             -1.4547   XZ=              0.3471   YZ=             -1.0270

 Normal termination of Gaussian 16 at Thu May  6 00:31:19 2021.
