 Gaussian 16, Revision A.03,
 Gaussian 16:  EM64L-G16RevA.03 25-Dec-2016

 -------------
 #p 6-31g* mp2
 -------------

 ------------------------------------------------------
 Input file generated by CHIRIPA (05-May-2021 14:51:14)
 ------------------------------------------------------
 Symbolic Z-matrix:
 Charge =  0 Multiplicity = 1

                         Standard orientation:
 ---------------------------------------------------------------------
 Center     Atomic      Atomic             Coordinates (Angstroms)
 Number     Number       Type             X           Y           Z
 ---------------------------------------------------------------------
      1          6           0        3.754799   -0.349851    0.173471
      2          6           0        3.046194   -0.805184    1.449612
      3          6           0        1.703914   -1.482276    1.170998
      4          1           0        3.100502    0.341660   -0.374847
      5          1           0        3.910171   -1.218545   -0.481223
      6          1           0        2.893444    0.063879    2.102308
      7          1           0        3.702332   -1.495543    1.995051
      8          1           0        1.841939   -2.366099    0.539803
      9          1           0        1.028455   -0.797817    0.647669
     10          1           0        1.214560   -1.799802    2.097049
     11          6           0        5.098051    0.328876    0.435641
     12          6           0        5.806656    0.784209   -0.840499
     13          6           0        7.148936    1.461300   -0.561886
     14          1           0        4.942679    1.197570    1.090335
     15          1           0        5.752348   -0.362635    0.983959
     16          1           0        5.150518    1.474567   -1.385939
     17          1           0        5.959406   -0.084854   -1.493196
     18          1           0        7.824395    0.776842   -0.038557
     19          1           0        7.010911    2.345124    0.069309
     20          1           0        7.638290    1.778827   -1.487936
     21          6           0       -5.164028   -0.015600   -0.107849
     22          6           0       -5.721866    1.337619    0.334417
     23          6           0       -7.198596    1.269245    0.724786
     24          1           0       -5.752562   -0.387621   -0.957657
     25          1           0       -5.295916   -0.742321    0.705709
     26          1           0       -5.587713    2.061921   -0.479221
     27          1           0       -5.131816    1.706551    1.183148
     28          1           0       -7.346235    0.567803    1.552302
     29          1           0       -7.804722    0.925192   -0.119513
     30          1           0       -7.576858    2.247459    1.037637
     31          6           0       -3.688823    0.036575   -0.501263
     32          6           0       -3.130983   -1.316644   -0.943529
     33          6           0       -1.654254   -1.248270   -1.333898
     34          1           0       -3.556934    0.763297   -1.314820
     35          1           0       -3.100289    0.408596    0.348545
     36          1           0       -3.721034   -1.685576   -1.792260
     37          1           0       -3.265138   -2.040945   -0.129891
     38          1           0       -1.048128   -0.904216   -0.489600
     39          1           0       -1.506615   -0.546828   -2.161415
     40          1           0       -1.275992   -2.226483   -1.646750
 ---------------------------------------------------------------------

 SCF Done:  E(RHF) =  -470.733181151     A.U. after   11 cycles
 E2 =    -0.1582236280D+01 EUMP2 =    -0.47231541743090D+03

 The electronic state is 1-A.
 Alpha  occ. eigenvalues --  -11.21590 -11.21587 -11.21586 -11.21555 -11.21386
 Alpha  occ. eigenvalues --  -11.21384 -11.21327 -11.21324 -11.21062 -11.21060
 Alpha  occ. eigenvalues --  -11.21043 -11.20984  -1.08415  -1.08403  -1.03526
 Alpha  occ. eigenvalues --   -1.03488  -0.95996  -0.95918  -0.87038  -0.86912
 Alpha  occ. eigenvalues --   -0.79635  -0.79508  -0.78238  -0.78205  -0.65064
 Alpha  occ. eigenvalues --   -0.65018  -0.60996  -0.60830  -0.59333  -0.59314
 Alpha  occ. eigenvalues --   -0.57635  -0.57515  -0.55411  -0.55104  -0.52690
 Alpha  occ. eigenvalues --   -0.52641  -0.52498  -0.52248  -0.50079  -0.49721
 Alpha  occ. eigenvalues --   -0.47996  -0.47772  -0.46706  -0.46475  -0.45815
 Alpha  occ. eigenvalues --   -0.45724  -0.45699  -0.45619  -0.43771  -0.43753
 Alpha virt. eigenvalues --    0.22465   0.22972   0.23624   0.24661   0.25920
 Alpha virt. eigenvalues --    0.26779   0.26987   0.27611   0.27682   0.28984
 Alpha virt. eigenvalues --    0.30154   0.31504   0.31817   0.31954   0.32181

 Mulliken charges:
               1
     1  C   -0.298319
     2  C   -0.299563
     3  C   -0.479735
     4  H    0.149971
     5  H    0.149663
     6  H    0.151611
     7  H    0.151801
     8  H    0.155820
     9  H    0.159570
    10  H    0.159602
    11  C   -0.298291
    12  C   -0.299648
    13  C   -0.475696
    14  H    0.149428
    15  H    0.149579
    16  H    0.152003
    17  H    0.151955
    18  H    0.155140
    19  H    0.155142
    20  H    0.160224
    21  C   -0.298256
    22  C   -0.299636
    23  C   -0.475690
    24  H    0.149639
    25  H    0.149562
    26  H    0.151843
    27  H    0.151867
    28  H    0.155187
    29  H    0.155172
    30  H    0.160180
    31  C   -0.298356
    32  C   -0.299289
    33  C   -0.481030
    34  H    0.149308
    35  H    0.149404
    36  H    0.151615
    37  H    0.152048
    38  H    0.161425
    39  H    0.154345
    40  H    0.160410
 Sum of Mulliken charges =  -0.00000

 Dipole moment (field-independent basis, Debye):
    X=              0.0109    Y=             -0.0084    Z=             -0.0006  Tot=              0.0138
 Quadrupole moment (field-independent basis, Debye-Ang):
   XX=            -86.7245   YY=            -84.1855   ZZ=            -83.9916
   XY=             -0.8814   XZ=              0.4793   YZ=             -0.1990

 Normal termination of Gaussian 16 at Wed May  5 18:26:00 2021.
