 Gaussian 16, Revision A.03,
 Gaussian 16:  EM64L-G16RevA.03 25-Dec-2016

 -------------
 #p 6-31g* mp2
 -------------

 ------------------------------------------------------
 Input file generated by CHIRIPA (05-May-2021 14:53:17)
 ------------------------------------------------------
 Symbolic Z-matrix:
 Charge =  0 Multiplicity = 1

                         Standard orientation:
 ---------------------------------------------------------------------
 Center     Atomic      Atomic             Coordinates (Angstroms)
 Number     Number       Type             X           Y           Z
 ---------------------------------------------------------------------
      1          6           0        3.667443   -0.133925    0.346489
      2          6           0        5.089396   -0.600178    0.032417
      3          6           0        5.381032   -2.005126    0.560492
      4          1           0        3.512231   -0.158039    1.433813
      5          1           0        2.951441   -0.845648   -0.087315
      6          1           0        5.802485    0.112955    0.465501
      7          1           0        5.241304   -0.574768   -1.054273
      8          1           0        4.692624   -2.733127    0.119232
      9          1           0        5.256993   -2.041496    1.647641
     10          1           0        6.402896   -2.318452    0.324951
     11          6           0        3.360767    1.268819   -0.175035
     12          6           0        1.938814    1.735072    0.139038
     13          6           0        1.647179    3.140020   -0.389037
     14          1           0        4.076770    1.980541    0.258770
     15          1           0        3.515979    1.292933   -1.262358
     16          1           0        1.786906    1.709662    1.225728
     17          1           0        1.225725    1.021939   -0.294046
     18          1           0        1.771218    3.176390   -1.476186
     19          1           0        2.335587    3.868020    0.052223
     20          1           0        0.625314    3.453345   -0.153496
     21          6           0       -4.007347    1.681662    0.440822
     22          6           0       -2.743671    1.743520   -0.155682
     23          6           0       -2.035389    0.572556   -0.441559
     24          6           0       -2.623394   -0.648753   -0.116066
     25          6           0       -3.880618   -0.743175    0.478713
     26          6           0       -4.570794    0.440700    0.755561
     27          1           0       -4.550525    2.596311    0.659392
     28          1           0       -2.303628    2.705872   -0.401214
     29          1           0       -1.055498    0.591510   -0.902939
     30          1           0       -4.293323   -1.717204    0.711864
     31          1           0       -5.552014    0.389627    1.218857
     32          7           0       -1.883151   -1.895234   -0.413932
     33          8           0       -2.423094   -2.958791   -0.117372
     34          8           0       -0.777024   -1.785069   -0.938319
 ---------------------------------------------------------------------

 SCF Done:  E(RHF) =  -669.535739752     A.U. after   15 cycles
 E2 =    -0.2091698852D+01 EUMP2 =    -0.67162743860346D+03

 The electronic state is 1-A.
 Alpha  occ. eigenvalues --  -20.60817 -20.60810 -15.85863 -11.31191 -11.27766
 Alpha  occ. eigenvalues --  -11.27741 -11.27505 -11.26777 -11.26762 -11.21800
 Alpha  occ. eigenvalues --  -11.21552 -11.21312 -11.21250 -11.20991 -11.20638
 Alpha  occ. eigenvalues --   -1.59885  -1.39441  -1.19366  -1.08769  -1.08296
 Alpha  occ. eigenvalues --   -1.04766  -1.03473  -0.95920  -0.95608  -0.86938
 Alpha  occ. eigenvalues --   -0.86167  -0.82441  -0.79563  -0.78050  -0.77485
 Alpha  occ. eigenvalues --   -0.72085  -0.71202  -0.70486  -0.65021  -0.64974
 Alpha  occ. eigenvalues --   -0.64732  -0.62163  -0.60841  -0.59339  -0.57514
 Alpha  occ. eigenvalues --   -0.55288  -0.55171  -0.53094  -0.52897  -0.52657
 Alpha  occ. eigenvalues --   -0.52325  -0.49839  -0.48843  -0.48837  -0.47856
 Alpha  occ. eigenvalues --   -0.46571  -0.45602  -0.45466  -0.44839  -0.43695
 Alpha  occ. eigenvalues --   -0.37348  -0.36359
 Alpha virt. eigenvalues --    0.05015   0.11256   0.16503   0.19690   0.23170
 Alpha virt. eigenvalues --    0.24032   0.25807   0.26308   0.27244   0.28345
 Alpha virt. eigenvalues --    0.29287   0.29724   0.31494   0.31747   0.32751

 Mulliken charges:
               1
     1  C   -0.302379
     2  C   -0.299625
     3  C   -0.476397
     4  H    0.148393
     5  H    0.162835
     6  H    0.149319
     7  H    0.152079
     8  H    0.160357
     9  H    0.154344
    10  H    0.158773
    11  C   -0.297213
    12  C   -0.307170
    13  C   -0.477235
    14  H    0.148373
    15  H    0.150494
    16  H    0.153638
    17  H    0.156169
    18  H    0.156626
    19  H    0.158900
    20  H    0.149391
    21  C   -0.170615
    22  C   -0.222562
    23  C   -0.174171
    24  C    0.157432
    25  C   -0.170462
    26  C   -0.218697
    27  H    0.225748
    28  H    0.225461
    29  H    0.283765
    30  H    0.275555
    31  H    0.223440
    32  N    0.488004
    33  O   -0.459828
    34  O   -0.462743
 Sum of Mulliken charges =  -0.00000

 Dipole moment (field-independent basis, Debye):
    X=             -2.5666    Y=              4.2709    Z=              1.0499  Tot=              5.0922
 Quadrupole moment (field-independent basis, Debye-Ang):
   XX=            -78.4245   YY=           -100.5154   ZZ=            -94.4156
   XY=             -7.3112   XZ=             -4.1280   YZ=             -1.6368

 Normal termination of Gaussian 16 at Thu May  6 05:57:16 2021.
