 Gaussian 16, Revision A.03,
 Gaussian 16:  EM64L-G16RevA.03 25-Dec-2016

 -------------
 #p 6-31g* mp2
 -------------

 ------------------------------------------------------
 Input file generated by CHIRIPA (05-May-2021 14:57:22)
 ------------------------------------------------------
 Symbolic Z-matrix:
 Charge =  0 Multiplicity = 1

                         Standard orientation:
 ---------------------------------------------------------------------
 Center     Atomic      Atomic             Coordinates (Angstroms)
 Number     Number       Type             X           Y           Z
 ---------------------------------------------------------------------
      1          6           0       -3.692350    1.943263    0.720750
      2          6           0       -2.373152    2.075276    0.274868
      3          6           0       -1.698696    0.983691   -0.280199
      4          6           0       -2.376775   -0.230638   -0.374560
      5          6           0       -3.691008   -0.393764    0.060723
      6          6           0       -4.345915    0.711337    0.612446
      7          1           0       -4.208690    2.796482    1.150641
      8          1           0       -1.863095    3.030797    0.357726
      9          1           0       -0.677315    1.058009   -0.633292
     10          1           0       -4.173228   -1.359012   -0.035075
     11          1           0       -5.370411    0.605892    0.957895
     12          7           0       -1.673107   -1.393404   -0.960415
     13          8           0       -2.292641   -2.452476   -1.032402
     14          8           0       -0.515362   -1.223692   -1.336528
     15          6           0        3.133376    1.917745   -1.279506
     16          6           0        2.772471    2.196902    0.042741
     17          6           0        2.415694    1.163849    0.914556
     18          6           0        2.430815   -0.142630    0.428579
     19          6           0        2.785662   -0.452802   -0.883354
     20          6           0        3.138809    0.596113   -1.737527
     21          1           0        3.409118    2.726406   -1.949900
     22          1           0        2.767354    3.222346    0.401188
     23          1           0        2.132121    1.351692    1.943011
     24          1           0        2.781305   -1.485048   -1.211784
     25          1           0        3.418655    0.376352   -2.763898
     26          7           0        2.055032   -1.244673    1.342191
     27          8           0        2.076339   -2.387213    0.889656
     28          8           0        1.746303   -0.945048    2.493516
 ---------------------------------------------------------------------

 SCF Done:  E(RHF) =  -868.337895131     A.U. after   16 cycles
 E2 =    -0.2602024978D+01 EUMP2 =    -0.87093992010891D+03

 The electronic state is 1-A.
 Alpha  occ. eigenvalues --  -20.60672 -20.60622 -20.60192 -20.60101 -15.85698
 Alpha  occ. eigenvalues --  -15.85202 -11.31058 -11.30698 -11.27638 -11.27622
 Alpha  occ. eigenvalues --  -11.27453 -11.27410 -11.27204 -11.27194 -11.26698
 Alpha  occ. eigenvalues --  -11.26646 -11.26513 -11.26300  -1.59705  -1.59216
 Alpha  occ. eigenvalues --   -1.39270  -1.38762  -1.19239  -1.18945  -1.08641
 Alpha  occ. eigenvalues --   -1.08316  -1.04653  -1.04368  -0.95478  -0.95114
 Alpha  occ. eigenvalues --   -0.86056  -0.85753  -0.82321  -0.81948  -0.77366
 Alpha  occ. eigenvalues --   -0.76947  -0.71963  -0.71432  -0.71068  -0.70456
 Alpha  occ. eigenvalues --   -0.70364  -0.70057  -0.64908  -0.64674  -0.64594
 Alpha  occ. eigenvalues --   -0.64379  -0.62011  -0.61694  -0.55172  -0.54901
 Alpha  occ. eigenvalues --   -0.52978  -0.52915  -0.52527  -0.52456  -0.48683
 Alpha  occ. eigenvalues --   -0.48663  -0.48216  -0.48157  -0.44742  -0.44072
 Alpha  occ. eigenvalues --   -0.37224  -0.36954  -0.36268  -0.35928
 Alpha virt. eigenvalues --    0.05181   0.05597   0.11327   0.11746   0.16642
 Alpha virt. eigenvalues --    0.17053   0.21400   0.21779   0.27213   0.27687
 Alpha virt. eigenvalues --    0.28252   0.28707   0.30790   0.31304   0.32361

 Mulliken charges:
               1
     1  C   -0.170134
     2  C   -0.218834
     3  C   -0.173910
     4  C    0.159766
     5  C   -0.169106
     6  C   -0.218351
     7  H    0.224665
     8  H    0.219403
     9  H    0.277339
    10  H    0.276573
    11  H    0.223595
    12  N    0.492475
    13  O   -0.455681
    14  O   -0.468975
    15  C   -0.173559
    16  C   -0.225218
    17  C   -0.179050
    18  C    0.159478
    19  C   -0.151420
    20  C   -0.220959
    21  H    0.223073
    22  H    0.218338
    23  H    0.272576
    24  H    0.283893
    25  H    0.224491
    26  N    0.487870
    27  O   -0.450284
    28  O   -0.468055
 Sum of Mulliken charges =  -0.00000

 Dipole moment (field-independent basis, Debye):
    X=             -1.2223    Y=              7.5069    Z=             -1.3125  Tot=              7.7182
 Quadrupole moment (field-independent basis, Debye-Ang):
   XX=            -83.8986   YY=           -105.0101   ZZ=           -107.7116
   XY=              1.5081   XZ=            -13.2037   YZ=              2.6271

 Normal termination of Gaussian 16 at Wed May  5 20:59:00 2021.
