 Gaussian 16, Revision A.03,
 Gaussian 16:  EM64L-G16RevA.03 25-Dec-2016

 -------------
 #p 6-31g* mp2
 -------------

 ------------------------------------------------------
 Input file generated by CHIRIPA (05-May-2021 14:55:18)
 ------------------------------------------------------
 Symbolic Z-matrix:
 Charge =  0 Multiplicity = 1

                         Standard orientation:
 ---------------------------------------------------------------------
 Center     Atomic      Atomic             Coordinates (Angstroms)
 Number     Number       Type             X           Y           Z
 ---------------------------------------------------------------------
      1          6           0        3.452299    2.328836    0.897657
      2          6           0        4.383077    1.586598    0.163318
      3          6           0        4.018269    0.370815   -0.422632
      4          6           0        2.708305   -0.074877   -0.253395
      5          6           0        1.758103    0.641761    0.472440
      6          6           0        2.145088    1.854885    1.049607
      7          1           0        3.744304    3.272253    1.349426
      8          1           0        5.398973    1.952222    0.043661
      9          1           0        4.718689   -0.223983   -0.996256
     10          1           0        0.752772    0.251445    0.574328
     11          1           0        1.420120    2.429201    1.619368
     12          7           0        2.310361   -1.360565   -0.869065
     13          8           0        1.150062   -1.731402   -0.705284
     14          8           0        3.166286   -1.973104   -1.503750
     15          6           0       -3.254651   -0.879490    0.204198
     16          6           0       -2.429804   -1.173283    1.457712
     17          6           0       -1.844402   -2.585753    1.462545
     18          1           0       -4.067114   -1.614933    0.126919
     19          1           0       -2.621982   -1.018228   -0.683426
     20          1           0       -3.063461   -1.032687    2.342771
     21          1           0       -1.619326   -0.436937    1.532119
     22          1           0       -1.190035   -2.734523    0.597518
     23          1           0       -2.642376   -3.333659    1.412775
     24          1           0       -1.258549   -2.774431    2.367552
     25          6           0       -3.846509    0.528720    0.184731
     26          6           0       -4.671356    0.822513   -1.068783
     27          6           0       -5.256759    2.234984   -1.073617
     28          1           0       -4.479179    0.667458    1.072355
     29          1           0       -3.034047    1.264164    0.262011
     30          1           0       -5.481834    0.086167   -1.143190
     31          1           0       -4.037700    0.681918   -1.953842
     32          1           0       -4.458786    2.982890   -1.023847
     33          1           0       -5.911126    2.383754   -0.208589
     34          1           0       -5.842611    2.423661   -1.978623
 ---------------------------------------------------------------------

 SCF Done:  E(RHF) =  -669.535997101     A.U. after   15 cycles
 E2 =    -0.2091755742D+01 EUMP2 =    -0.67162775284300D+03

 The electronic state is 1-A.
 Alpha  occ. eigenvalues --  -20.60919 -20.60907 -15.85961 -11.31266 -11.27831
 Alpha  occ. eigenvalues --  -11.27823 -11.27567 -11.26837 -11.26826 -11.21470
 Alpha  occ. eigenvalues --  -11.21345 -11.21270 -11.21026 -11.21016 -11.20225
 Alpha  occ. eigenvalues --   -1.59981  -1.39538  -1.19436  -1.08842  -1.08191
 Alpha  occ. eigenvalues --   -1.04831  -1.03234  -0.95706  -0.95625  -0.86655
 Alpha  occ. eigenvalues --   -0.86232  -0.82525  -0.79320  -0.78006  -0.77579
 Alpha  occ. eigenvalues --   -0.72196  -0.71296  -0.70548  -0.65099  -0.64907
 Alpha  occ. eigenvalues --   -0.64753  -0.62192  -0.60607  -0.59050  -0.57272
 Alpha  occ. eigenvalues --   -0.55338  -0.54902  -0.53163  -0.52925  -0.52340
 Alpha  occ. eigenvalues --   -0.52061  -0.49566  -0.48940  -0.48915  -0.47619
 Alpha  occ. eigenvalues --   -0.46357  -0.45573  -0.45425  -0.44940  -0.43501
 Alpha  occ. eigenvalues --   -0.37415  -0.36432
 Alpha virt. eigenvalues --    0.04948   0.11220   0.16445   0.19694   0.22855
 Alpha virt. eigenvalues --    0.24086   0.25977   0.27367   0.27860   0.28431
 Alpha virt. eigenvalues --    0.29209   0.30710   0.31482   0.32002   0.32386

 Mulliken charges:
               1
     1  C   -0.170381
     2  C   -0.218956
     3  C   -0.169994
     4  C    0.156978
     5  C   -0.177113
     6  C   -0.221004
     7  H    0.225986
     8  H    0.223745
     9  H    0.275762
    10  H    0.285638
    11  H    0.224090
    12  N    0.493304
    13  O   -0.467197
    14  O   -0.458983
    15  C   -0.301248
    16  C   -0.297441
    17  C   -0.485731
    18  H    0.150556
    19  H    0.158897
    20  H    0.149155
    21  H    0.138551
    22  H    0.184559
    23  H    0.151840
    24  H    0.155379
    25  C   -0.296465
    26  C   -0.299775
    27  C   -0.475327
    28  H    0.148265
    29  H    0.142190
    30  H    0.153000
    31  H    0.153889
    32  H    0.152792
    33  H    0.154491
    34  H    0.160546
 Sum of Mulliken charges =  -0.00000

 Dipole moment (field-independent basis, Debye):
    X=              1.5239    Y=              4.3916    Z=              2.0260  Tot=              5.0708
 Quadrupole moment (field-independent basis, Debye-Ang):
   XX=            -82.5688   YY=            -96.6926   ZZ=            -96.0116
   XY=             12.8405   XZ=              3.5006   YZ=             -0.8029

 Normal termination of Gaussian 16 at Wed May  5 15:48:46 2021.
