 Gaussian 16, Revision A.03,
 Gaussian 16:  EM64L-G16RevA.03 25-Dec-2016

 -------------
 #p 6-31g* mp2
 -------------

 ------------------------------------------------------
 Input file generated by CHIRIPA (05-May-2021 14:55:20)
 ------------------------------------------------------
 Symbolic Z-matrix:
 Charge =  0 Multiplicity = 1

                         Standard orientation:
 ---------------------------------------------------------------------
 Center     Atomic      Atomic             Coordinates (Angstroms)
 Number     Number       Type             X           Y           Z
 ---------------------------------------------------------------------
      1          6           0        1.373531    0.406977    2.056904
      2          6           0        1.498245    1.258414    0.954170
      3          6           0        2.385348    0.952627   -0.082214
      4          6           0        3.135632   -0.218053    0.017142
      5          6           0        3.033841   -1.086496    1.102838
      6          6           0        2.140375   -0.760702    2.127594
      7          1           0        0.681937    0.652290    2.857475
      8          1           0        0.903975    2.165923    0.896596
      9          1           0        2.501720    1.594014   -0.947372
     10          1           0        3.639631   -1.984039    1.132040
     11          1           0        2.045598   -1.423802    2.982791
     12          7           0        4.078137   -0.552366   -1.073876
     13          8           0        4.727831   -1.589738   -0.962542
     14          8           0        4.149331    0.229301   -2.019690
     15          6           0       -3.699998    0.954249   -0.371421
     16          6           0       -2.272794    1.405616   -0.059428
     17          6           0       -2.058759    2.899817   -0.303041
     18          1           0       -3.932959    1.193641   -1.418019
     19          1           0       -4.402771    1.531593    0.245167
     20          1           0       -1.572838    0.826624   -0.675417
     21          1           0       -2.043139    1.164949    0.986495
     22          1           0       -2.733938    3.492712    0.322426
     23          1           0       -2.260964    3.152465   -1.348929
     24          1           0       -1.031814    3.200912   -0.073723
     25          6           0       -3.929560   -0.537087   -0.132784
     26          6           0       -5.356764   -0.988453   -0.444779
     27          6           0       -5.570800   -2.482654   -0.201165
     28          1           0       -3.226788   -1.114430   -0.749373
     29          1           0       -3.696599   -0.776478    0.913813
     30          1           0       -5.586419   -0.747785   -1.490701
     31          1           0       -6.056721   -0.409460    0.171211
     32          1           0       -5.368593   -2.735302    0.844723
     33          1           0       -4.895620   -3.075550   -0.826632
     34          1           0       -6.597745   -2.783748   -0.430483
 ---------------------------------------------------------------------

 SCF Done:  E(RHF) =  -669.535356236     A.U. after   15 cycles
 E2 =    -0.2091774379D+01 EUMP2 =    -0.67162713061497D+03

 The electronic state is 1-A.
 Alpha  occ. eigenvalues --  -20.60752 -20.60747 -15.85805 -11.31167 -11.27734
 Alpha  occ. eigenvalues --  -11.27726 -11.27473 -11.26751 -11.26724 -11.22354
 Alpha  occ. eigenvalues --  -11.22001 -11.21982 -11.21960 -11.21838 -11.21390
 Alpha  occ. eigenvalues --   -1.59827  -1.39381  -1.19338  -1.08989  -1.08731
 Alpha  occ. eigenvalues --   -1.04744  -1.04115  -0.96573  -0.95568  -0.87586
 Alpha  occ. eigenvalues --   -0.86138  -0.82402  -0.80179  -0.78772  -0.77451
 Alpha  occ. eigenvalues --   -0.72023  -0.71151  -0.70445  -0.65611  -0.64989
 Alpha  occ. eigenvalues --   -0.64788  -0.62149  -0.61501  -0.59942  -0.58174
 Alpha  occ. eigenvalues --   -0.55836  -0.55242  -0.53367  -0.53091  -0.53049
 Alpha  occ. eigenvalues --   -0.52641  -0.50489  -0.48781  -0.48778  -0.48496
 Alpha  occ. eigenvalues --   -0.47201  -0.46322  -0.46219  -0.44787  -0.44369
 Alpha  occ. eigenvalues --   -0.37303  -0.36327
 Alpha virt. eigenvalues --    0.05072   0.11251   0.16519   0.19753   0.22613
 Alpha virt. eigenvalues --    0.23865   0.25725   0.25990   0.26757   0.28159
 Alpha virt. eigenvalues --    0.28722   0.29746   0.30986   0.31605   0.32073

 Mulliken charges:
               1
     1  C   -0.172270
     2  C   -0.218804
     3  C   -0.174125
     4  C    0.158636
     5  C   -0.171078
     6  C   -0.218589
     7  H    0.225649
     8  H    0.230333
     9  H    0.275539
    10  H    0.275488
    11  H    0.223274
    12  N    0.488094
    13  O   -0.460559
    14  O   -0.460498
    15  C   -0.299128
    16  C   -0.300294
    17  C   -0.478629
    18  H    0.152432
    19  H    0.149798
    20  H    0.157490
    21  H    0.144742
    22  H    0.158053
    23  H    0.161453
    24  H    0.150038
    25  C   -0.298435
    26  C   -0.300134
    27  C   -0.475999
    28  H    0.152090
    29  H    0.147491
    30  H    0.153472
    31  H    0.151920
    32  H    0.154388
    33  H    0.156568
    34  H    0.161593
 Sum of Mulliken charges =  -0.00000

 Dipole moment (field-independent basis, Debye):
    X=             -3.4637    Y=              1.1290    Z=              3.7773  Tot=              5.2478
 Quadrupole moment (field-independent basis, Debye-Ang):
   XX=           -115.6320   YY=            -93.1923   ZZ=            -93.0067
   XY=              2.7621   XZ=             12.8281   YZ=             -2.9365

 Normal termination of Gaussian 16 at Wed May  5 18:55:26 2021.
