 Gaussian 16, Revision A.03,
 Gaussian 16:  EM64L-G16RevA.03 25-Dec-2016

 -------------
 #p 6-31g* mp2
 -------------

 ------------------------------------------------------
 Input file generated by CHIRIPA (05-May-2021 14:55:19)
 ------------------------------------------------------
 Symbolic Z-matrix:
 Charge =  0 Multiplicity = 1

                         Standard orientation:
 ---------------------------------------------------------------------
 Center     Atomic      Atomic             Coordinates (Angstroms)
 Number     Number       Type             X           Y           Z
 ---------------------------------------------------------------------
      1          6           0        3.917615   -0.295984   -1.657312
      2          6           0        3.710220    0.854384   -0.889092
      3          6           0        2.819749    0.837504    0.188556
      4          6           0        2.150444   -0.352235    0.471122
      5          6           0        2.335666   -1.514773   -0.275529
      6          6           0        3.230887   -1.474813   -1.348623
      7          1           0        4.611199   -0.273907   -2.492686
      8          1           0        4.242164    1.771287   -1.126513
      9          1           0        2.640298    1.713611    0.799827
     10          1           0        1.790877   -2.413933   -0.014503
     11          1           0        3.389972   -2.369720   -1.943499
     12          7           0        1.205228   -0.382321    1.609569
     13          8           0        0.627830   -1.443024    1.837951
     14          8           0        1.059665    0.655369    2.251946
     15          6           0       -3.166938   -0.201755   -0.017098
     16          6           0       -3.901993   -1.170088   -0.944465
     17          6           0       -4.325640   -2.458322   -0.238225
     18          1           0       -2.281413   -0.702364    0.397848
     19          1           0       -3.815940    0.042651    0.835226
     20          1           0       -3.252323   -1.411515   -1.795499
     21          1           0       -4.785766   -0.667052   -1.357402
     22          1           0       -4.994144   -2.236250    0.599860
     23          1           0       -3.451988   -2.984942    0.159274
     24          1           0       -4.849344   -3.136107   -0.919547
     25          6           0       -2.737004    1.090781   -0.708643
     26          6           0       -2.001949    2.059115    0.218724
     27          6           0       -1.578303    3.347348   -0.487516
     28          1           0       -2.088002    0.846374   -1.560968
     29          1           0       -3.622530    1.591391   -1.123589
     30          1           0       -1.118176    1.556079    0.631660
     31          1           0       -2.651620    2.300541    1.069757
     32          1           0       -2.451954    3.873968   -0.885015
     33          1           0       -0.909798    3.125277   -1.325602
     34          1           0       -1.054598    4.025133    0.193806
 ---------------------------------------------------------------------

 SCF Done:  E(RHF) =  -669.536493411     A.U. after   15 cycles
 E2 =    -0.2092085367D+01 EUMP2 =    -0.67162857877804D+03

 The electronic state is 1-A.
 Alpha  occ. eigenvalues --  -20.61062 -20.61056 -15.86054 -11.31340 -11.27900
 Alpha  occ. eigenvalues --  -11.27892 -11.27628 -11.26897 -11.26886 -11.21019
 Alpha  occ. eigenvalues --  -11.20784 -11.20721 -11.20577 -11.20555 -11.20479
 Alpha  occ. eigenvalues --   -1.60102  -1.39660  -1.19505  -1.08918  -1.07741
 Alpha  occ. eigenvalues --   -1.04894  -1.02891  -0.95765  -0.95364  -0.86383
 Alpha  occ. eigenvalues --   -0.86297  -0.82600  -0.78937  -0.77667  -0.77516
 Alpha  occ. eigenvalues --   -0.72280  -0.71415  -0.70613  -0.65161  -0.64896
 Alpha  occ. eigenvalues --   -0.64376  -0.62241  -0.60302  -0.58721  -0.56955
 Alpha  occ. eigenvalues --   -0.55401  -0.54669  -0.53229  -0.52984  -0.52078
 Alpha  occ. eigenvalues --   -0.51780  -0.49322  -0.49055  -0.49043  -0.47282
 Alpha  occ. eigenvalues --   -0.46081  -0.45100  -0.45036  -0.44789  -0.43133
 Alpha  occ. eigenvalues --   -0.37482  -0.36492
 Alpha virt. eigenvalues --    0.04838   0.11148   0.16299   0.21263   0.23391
 Alpha virt. eigenvalues --    0.24834   0.27117   0.27224   0.27860   0.28411
 Alpha virt. eigenvalues --    0.28604   0.30925   0.31861   0.32168   0.32439

 Mulliken charges:
               1
     1  C   -0.170448
     2  C   -0.218578
     3  C   -0.170917
     4  C    0.157565
     5  C   -0.170915
     6  C   -0.218587
     7  H    0.226268
     8  H    0.224254
     9  H    0.276437
    10  H    0.275714
    11  H    0.224036
    12  N    0.487138
    13  O   -0.458503
    14  O   -0.456226
    15  C   -0.302223
    16  C   -0.298561
    17  C   -0.475792
    18  H    0.160514
    19  H    0.150775
    20  H    0.147341
    21  H    0.149379
    22  H    0.155835
    23  H    0.158740
    24  H    0.156343
    25  C   -0.298414
    26  C   -0.304138
    27  C   -0.475502
    28  H    0.143640
    29  H    0.146487
    30  H    0.162481
    31  H    0.154088
    32  H    0.153041
    33  H    0.148853
    34  H    0.159875
 Sum of Mulliken charges =  -0.00000

 Dipole moment (field-independent basis, Debye):
    X=              3.5278    Y=              0.0295    Z=             -3.8188  Tot=              5.1990
 Quadrupole moment (field-independent basis, Debye-Ang):
   XX=            -80.5145   YY=            -91.3830   ZZ=            -99.2074
   XY=             -0.5482   XZ=             -7.6987   YZ=              3.1659

 Normal termination of Gaussian 16 at Thu May  6 14:02:30 2021.
