 Gaussian 16, Revision A.03,
 Gaussian 16:  EM64L-G16RevA.03 25-Dec-2016

 -------------
 #p 6-31g* mp2
 -------------

 ------------------------------------------------------
 Input file generated by CHIRIPA (05-May-2021 14:57:23)
 ------------------------------------------------------
 Symbolic Z-matrix:
 Charge =  0 Multiplicity = 1

                         Standard orientation:
 ---------------------------------------------------------------------
 Center     Atomic      Atomic             Coordinates (Angstroms)
 Number     Number       Type             X           Y           Z
 ---------------------------------------------------------------------
      1          6           0        3.157033    2.561943    0.593526
      2          6           0        4.420749    2.245741    0.084058
      3          6           0        4.743704    0.925920   -0.245066
      4          6           0        3.774522   -0.057112   -0.051102
      5          6           0        2.506749    0.226315    0.454576
      6          6           0        2.205743    1.553000    0.776835
      7          1           0        2.914679    3.589877    0.846531
      8          1           0        5.161512    3.027246   -0.059350
      9          1           0        5.714354    0.653233   -0.641170
     10          1           0        1.789165   -0.574365    0.586492
     11          1           0        1.223519    1.795643    1.172317
     12          7           0        4.104802   -1.457980   -0.395897
     13          8           0        3.233352   -2.305766   -0.215694
     14          8           0        5.228870   -1.681670   -0.839823
     15          6           0       -1.637835   -1.480860    0.561422
     16          6           0       -1.532549   -0.177973    0.063505
     17          6           0       -2.679527    0.555585   -0.254116
     18          6           0       -3.921392   -0.047403   -0.060554
     19          6           0       -4.059029   -1.343547    0.433769
     20          6           0       -2.898516   -2.058471    0.744642
     21          1           0       -0.741578   -2.043468    0.805537
     22          1           0       -0.554800    0.273150   -0.079804
     23          1           0       -2.626905    1.565961   -0.641142
     24          1           0       -5.047521   -1.766450    0.565890
     25          1           0       -2.983311   -3.070130    1.131166
     26          7           0       -5.142811    0.719318   -0.393234
     27          8           0       -6.225227    0.165459   -0.213641
     28          8           0       -4.994615    1.859615   -0.827281
 ---------------------------------------------------------------------

 SCF Done:  E(RHF) =  -868.337138550     A.U. after   16 cycles
 E2 =    -0.2600597267D+01 EUMP2 =    -0.87093773581642D+03

 The electronic state is 1-A.
 Alpha  occ. eigenvalues --  -20.61628 -20.61598 -20.61019 -20.61008 -15.86673
 Alpha  occ. eigenvalues --  -15.86074 -11.32104 -11.31479 -11.28801 -11.28608
 Alpha  occ. eigenvalues --  -11.28356 -11.28125 -11.28035 -11.27807 -11.27747
 Alpha  occ. eigenvalues --  -11.27604 -11.27168 -11.27014  -1.60684  -1.60091
 Alpha  occ. eigenvalues --   -1.40240  -1.39644  -1.20272  -1.19668  -1.09630
 Alpha  occ. eigenvalues --   -1.09052  -1.05711  -1.05088  -0.96469  -0.95875
 Alpha  occ. eigenvalues --   -0.87079  -0.86500  -0.83322  -0.82711  -0.78394
 Alpha  occ. eigenvalues --   -0.77747  -0.72891  -0.72293  -0.72004  -0.71416
 Alpha  occ. eigenvalues --   -0.71379  -0.70750  -0.65949  -0.65701  -0.65324
 Alpha  occ. eigenvalues --   -0.65161  -0.63109  -0.62339  -0.56134  -0.55567
 Alpha  occ. eigenvalues --   -0.54007  -0.53793  -0.53396  -0.53162  -0.49658
 Alpha  occ. eigenvalues --   -0.49633  -0.49053  -0.49043  -0.45632  -0.45041
 Alpha  occ. eigenvalues --   -0.38202  -0.37635  -0.37298  -0.36695
 Alpha virt. eigenvalues --    0.04150   0.04798   0.10350   0.10915   0.15498
 Alpha virt. eigenvalues --    0.16243   0.18366   0.22136   0.24873   0.25708
 Alpha virt. eigenvalues --    0.27589   0.29117   0.30365   0.31281   0.32543

 Mulliken charges:
               1
     1  C   -0.169780
     2  C   -0.217856
     3  C   -0.169061
     4  C    0.159250
     5  C   -0.174295
     6  C   -0.222884
     7  H    0.229973
     8  H    0.227570
     9  H    0.278713
    10  H    0.269177
    11  H    0.223391
    12  N    0.488458
    13  O   -0.464524
    14  O   -0.455774
    15  C   -0.174274
    16  C   -0.226299
    17  C   -0.171780
    18  C    0.158748
    19  C   -0.169898
    20  C   -0.218365
    21  H    0.232796
    22  H    0.219869
    23  H    0.274554
    24  H    0.277146
    25  H    0.227072
    26  N    0.488112
    27  O   -0.458969
    28  O   -0.461069
 Sum of Mulliken charges =  -0.00000

 Dipole moment (field-independent basis, Debye):
    X=              3.3420    Y=              2.2467    Z=              2.3725  Tot=              4.6739
 Quadrupole moment (field-independent basis, Debye-Ang):
   XX=           -140.0668   YY=           -101.8509   ZZ=           -105.8651
   XY=             34.1597   XZ=             -2.7912   YZ=             -1.9455

 Normal termination of Gaussian 16 at Thu May  6 11:19:07 2021.
