 Gaussian 16, Revision A.03,
 Gaussian 16:  EM64L-G16RevA.03 25-Dec-2016

 -------------
 #p 6-31g* mp2
 -------------

 ------------------------------------------------------
 Input file generated by CHIRIPA (05-May-2021 14:53:12)
 ------------------------------------------------------
 Symbolic Z-matrix:
 Charge =  0 Multiplicity = 1

                         Standard orientation:
 ---------------------------------------------------------------------
 Center     Atomic      Atomic             Coordinates (Angstroms)
 Number     Number       Type             X           Y           Z
 ---------------------------------------------------------------------
      1          6           0       -2.544479   -0.692088   -0.302369
      2          6           0       -3.282775   -1.568891    0.709620
      3          6           0       -2.826419   -3.027693    0.671815
      4          1           0       -2.697135   -1.099499   -1.311159
      5          1           0       -1.464999   -0.744810   -0.104031
      6          1           0       -4.360649   -1.513439    0.510298
      7          1           0       -3.128501   -1.159236    1.716098
      8          1           0       -1.756691   -3.102539    0.892456
      9          1           0       -2.995839   -3.458755   -0.320194
     10          1           0       -3.367075   -3.636558    1.403139
     11          6           0       -2.989713    0.769018   -0.276606
     12          6           0       -2.251418    1.645821   -1.288594
     13          6           0       -2.707774    3.104623   -1.250790
     14          1           0       -4.069194    0.821740   -0.474943
     15          1           0       -2.837057    1.176429    0.732185
     16          1           0       -2.405691    1.236166   -2.295072
     17          1           0       -1.173544    1.590369   -1.089273
     18          1           0       -2.538353    3.535685   -0.258780
     19          1           0       -3.777501    3.179469   -1.471431
     20          1           0       -2.167117    3.713488   -1.982114
     21          6           0        1.364756    1.441680    2.114193
     22          6           0        0.730706    0.220441    1.863042
     23          6           0        1.163859   -0.603078    0.819613
     24          6           0        2.238849   -0.172332    0.043634
     25          6           0        2.891166    1.038880    0.268886
     26          6           0        2.441064    1.846289    1.317718
     27          1           0        1.021689    2.075152    2.926851
     28          1           0       -0.105413   -0.096339    2.479970
     29          1           0        0.691173   -1.553408    0.603142
     30          1           0        3.722081    1.327738   -0.363220
     31          1           0        2.935381    2.794207    1.510455
     32          7           0        2.706379   -1.035628   -1.063857
     33          8           0        3.655616   -0.633410   -1.733041
     34          8           0        2.114740   -2.098150   -1.241754
 ---------------------------------------------------------------------

 SCF Done:  E(RHF) =  -669.534634889     A.U. after   15 cycles
 E2 =    -0.2093965591D+01 EUMP2 =    -0.67162860048067D+03

 The electronic state is 1-A.
 Alpha  occ. eigenvalues --  -20.60818 -20.60812 -15.85874 -11.31283 -11.27857
 Alpha  occ. eigenvalues --  -11.27850 -11.27602 -11.26885 -11.26865 -11.22056
 Alpha  occ. eigenvalues --  -11.21771 -11.21698 -11.21626 -11.21479 -11.21299
 Alpha  occ. eigenvalues --   -1.59893  -1.39445  -1.19469  -1.08848  -1.08753
 Alpha  occ. eigenvalues --   -1.04883  -1.03849  -0.96294  -0.95677  -0.87309
 Alpha  occ. eigenvalues --   -0.86268  -0.82512  -0.79904  -0.78574  -0.77540
 Alpha  occ. eigenvalues --   -0.72091  -0.71217  -0.70579  -0.65473  -0.65086
 Alpha  occ. eigenvalues --   -0.64873  -0.62244  -0.61219  -0.59655  -0.57897
 Alpha  occ. eigenvalues --   -0.55620  -0.55363  -0.53234  -0.52996  -0.52945
 Alpha  occ. eigenvalues --   -0.52694  -0.50255  -0.48854  -0.48844  -0.48213
 Alpha  occ. eigenvalues --   -0.46949  -0.46084  -0.46018  -0.44835  -0.44090
 Alpha  occ. eigenvalues --   -0.37440  -0.36398
 Alpha virt. eigenvalues --    0.04950   0.11102   0.16349   0.19152   0.22965
 Alpha virt. eigenvalues --    0.23489   0.25472   0.25832   0.27742   0.28368
 Alpha virt. eigenvalues --    0.29070   0.30259   0.31364   0.31521   0.32195

 Mulliken charges:
               1
     1  C   -0.305044
     2  C   -0.301051
     3  C   -0.475690
     4  H    0.155583
     5  H    0.150479
     6  H    0.155150
     7  H    0.143865
     8  H    0.149738
     9  H    0.161996
    10  H    0.161669
    11  C   -0.296138
    12  C   -0.301630
    13  C   -0.475413
    14  H    0.150674
    15  H    0.143028
    16  H    0.155102
    17  H    0.154786
    18  H    0.151587
    19  H    0.155708
    20  H    0.161493
    21  C   -0.171166
    22  C   -0.218200
    23  C   -0.174452
    24  C    0.157467
    25  C   -0.170896
    26  C   -0.218405
    27  H    0.226199
    28  H    0.225357
    29  H    0.280023
    30  H    0.276120
    31  H    0.224044
    32  N    0.487965
    33  O   -0.460179
    34  O   -0.459770
 Sum of Mulliken charges =  -0.00000

 Dipole moment (field-independent basis, Debye):
    X=             -1.6237    Y=              3.0139    Z=              3.7905  Tot=              5.1076
 Quadrupole moment (field-independent basis, Debye-Ang):
   XX=            -99.4119   YY=            -94.9508   ZZ=            -94.3092
   XY=             10.6045   XZ=              8.6364   YZ=             -0.9684

 Normal termination of Gaussian 16 at Thu May  6 08:49:47 2021.
