 Gaussian 16, Revision A.03,
 Gaussian 16:  EM64L-G16RevA.03 25-Dec-2016

 -------------
 #p 6-31g* mp2
 -------------

 ------------------------------------------------------
 Input file generated by CHIRIPA (05-May-2021 14:53:13)
 ------------------------------------------------------
 Symbolic Z-matrix:
 Charge =  0 Multiplicity = 1

                         Standard orientation:
 ---------------------------------------------------------------------
 Center     Atomic      Atomic             Coordinates (Angstroms)
 Number     Number       Type             X           Y           Z
 ---------------------------------------------------------------------
      1          6           0       -3.597493   -0.611105    0.078855
      2          6           0       -3.057694   -2.006455   -0.236740
      3          6           0       -3.907149   -3.121132    0.374581
      4          1           0       -3.645837   -0.481453    1.168716
      5          1           0       -4.629053   -0.532245   -0.291362
      6          1           0       -2.026981   -2.082195    0.132733
      7          1           0       -3.010449   -2.132729   -1.325978
      8          1           0       -4.933834   -3.074038   -0.002648
      9          1           0       -3.944778   -3.023216    1.464351
     10          1           0       -3.503288   -4.110122    0.136559
     11          6           0       -2.758980    0.513816   -0.525444
     12          6           0       -3.298779    1.909166   -0.209849
     13          6           0       -2.449324    3.023843   -0.821171
     14          1           0       -1.727420    0.434957   -0.155227
     15          1           0       -2.710636    0.384165   -1.615306
     16          1           0       -3.346025    2.035441    0.879389
     17          1           0       -4.329492    1.984906   -0.579322
     18          1           0       -2.411695    2.925928   -1.910940
     19          1           0       -1.422639    2.976750   -0.443941
     20          1           0       -2.853185    4.012833   -0.583148
     21          6           0        1.205530    2.073130    0.944032
     22          6           0        0.698863    0.793272    1.192569
     23          6           0        1.398156   -0.341449    0.770734
     24          6           0        2.606498   -0.158745    0.100049
     25          6           0        3.137394    1.103196   -0.162524
     26          6           0        2.421036    2.223742    0.268470
     27          1           0        0.655674    2.949104    1.275282
     28          1           0       -0.244865    0.673285    1.716998
     29          1           0        1.028933   -1.343932    0.949953
     30          1           0        4.080776    1.190990   -0.687633
     31          1           0        2.816933    3.216475    0.074070
     32          7           0        3.355841   -1.352521   -0.351378
     33          8           0        4.418174   -1.164697   -0.940282
     34          8           0        2.866655   -2.453420   -0.107753
 ---------------------------------------------------------------------

 SCF Done:  E(RHF) =  -669.534481584     A.U. after   15 cycles
 E2 =    -0.2093877797D+01 EUMP2 =    -0.67162835938055D+03

 The electronic state is 1-A.
 Alpha  occ. eigenvalues --  -20.60825 -20.60820 -15.85880 -11.31287 -11.27857
 Alpha  occ. eigenvalues --  -11.27843 -11.27593 -11.26878 -11.26868 -11.22291
 Alpha  occ. eigenvalues --  -11.22035 -11.21918 -11.21850 -11.21788 -11.21368
 Alpha  occ. eigenvalues --   -1.59899  -1.39451  -1.19467  -1.09006  -1.08841
 Alpha  occ. eigenvalues --   -1.04878  -1.04072  -0.96514  -0.95678  -0.87532
 Alpha  occ. eigenvalues --   -0.86272  -0.82515  -0.80136  -0.78795  -0.77544
 Alpha  occ. eigenvalues --   -0.72097  -0.71221  -0.70573  -0.65780  -0.65118
 Alpha  occ. eigenvalues --   -0.64797  -0.62211  -0.61482  -0.59875  -0.58110
 Alpha  occ. eigenvalues --   -0.55927  -0.55286  -0.53249  -0.53173  -0.53039
 Alpha  occ. eigenvalues --   -0.52845  -0.50462  -0.48859  -0.48849  -0.48435
 Alpha  occ. eigenvalues --   -0.47188  -0.46310  -0.46264  -0.44847  -0.44312
 Alpha  occ. eigenvalues --   -0.37398  -0.36403
 Alpha virt. eigenvalues --    0.04923   0.11080   0.16221   0.19152   0.22927
 Alpha virt. eigenvalues --    0.23371   0.25490   0.26367   0.26589   0.28065
 Alpha virt. eigenvalues --    0.29898   0.31005   0.31165   0.31274   0.31759

 Mulliken charges:
               1
     1  C   -0.299011
     2  C   -0.298760
     3  C   -0.476205
     4  H    0.145066
     5  H    0.152178
     6  H    0.146872
     7  H    0.156224
     8  H    0.156336
     9  H    0.153906
    10  H    0.164288
    11  C   -0.306818
    12  C   -0.299977
    13  C   -0.478829
    14  H    0.152019
    15  H    0.153763
    16  H    0.146087
    17  H    0.155682
    18  H    0.159860
    19  H    0.150062
    20  H    0.160229
    21  C   -0.171495
    22  C   -0.217878
    23  C   -0.171916
    24  C    0.159352
    25  C   -0.170360
    26  C   -0.219251
    27  H    0.227261
    28  H    0.225941
    29  H    0.276871
    30  H    0.276124
    31  H    0.224384
    32  N    0.488039
    33  O   -0.460062
    34  O   -0.459980
 Sum of Mulliken charges =  -0.00000

 Dipole moment (field-independent basis, Debye):
    X=             -2.6127    Y=              4.1418    Z=              1.4949  Tot=              5.1201
 Quadrupole moment (field-independent basis, Debye-Ang):
   XX=           -105.9829   YY=            -95.4838   ZZ=            -93.7708
   XY=             13.7704   XZ=              3.3549   YZ=             -0.7378

 Normal termination of Gaussian 16 at Thu May  6 08:56:29 2021.
