 Gaussian 16, Revision A.03,
 Gaussian 16:  EM64L-G16RevA.03 25-Dec-2016

 -------------
 #p 6-31g* mp2
 -------------

 ------------------------------------------------------
 Input file generated by CHIRIPA (05-May-2021 14:57:21)
 ------------------------------------------------------
 Symbolic Z-matrix:
 Charge =  0 Multiplicity = 1

                         Standard orientation:
 ---------------------------------------------------------------------
 Center     Atomic      Atomic             Coordinates (Angstroms)
 Number     Number       Type             X           Y           Z
 ---------------------------------------------------------------------
      1          6           0       -2.443676    2.178569    1.000175
      2          6           0       -1.578263    1.180952    0.539370
      3          6           0       -2.083862    0.025254   -0.063356
      4          6           0       -3.466433   -0.100597   -0.189640
      5          6           0       -4.354444    0.875657    0.259419
      6          6           0       -3.826567    2.023012    0.858978
      7          1           0       -2.042262    3.073103    1.467157
      8          1           0       -0.503851    1.299065    0.647694
      9          1           0       -1.436634   -0.762682   -0.428967
     10          1           0       -5.420829    0.729522    0.137408
     11          1           0       -4.501042    2.796137    1.215916
     12          7           0       -4.013480   -1.319667   -0.826042
     13          8           0       -5.235447   -1.406569   -0.925455
     14          8           0       -3.209931   -2.165188   -1.213392
     15          6           0        2.628590   -1.565922    1.997579
     16          6           0        3.598722   -2.025891    1.101034
     17          6           0        4.020560   -1.222410    0.037541
     18          6           0        3.448557    0.041369   -0.100172
     19          6           0        2.480053    0.527932    0.776496
     20          6           0        2.073330   -0.292722    1.832740
     21          1           0        2.306767   -2.196756    2.820911
     22          1           0        4.031681   -3.014236    1.226599
     23          1           0        4.769894   -1.553546   -0.671165
     24          1           0        2.066765    1.517783    0.625480
     25          1           0        1.319733    0.067111    2.527474
     26          7           0        3.887136    0.901068   -1.222208
     27          8           0        3.367744    2.010559   -1.321710
     28          8           0        4.741982    0.449133   -1.980910
 ---------------------------------------------------------------------

 SCF Done:  E(RHF) =  -868.337132314     A.U. after   16 cycles
 E2 =    -0.2600392108D+01 EUMP2 =    -0.87093752442176D+03

 The electronic state is 1-A.
 Alpha  occ. eigenvalues --  -20.61340 -20.61320 -20.60979 -20.60973 -15.86392
 Alpha  occ. eigenvalues --  -15.86036 -11.31882 -11.31446 -11.28560 -11.28380
 Alpha  occ. eigenvalues --  -11.28139 -11.28043 -11.28024 -11.27809 -11.27544
 Alpha  occ. eigenvalues --  -11.27392 -11.27106 -11.27034  -1.60405  -1.60054
 Alpha  occ. eigenvalues --   -1.39957  -1.39606  -1.20051  -1.19637  -1.09399
 Alpha  occ. eigenvalues --   -1.09028  -1.05495  -1.05047  -0.96226  -0.95848
 Alpha  occ. eigenvalues --   -0.86854  -0.86459  -0.83079  -0.82675  -0.78134
 Alpha  occ. eigenvalues --   -0.77702  -0.72605  -0.72253  -0.71730  -0.71378
 Alpha  occ. eigenvalues --   -0.71134  -0.70744  -0.65717  -0.65468  -0.65293
 Alpha  occ. eigenvalues --   -0.65095  -0.62911  -0.62306  -0.55917  -0.55558
 Alpha  occ. eigenvalues --   -0.53803  -0.53583  -0.53360  -0.53114  -0.49374
 Alpha  occ. eigenvalues --   -0.49354  -0.49017  -0.49003  -0.45336  -0.45001
 Alpha  occ. eigenvalues --   -0.37988  -0.37627  -0.37099  -0.36643
 Alpha virt. eigenvalues --    0.04390   0.04825   0.10530   0.10978   0.15753
 Alpha virt. eigenvalues --    0.16296   0.19254   0.21920   0.25014   0.27348
 Alpha virt. eigenvalues --    0.27997   0.28875   0.30188   0.31050   0.31831

 Mulliken charges:
               1
     1  C   -0.171664
     2  C   -0.222286
     3  C   -0.172530
     4  C    0.158761
     5  C   -0.170294
     6  C   -0.218426
     7  H    0.226110
     8  H    0.220352
     9  H    0.277463
    10  H    0.276626
    11  H    0.224646
    12  N    0.488098
    13  O   -0.459699
    14  O   -0.460108
    15  C   -0.170114
    16  C   -0.217070
    17  C   -0.169638
    18  C    0.160368
    19  C   -0.179207
    20  C   -0.219890
    21  H    0.229652
    22  H    0.227708
    23  H    0.278830
    24  H    0.269697
    25  H    0.222589
    26  N    0.488299
    27  O   -0.461720
    28  O   -0.456551
 Sum of Mulliken charges =  -0.00000

 Dipole moment (field-independent basis, Debye):
    X=              0.5245    Y=              1.0709    Z=              6.1537  Tot=              6.2682
 Quadrupole moment (field-independent basis, Debye-Ang):
   XX=           -121.7295   YY=           -103.3881   ZZ=           -107.2459
   XY=            -30.9228   XZ=              3.8870   YZ=              0.7077

 Normal termination of Gaussian 16 at Thu May  6 14:28:38 2021.
