 Gaussian 16, Revision A.03,
 Gaussian 16:  EM64L-G16RevA.03 25-Dec-2016

 -------------
 #p 6-31g* mp2
 -------------

 ------------------------------------------------------
 Input file generated by CHIRIPA (05-May-2021 14:55:24)
 ------------------------------------------------------
 Symbolic Z-matrix:
 Charge =  0 Multiplicity = 1

                         Standard orientation:
 ---------------------------------------------------------------------
 Center     Atomic      Atomic             Coordinates (Angstroms)
 Number     Number       Type             X           Y           Z
 ---------------------------------------------------------------------
      1          6           0        0.640024    0.427528    1.147071
      2          6           0        0.799546   -0.795840    0.487947
      3          6           0        2.043909   -1.165832   -0.030913
      4          6           0        3.112074   -0.284319    0.127987
      5          6           0        2.984864    0.941412    0.779670
      6          6           0        1.731269    1.290728    1.290576
      7          1           0       -0.330213    0.706916    1.547044
      8          1           0       -0.046165   -1.468199    0.375026
      9          1           0        2.195399   -2.106870   -0.545612
     10          1           0        3.846494    1.590714    0.876718
     11          1           0        1.610316    2.241446    1.801996
     12          7           0        4.434312   -0.665069   -0.417097
     13          8           0        5.359677    0.129223   -0.264006
     14          8           0        4.520281   -1.750583   -0.987102
     15          6           0       -4.227146   -0.057643    0.161460
     16          6           0       -4.682588   -1.413805   -0.378339
     17          6           0       -5.728220   -2.084094    0.513379
     18          1           0       -3.817847   -0.191142    1.172199
     19          1           0       -5.100775    0.601112    0.262501
     20          1           0       -3.808165   -2.069350   -0.479640
     21          1           0       -5.090675   -1.277090   -1.387987
     22          1           0       -6.617828   -1.452644    0.605416
     23          1           0       -5.328032   -2.249406    1.518925
     24          1           0       -6.039707   -3.052168    0.108817
     25          6           0       -3.181887    0.624854   -0.719086
     26          6           0       -2.726444    1.981016   -0.179288
     27          6           0       -1.680812    2.651306   -1.071005
     28          1           0       -2.308257   -0.033901   -0.820128
     29          1           0       -3.591185    0.758354   -1.729827
     30          1           0       -2.318358    1.844301    0.830361
     31          1           0       -3.600867    2.636561   -0.077987
     32          1           0       -2.080999    2.816617   -2.076552
     33          1           0       -0.791204    2.019856   -1.163042
     34          1           0       -1.369326    3.619379   -0.666443
 ---------------------------------------------------------------------

 SCF Done:  E(RHF) =  -669.535210422     A.U. after   15 cycles
 E2 =    -0.2092863597D+01 EUMP2 =    -0.67162807401865D+03

 The electronic state is 1-A.
 Alpha  occ. eigenvalues --  -20.60788 -20.60783 -15.85843 -11.31226 -11.27806
 Alpha  occ. eigenvalues --  -11.27797 -11.27528 -11.26827 -11.26805 -11.22630
 Alpha  occ. eigenvalues --  -11.22404 -11.22351 -11.22270 -11.21779 -11.21735
 Alpha  occ. eigenvalues --   -1.59863  -1.39416  -1.19409  -1.09353  -1.08795
 Alpha  occ. eigenvalues --   -1.04811  -1.04371  -0.96787  -0.95628  -0.87796
 Alpha  occ. eigenvalues --   -0.86207  -0.82461  -0.80441  -0.79158  -0.77501
 Alpha  occ. eigenvalues --   -0.72061  -0.71187  -0.70563  -0.66020  -0.65056
 Alpha  occ. eigenvalues --   -0.64787  -0.62156  -0.61790  -0.60159  -0.58401
 Alpha  occ. eigenvalues --   -0.56119  -0.55268  -0.53459  -0.53238  -0.53084
 Alpha  occ. eigenvalues --   -0.52898  -0.50716  -0.48828  -0.48814  -0.48727
 Alpha  occ. eigenvalues --   -0.47494  -0.46679  -0.46633  -0.44818  -0.44637
 Alpha  occ. eigenvalues --   -0.37348  -0.36414
 Alpha virt. eigenvalues --    0.05012   0.11135   0.16418   0.18655   0.22855
 Alpha virt. eigenvalues --    0.23713   0.24828   0.25255   0.26957   0.28374
 Alpha virt. eigenvalues --    0.29506   0.30459   0.30868   0.31179   0.31996

 Mulliken charges:
               1
     1  C   -0.171590
     2  C   -0.222253
     3  C   -0.170694
     4  C    0.158453
     5  C   -0.170581
     6  C   -0.220106
     7  H    0.232348
     8  H    0.224307
     9  H    0.275904
    10  H    0.275924
    11  H    0.224160
    12  N    0.488053
    13  O   -0.460231
    14  O   -0.460303
    15  C   -0.298361
    16  C   -0.299257
    17  C   -0.476114
    18  H    0.144086
    19  H    0.153271
    20  H    0.148090
    21  H    0.155263
    22  H    0.157169
    23  H    0.154654
    24  H    0.162855
    25  C   -0.301468
    26  C   -0.301278
    27  C   -0.480968
    28  H    0.145719
    29  H    0.155398
    30  H    0.139993
    31  H    0.156982
    32  H    0.159175
    33  H    0.161932
    34  H    0.159466
 Sum of Mulliken charges =  -0.00000

 Dipole moment (field-independent basis, Debye):
    X=             -4.7697    Y=              1.3659    Z=              1.8279  Tot=              5.2874
 Quadrupole moment (field-independent basis, Debye-Ang):
   XX=           -122.7815   YY=            -92.0511   ZZ=            -94.3740
   XY=              6.7007   XZ=              7.2931   YZ=              1.2656

 Normal termination of Gaussian 16 at Thu May  6 12:41:25 2021.
