 Gaussian 16, Revision A.03,
 Gaussian 16:  EM64L-G16RevA.03 25-Dec-2016

 -------------
 #p 6-31g* mp2
 -------------

 ------------------------------------------------------
 Input file generated by CHIRIPA (05-May-2021 14:51:13)
 ------------------------------------------------------
 Symbolic Z-matrix:
 Charge =  0 Multiplicity = 1

                         Standard orientation:
 ---------------------------------------------------------------------
 Center     Atomic      Atomic             Coordinates (Angstroms)
 Number     Number       Type             X           Y           Z
 ---------------------------------------------------------------------
      1          6           0       -2.411797    1.533281   -0.348701
      2          6           0       -1.294498    2.288444    0.371964
      3          6           0       -0.853036    3.546505   -0.376494
      4          1           0       -2.070657    1.261114   -1.356915
      5          1           0       -3.272365    2.203733   -0.480278
      6          1           0       -0.436806    1.616349    0.503373
      7          1           0       -1.638269    2.558677    1.378648
      8          1           0       -1.692799    4.238853   -0.495042
      9          1           0       -0.484511    3.291170   -1.375290
     10          1           0       -0.053633    4.070874    0.156283
     11          6           0       -2.863920    0.273245    0.387249
     12          6           0       -3.981218   -0.481918   -0.333417
     13          6           0       -4.422680   -1.739979    0.415041
     14          1           0       -2.003352   -0.397206    0.518825
     15          1           0       -3.205059    0.545412    1.395462
     16          1           0       -3.637448   -0.752151   -1.340100
     17          1           0       -4.838910    0.190177   -0.464826
     18          1           0       -4.791206   -1.484644    1.413837
     19          1           0       -3.582917   -2.432326    0.533589
     20          1           0       -5.222084   -2.264348   -0.117736
     21          6           0        3.030154   -0.355480    0.340545
     22          6           0        4.348464   -0.001490   -0.348468
     23          6           0        5.121853    1.095917    0.383215
     24          1           0        2.408058    0.547074    0.413605
     25          1           0        3.237552   -0.676390    1.370786
     26          1           0        4.138765    0.317336   -1.377541
     27          1           0        4.967414   -0.905033   -0.420068
     28          1           0        5.359916    0.783525    1.405143
     29          1           0        4.526559    2.012837    0.442230
     30          1           0        6.060883    1.333290   -0.126428
     31          6           0        2.245562   -1.451046   -0.379092
     32          6           0        0.927253   -1.805036    0.309920
     33          6           0        0.153863   -2.902444   -0.421763
     34          1           0        2.038164   -1.130136   -1.409333
     35          1           0        2.867658   -2.353600   -0.452152
     36          1           0        0.308301   -0.901494    0.381521
     37          1           0        1.136952   -2.123862    1.338994
     38          1           0        0.749159   -3.819363   -0.480777
     39          1           0       -0.084200   -2.590050   -1.443690
     40          1           0       -0.785167   -3.139816    0.087881
 ---------------------------------------------------------------------

 SCF Done:  E(RHF) =  -470.733030705     A.U. after   11 cycles
 E2 =    -0.1584309720D+01 EUMP2 =    -0.47231734042485D+03

 The electronic state is 1-A.
 Alpha  occ. eigenvalues --  -11.21659 -11.21650 -11.21632 -11.21590 -11.21458
 Alpha  occ. eigenvalues --  -11.21414 -11.21398 -11.21330 -11.21169 -11.21119
 Alpha  occ. eigenvalues --  -11.21089 -11.21069  -1.08505  -1.08428  -1.03590
 Alpha  occ. eigenvalues --   -1.03546  -0.96040  -0.95993  -0.87051  -0.87013
 Alpha  occ. eigenvalues --   -0.79660  -0.79612  -0.78397  -0.78165  -0.65344
 Alpha  occ. eigenvalues --   -0.64890  -0.60998  -0.60945  -0.59422  -0.59344
 Alpha  occ. eigenvalues --   -0.57668  -0.57588  -0.55390  -0.55222  -0.52744
 Alpha  occ. eigenvalues --   -0.52687  -0.52462  -0.52415  -0.49982  -0.49938
 Alpha  occ. eigenvalues --   -0.48007  -0.47913  -0.46849  -0.46666  -0.46134
 Alpha  occ. eigenvalues --   -0.45799  -0.45770  -0.45147  -0.43836  -0.43795
 Alpha virt. eigenvalues --    0.19685   0.21717   0.23757   0.24564   0.25679
 Alpha virt. eigenvalues --    0.26588   0.26782   0.27183   0.27560   0.29708
 Alpha virt. eigenvalues --    0.30474   0.31444   0.31739   0.31792   0.32458

 Mulliken charges:
               1
     1  C   -0.297665
     2  C   -0.306304
     3  C   -0.475486
     4  H    0.149027
     5  H    0.149871
     6  H    0.156414
     7  H    0.152603
     8  H    0.155656
     9  H    0.154853
    10  H    0.160207
    11  C   -0.307480
    12  C   -0.298689
    13  C   -0.477918
    14  H    0.159043
    15  H    0.149531
    16  H    0.152006
    17  H    0.151795
    18  H    0.155182
    19  H    0.156703
    20  H    0.160417
    21  C   -0.300862
    22  C   -0.299618
    23  C   -0.475797
    24  H    0.151474
    25  H    0.149877
    26  H    0.151992
    27  H    0.152120
    28  H    0.155245
    29  H    0.155405
    30  H    0.160375
    31  C   -0.297245
    32  C   -0.310401
    33  C   -0.478404
    34  H    0.149193
    35  H    0.150004
    36  H    0.160887
    37  H    0.152609
    38  H    0.156169
    39  H    0.155150
    40  H    0.162061
 Sum of Mulliken charges =  -0.00000

 Dipole moment (field-independent basis, Debye):
    X=              0.0177    Y=             -0.0094    Z=              0.0102  Tot=              0.0225
 Quadrupole moment (field-independent basis, Debye-Ang):
   XX=            -84.6842   YY=            -85.4348   ZZ=            -84.5646
   XY=             -1.6912   XZ=             -0.1851   YZ=             -0.0420

 Normal termination of Gaussian 16 at Wed May  5 21:36:12 2021.
