 Gaussian 16, Revision A.03,
 Gaussian 16:  EM64L-G16RevA.03 25-Dec-2016

 -------------
 #p 6-31g* mp2
 -------------

 ------------------------------------------------------
 Input file generated by CHIRIPA (05-May-2021 14:53:17)
 ------------------------------------------------------
 Symbolic Z-matrix:
 Charge =  0 Multiplicity = 1

                         Standard orientation:
 ---------------------------------------------------------------------
 Center     Atomic      Atomic             Coordinates (Angstroms)
 Number     Number       Type             X           Y           Z
 ---------------------------------------------------------------------
      1          6           0        1.984420   -0.569015   -0.722411
      2          6           0        1.613939   -1.983965   -1.168110
      3          6           0        0.230520   -2.056751   -1.815140
      4          1           0        1.227403   -0.204350   -0.014676
      5          1           0        1.949214    0.102638   -1.591339
      6          1           0        1.651179   -2.653019   -0.298860
      7          1           0        2.372029   -2.345377   -1.874719
      8          1           0        0.184190   -1.412254   -2.698926
      9          1           0       -0.540755   -1.721644   -1.114113
     10          1           0       -0.014011   -3.077192   -2.126209
     11          6           0        3.364632   -0.480078   -0.073694
     12          6           0        3.735112    0.934872    0.372004
     13          6           0        5.118531    1.007658    1.019035
     14          1           0        3.399837   -1.151732    0.795234
     15          1           0        4.121649   -0.844743   -0.781430
     16          1           0        2.977022    1.296284    1.078614
     17          1           0        3.697872    1.603926   -0.497245
     18          1           0        5.889806    0.672550    0.318008
     19          1           0        5.164861    0.363161    1.902821
     20          1           0        5.363062    2.028099    1.330104
     21          6           0       -1.901988    2.286171   -1.365331
     22          6           0       -1.349743    2.430563   -0.088343
     23          6           0       -1.447638    1.397485    0.848520
     24          6           0       -2.107598    0.228402    0.473038
     25          6           0       -2.668135    0.054366   -0.791398
     26          6           0       -2.558265    1.100623   -1.712171
     27          1           0       -1.821289    3.093809   -2.086859
     28          1           0       -0.839506    3.350155    0.183785
     29          1           0       -1.029215    1.482644    1.844054
     30          1           0       -3.170823   -0.874129   -1.033514
     31          1           0       -2.988100    0.985695   -2.703170
     32          7           0       -2.217574   -0.872249    1.456336
     33          8           0       -2.804017   -1.892250    1.100921
     34          8           0       -1.715249   -0.694095    2.563842
 ---------------------------------------------------------------------

 SCF Done:  E(RHF) =  -669.534585921     A.U. after   15 cycles
 E2 =    -0.2094591669D+01 EUMP2 =    -0.67162917758979D+03

 The electronic state is 1-A.
 Alpha  occ. eigenvalues --  -20.60897 -20.60871 -15.85917 -11.31224 -11.27832
 Alpha  occ. eigenvalues --  -11.27795 -11.27555 -11.26821 -11.26801 -11.21701
 Alpha  occ. eigenvalues --  -11.21430 -11.21341 -11.21266 -11.21128 -11.20877
 Alpha  occ. eigenvalues --   -1.59953  -1.39507  -1.19432  -1.08828  -1.08377
 Alpha  occ. eigenvalues --   -1.04826  -1.03483  -0.95934  -0.95664  -0.86964
 Alpha  occ. eigenvalues --   -0.86219  -0.82494  -0.79566  -0.78200  -0.77545
 Alpha  occ. eigenvalues --   -0.72139  -0.71293  -0.70538  -0.65083  -0.65008
 Alpha  occ. eigenvalues --   -0.64814  -0.62175  -0.60888  -0.59307  -0.57562
 Alpha  occ. eigenvalues --   -0.55349  -0.55216  -0.53262  -0.52913  -0.52621
 Alpha  occ. eigenvalues --   -0.52322  -0.49894  -0.48902  -0.48894  -0.47856
 Alpha  occ. eigenvalues --   -0.46599  -0.45699  -0.45647  -0.44880  -0.43731
 Alpha  occ. eigenvalues --   -0.37349  -0.36349
 Alpha virt. eigenvalues --    0.04963   0.11120   0.16450   0.21285   0.22845
 Alpha virt. eigenvalues --    0.24257   0.26273   0.27088   0.27365   0.28240
 Alpha virt. eigenvalues --    0.28430   0.30601   0.31494   0.31852   0.31984

 Mulliken charges:
               1
     1  C   -0.299611
     2  C   -0.300808
     3  C   -0.477753
     4  H    0.150511
     5  H    0.145452
     6  H    0.157525
     7  H    0.150354
     8  H    0.148521
     9  H    0.158466
    10  H    0.161654
    11  C   -0.298581
    12  C   -0.298467
    13  C   -0.475687
    14  H    0.153335
    15  H    0.149168
    16  H    0.148903
    17  H    0.148753
    18  H    0.155435
    19  H    0.157533
    20  H    0.158634
    21  C   -0.170738
    22  C   -0.216610
    23  C   -0.172226
    24  C    0.159759
    25  C   -0.173012
    26  C   -0.215788
    27  H    0.225919
    28  H    0.224035
    29  H    0.275547
    30  H    0.276497
    31  H    0.223944
    32  N    0.489128
    33  O   -0.459627
    34  O   -0.460163
 Sum of Mulliken charges =  -0.00000

 Dipole moment (field-independent basis, Debye):
    X=              0.2960    Y=              3.8651    Z=             -3.4214  Tot=              5.1704
 Quadrupole moment (field-independent basis, Debye-Ang):
   XX=            -96.5235   YY=            -91.8414   ZZ=            -95.7101
   XY=             -6.9001   XZ=              8.8677   YZ=              2.6770

 Normal termination of Gaussian 16 at Thu May  6 07:35:11 2021.
