 Gaussian 16, Revision A.03,
 Gaussian 16:  EM64L-G16RevA.03 25-Dec-2016

 -------------
 #p 6-31g* mp2
 -------------

 ------------------------------------------------------
 Input file generated by CHIRIPA (05-May-2021 14:51:11)
 ------------------------------------------------------
 Symbolic Z-matrix:
 Charge =  0 Multiplicity = 1

                         Standard orientation:
 ---------------------------------------------------------------------
 Center     Atomic      Atomic             Coordinates (Angstroms)
 Number     Number       Type             X           Y           Z
 ---------------------------------------------------------------------
      1          6           0        4.068258   -0.433741    0.156236
      2          6           0        5.513342   -0.780722   -0.203374
      3          6           0        6.165374   -1.721152    0.810648
      4          1           0        4.045772    0.027211    1.153214
      5          1           0        3.482699   -1.360820    0.227231
      6          1           0        6.095686    0.146833   -0.275028
      7          1           0        5.532413   -1.240726   -1.199692
      8          1           0        5.609300   -2.661914    0.876600
      9          1           0        6.175773   -1.266471    1.806518
     10          1           0        7.197956   -1.956072    0.534158
     11          6           0        3.402879    0.505622   -0.848053
     12          6           0        1.957795    0.852603   -0.488443
     13          6           0        1.305764    1.793033   -1.502465
     14          1           0        3.988438    1.432701   -0.919048
     15          1           0        3.425366    0.044671   -1.845031
     16          1           0        1.938725    1.312608    0.507875
     17          1           0        1.375452   -0.074951   -0.416789
     18          1           0        1.295364    1.338352   -2.498335
     19          1           0        1.861838    2.733795   -1.568417
     20          1           0        0.273182    2.027953   -1.225974
     21          6           0       -3.412820    0.518905    0.759927
     22          6           0       -1.884881    0.460929    0.765205
     23          6           0       -1.253814    1.577383    1.597718
     24          1           0       -3.735041    1.494749    0.371539
     25          1           0       -3.778692    0.457863    1.794242
     26          1           0       -1.522053    0.520669   -0.268913
     27          1           0       -1.566262   -0.514963    1.153447
     28          1           0       -1.587492    1.517334    2.638706
     29          1           0       -1.543032    2.558851    1.208263
     30          1           0       -0.161059    1.516985    1.587706
     31          6           0       -4.058317   -0.590786   -0.068110
     32          6           0       -5.586256   -0.532810   -0.073389
     33          6           0       -6.217323   -1.649265   -0.905901
     34          1           0       -3.692445   -0.529744   -1.102425
     35          1           0       -3.736096   -1.566630    0.320278
     36          1           0       -5.904875    0.443082   -0.461630
     37          1           0       -5.949084   -0.592550    0.960731
     38          1           0       -5.928105   -2.630732   -0.516446
     39          1           0       -5.883645   -1.589215   -1.946888
     40          1           0       -7.310078   -1.588866   -0.895889
 ---------------------------------------------------------------------

 SCF Done:  E(RHF) =  -470.732522375     A.U. after   11 cycles
 E2 =    -0.1583800329D+01 EUMP2 =    -0.47231632270442D+03

 The electronic state is 1-A.
 Alpha  occ. eigenvalues --  -11.21605 -11.21600 -11.21593 -11.21563 -11.21408
 Alpha  occ. eigenvalues --  -11.21390 -11.21349 -11.21330 -11.21074 -11.21066
 Alpha  occ. eigenvalues --  -11.21054 -11.20980  -1.08457  -1.08395  -1.03608
 Alpha  occ. eigenvalues --   -1.03442  -0.96056  -0.95886  -0.87000  -0.86976
 Alpha  occ. eigenvalues --   -0.79621  -0.79564  -0.78284  -0.78204  -0.65079
 Alpha  occ. eigenvalues --   -0.65049  -0.60992  -0.60941  -0.59702  -0.59063
 Alpha  occ. eigenvalues --   -0.57861  -0.57192  -0.55273  -0.55235  -0.52717
 Alpha  occ. eigenvalues --   -0.52600  -0.52406  -0.52362  -0.49929  -0.49893
 Alpha  occ. eigenvalues --   -0.48039  -0.47792  -0.46642  -0.46585  -0.45815
 Alpha  occ. eigenvalues --   -0.45781  -0.45702  -0.45641  -0.43822  -0.43683
 Alpha virt. eigenvalues --    0.21090   0.23074   0.23420   0.25360   0.26135
 Alpha virt. eigenvalues --    0.26480   0.26699   0.27570   0.27683   0.29207
 Alpha virt. eigenvalues --    0.29798   0.31062   0.31148   0.31819   0.32603

 Mulliken charges:
               1
     1  C   -0.298375
     2  C   -0.299636
     3  C   -0.475717
     4  H    0.149493
     5  H    0.149551
     6  H    0.151964
     7  H    0.151975
     8  H    0.155173
     9  H    0.155189
    10  H    0.160276
    11  C   -0.297607
    12  C   -0.303463
    13  C   -0.480704
    14  H    0.149528
    15  H    0.149629
    16  H    0.153204
    17  H    0.154461
    18  H    0.154866
    19  H    0.155168
    20  H    0.165756
    21  C   -0.298139
    22  C   -0.303442
    23  C   -0.482314
    24  H    0.149412
    25  H    0.149538
    26  H    0.155586
    27  H    0.151724
    28  H    0.154863
    29  H    0.154037
    30  H    0.168243
    31  C   -0.298293
    32  C   -0.299613
    33  C   -0.475700
    34  H    0.149454
    35  H    0.149509
    36  H    0.151957
    37  H    0.151937
    38  H    0.155115
    39  H    0.155155
    40  H    0.160240
 Sum of Mulliken charges =  -0.00000

 Dipole moment (field-independent basis, Debye):
    X=              0.0213    Y=             -0.0040    Z=             -0.0037  Tot=              0.0220
 Quadrupole moment (field-independent basis, Debye-Ang):
   XX=            -85.5412   YY=            -84.7999   ZZ=            -84.5680
   XY=              0.2634   XZ=             -0.5192   YZ=             -0.0619

 Normal termination of Gaussian 16 at Wed May  5 19:52:13 2021.
