 Gaussian 16, Revision A.03,
 Gaussian 16:  EM64L-G16RevA.03 25-Dec-2016

 -------------
 #p 6-31g* mp2
 -------------

 ------------------------------------------------------
 Input file generated by CHIRIPA (05-May-2021 14:55:24)
 ------------------------------------------------------
 Symbolic Z-matrix:
 Charge =  0 Multiplicity = 1

                         Standard orientation:
 ---------------------------------------------------------------------
 Center     Atomic      Atomic             Coordinates (Angstroms)
 Number     Number       Type             X           Y           Z
 ---------------------------------------------------------------------
      1          6           0       -4.063392    2.407979    0.435893
      2          6           0       -4.673548    1.565792   -0.499497
      3          6           0       -4.149565    0.296056   -0.759803
      4          6           0       -3.009099   -0.101087   -0.063452
      5          6           0       -2.378443    0.715044    0.874360
      6          6           0       -2.919803    1.980670    1.118632
      7          1           0       -4.477184    3.392744    0.631877
      8          1           0       -5.561774    1.895001   -1.031212
      9          1           0       -4.601859   -0.376195   -1.478779
     10          1           0       -1.494068    0.359005    1.388689
     11          1           0       -2.443845    2.632599    1.845610
     12          7           0       -2.445184   -1.443124   -0.330540
     13          8           0       -1.439543   -1.769480    0.296210
     14          8           0       -3.019506   -2.143246   -1.161576
     15          6           0        3.772687   -0.760469    0.444539
     16          6           0        2.446900   -1.389007    0.014175
     17          6           0        2.064474   -2.601756    0.863165
     18          1           0        4.566715   -1.517305    0.384005
     19          1           0        3.703990   -0.463257    1.500162
     20          1           0        2.517608   -1.683687   -1.040708
     21          1           0        1.655971   -0.630535    0.075558
     22          1           0        1.966458   -2.319256    1.916345
     23          1           0        2.832991   -3.378392    0.793736
     24          1           0        1.113553   -3.035449    0.538329
     25          6           0        4.168534    0.453021   -0.394790
     26          6           0        5.494321    1.081559    0.035574
     27          6           0        5.876746    2.294309   -0.813417
     28          1           0        4.237232    0.155808   -1.450413
     29          1           0        3.374507    1.209857   -0.334256
     30          1           0        6.285250    0.323087   -0.025809
     31          1           0        5.423613    1.376240    1.090457
     32          1           0        5.108230    3.070945   -0.743987
     33          1           0        5.974763    2.011808   -1.866595
     34          1           0        6.827668    2.728001   -0.488580
 ---------------------------------------------------------------------

 SCF Done:  E(RHF) =  -669.536119640     A.U. after   15 cycles
 E2 =    -0.2091165708D+01 EUMP2 =    -0.67162728534797D+03

 The electronic state is 1-A.
 Alpha  occ. eigenvalues --  -20.60948 -20.60938 -15.85975 -11.31295 -11.27858
 Alpha  occ. eigenvalues --  -11.27854 -11.27594 -11.26866 -11.26856 -11.21314
 Alpha  occ. eigenvalues --  -11.20974 -11.20879 -11.20754 -11.20633 -11.19716
 Alpha  occ. eigenvalues --   -1.60004  -1.39560  -1.19463  -1.08868  -1.07870
 Alpha  occ. eigenvalues --   -1.04859  -1.02860  -0.95716  -0.95294  -0.86327
 Alpha  occ. eigenvalues --   -0.86257  -0.82544  -0.78972  -0.77652  -0.77587
 Alpha  occ. eigenvalues --   -0.72209  -0.71315  -0.70572  -0.65121  -0.64863
 Alpha  occ. eigenvalues --   -0.64519  -0.62207  -0.60277  -0.58707  -0.56855
 Alpha  occ. eigenvalues --   -0.55363  -0.54623  -0.53190  -0.52953  -0.51934
 Alpha  occ. eigenvalues --   -0.51727  -0.49297  -0.48962  -0.48939  -0.47247
 Alpha  occ. eigenvalues --   -0.46051  -0.45207  -0.45140  -0.44902  -0.43096
 Alpha  occ. eigenvalues --   -0.37441  -0.36460
 Alpha virt. eigenvalues --    0.04918   0.11187   0.16409   0.21151   0.23277
 Alpha virt. eigenvalues --    0.24740   0.26717   0.27376   0.27739   0.28404
 Alpha virt. eigenvalues --    0.28890   0.30648   0.31645   0.32166   0.32892

 Mulliken charges:
               1
     1  C   -0.170558
     2  C   -0.218577
     3  C   -0.170503
     4  C    0.157887
     5  C   -0.171369
     6  C   -0.218529
     7  H    0.226012
     8  H    0.223834
     9  H    0.275870
    10  H    0.276217
    11  H    0.223807
    12  N    0.492499
    13  O   -0.463716
    14  O   -0.459071
    15  C   -0.297765
    16  C   -0.296992
    17  C   -0.480961
    18  H    0.148688
    19  H    0.145643
    20  H    0.151143
    21  H    0.150021
    22  H    0.147420
    23  H    0.147437
    24  H    0.187433
    25  C   -0.296903
    26  C   -0.298947
    27  C   -0.475141
    28  H    0.149713
    29  H    0.145626
    30  H    0.152197
    31  H    0.150146
    32  H    0.153072
    33  H    0.155314
    34  H    0.159054
 Sum of Mulliken charges =  -0.00000

 Dipole moment (field-independent basis, Debye):
    X=             -2.2841    Y=              4.6309    Z=              0.8898  Tot=              5.2397
 Quadrupole moment (field-independent basis, Debye-Ang):
   XX=            -81.2735   YY=            -96.4723   ZZ=            -93.1228
   XY=            -14.3198   XZ=             -0.1604   YZ=              1.3387

 Normal termination of Gaussian 16 at Thu May  6 09:28:56 2021.
