 Gaussian 16, Revision A.03,
 Gaussian 16:  EM64L-G16RevA.03 25-Dec-2016

 -------------
 #p 6-31g* mp2
 -------------

 ------------------------------------------------------
 Input file generated by CHIRIPA (05-May-2021 14:53:12)
 ------------------------------------------------------
 Symbolic Z-matrix:
 Charge =  0 Multiplicity = 1

                         Standard orientation:
 ---------------------------------------------------------------------
 Center     Atomic      Atomic             Coordinates (Angstroms)
 Number     Number       Type             X           Y           Z
 ---------------------------------------------------------------------
      1          6           0       -3.638822    0.033071    0.165909
      2          6           0       -2.648568   -0.919987   -0.504213
      3          6           0       -1.191782   -0.566068   -0.203696
      4          1           0       -3.433051    1.059430   -0.167544
      5          1           0       -3.473482    0.018247    1.252113
      6          1           0       -2.816647   -0.904412   -1.588705
      7          1           0       -2.856843   -1.944219   -0.169273
      8          1           0       -1.001404   -0.600402    0.873884
      9          1           0       -0.960980    0.445313   -0.553613
     10          1           0       -0.500968   -1.260090   -0.692541
     11          6           0       -5.099249   -0.307773   -0.125133
     12          6           0       -6.089503    0.645285    0.544989
     13          6           0       -7.546288    0.291366    0.244472
     14          1           0       -5.264588   -0.292948   -1.211336
     15          1           0       -5.305019   -1.334131    0.208320
     16          1           0       -5.881228    1.669518    0.210050
     17          1           0       -5.921423    0.629711    1.629481
     18          1           0       -7.777090   -0.720014    0.594389
     19          1           0       -7.736667    0.325701   -0.833108
     20          1           0       -8.237102    0.985388    0.733317
     21          6           0        3.596006   -2.404245    0.141112
     22          6           0        4.568997   -1.593159    0.734367
     23          6           0        4.477910   -0.200414    0.653663
     24          6           0        3.395646    0.350113   -0.031110
     25          6           0        2.410267   -0.431247   -0.632605
     26          6           0        2.521641   -1.821727   -0.539280
     27          1           0        3.674644   -3.485283    0.208707
     28          1           0        5.404458   -2.042789    1.263405
     29          1           0        5.217080    0.451100    1.103746
     30          1           0        1.588984    0.046057   -1.153269
     31          1           0        1.764528   -2.449154   -1.000973
     32          7           0        3.288479    1.823350   -0.123228
     33          8           0        2.325255    2.283805   -0.732177
     34          8           0        4.169734    2.489724    0.415262
 ---------------------------------------------------------------------

 SCF Done:  E(RHF) =  -669.534752274     A.U. after   15 cycles
 E2 =    -0.2092031332D+01 EUMP2 =    -0.67162678360667D+03

 The electronic state is 1-A.
 Alpha  occ. eigenvalues --  -20.60714 -20.60709 -15.85765 -11.31089 -11.27686
 Alpha  occ. eigenvalues --  -11.27613 -11.27434 -11.26694 -11.26674 -11.21938
 Alpha  occ. eigenvalues --  -11.21650 -11.21580 -11.21547 -11.21476 -11.21111
 Alpha  occ. eigenvalues --   -1.59787  -1.39342  -1.19279  -1.08683  -1.08604
 Alpha  occ. eigenvalues --   -1.04691  -1.03748  -0.96226  -0.95515  -0.87258
 Alpha  occ. eigenvalues --   -0.86079  -0.82361  -0.79831  -0.78392  -0.77395
 Alpha  occ. eigenvalues --   -0.71987  -0.71108  -0.70397  -0.65230  -0.64943
 Alpha  occ. eigenvalues --   -0.64698  -0.62125  -0.61128  -0.59569  -0.57812
 Alpha  occ. eigenvalues --   -0.55498  -0.55186  -0.53206  -0.52874  -0.52727
 Alpha  occ. eigenvalues --   -0.52540  -0.50122  -0.48741  -0.48740  -0.48126
 Alpha  occ. eigenvalues --   -0.46821  -0.45938  -0.45845  -0.44754  -0.44010
 Alpha  occ. eigenvalues --   -0.37270  -0.36243
 Alpha virt. eigenvalues --    0.05114   0.11345   0.16558   0.20618   0.22821
 Alpha virt. eigenvalues --    0.24048   0.26204   0.26439   0.27015   0.27948
 Alpha virt. eigenvalues --    0.28875   0.29623   0.31350   0.31718   0.32521

 Mulliken charges:
               1
     1  C   -0.299738
     2  C   -0.299822
     3  C   -0.482263
     4  H    0.154009
     5  H    0.150495
     6  H    0.152351
     7  H    0.150614
     8  H    0.160393
     9  H    0.166348
    10  H    0.146803
    11  C   -0.298511
    12  C   -0.300021
    13  C   -0.475834
    14  H    0.149802
    15  H    0.148748
    16  H    0.153726
    17  H    0.152300
    18  H    0.154618
    19  H    0.155339
    20  H    0.161012
    21  C   -0.170960
    22  C   -0.219064
    23  C   -0.170845
    24  C    0.156017
    25  C   -0.167842
    26  C   -0.220630
    27  H    0.225195
    28  H    0.223009
    29  H    0.275203
    30  H    0.280183
    31  H    0.223081
    32  N    0.488406
    33  O   -0.461442
    34  O   -0.460679
 Sum of Mulliken charges =  -0.00000

 Dipole moment (field-independent basis, Debye):
    X=              0.2528    Y=             -5.1045    Z=              0.3656  Tot=              5.1238
 Quadrupole moment (field-independent basis, Debye-Ang):
   XX=            -89.8833   YY=            -98.7869   ZZ=            -93.4097
   XY=            -17.5491   XZ=              3.5136   YZ=             -0.0365

 Normal termination of Gaussian 16 at Thu May  6 04:05:46 2021.
