 Gaussian 16, Revision A.03,
 Gaussian 16:  EM64L-G16RevA.03 25-Dec-2016

 -------------
 #p 6-31g* mp2
 -------------

 ------------------------------------------------------
 Input file generated by CHIRIPA (05-May-2021 14:53:13)
 ------------------------------------------------------
 Symbolic Z-matrix:
 Charge =  0 Multiplicity = 1

                         Standard orientation:
 ---------------------------------------------------------------------
 Center     Atomic      Atomic             Coordinates (Angstroms)
 Number     Number       Type             X           Y           Z
 ---------------------------------------------------------------------
      1          6           0       -2.771070    1.038311   -0.494499
      2          6           0       -3.092648    2.384508    0.155367
      3          6           0       -2.504369    3.567781   -0.613780
      4          1           0       -1.680784    0.924605   -0.567249
      5          1           0       -3.155067    1.034996   -1.524028
      6          1           0       -2.709376    2.384769    1.183822
      7          1           0       -4.182292    2.494939    0.226753
      8          1           0       -2.895619    3.595685   -1.635907
      9          1           0       -1.414334    3.484890   -0.673401
     10          1           0       -2.746328    4.520142   -0.131779
     11          6           0       -3.352382   -0.154257    0.262856
     12          6           0       -3.030805   -1.500455   -0.387010
     13          6           0       -3.619084   -2.683728    0.382136
     14          1           0       -2.968386   -0.150943    1.292385
     15          1           0       -4.442668   -0.040551    0.335606
     16          1           0       -1.941160   -1.610885   -0.458396
     17          1           0       -3.414077   -1.500716   -1.415465
     18          1           0       -4.709119   -2.600837    0.441758
     19          1           0       -3.227834   -2.711632    1.404264
     20          1           0       -3.377124   -3.636088   -0.099864
     21          6           0        0.735791   -2.246774    0.003857
     22          6           0        0.545554   -1.193238    0.904075
     23          6           0        1.456783   -0.134465    0.960758
     24          6           0        2.552087   -0.161509    0.098860
     25          6           0        2.769111   -1.196895   -0.808976
     26          6           0        1.845006   -2.245243   -0.848293
     27          1           0        0.022926   -3.065205   -0.033430
     28          1           0       -0.314967   -1.191785    1.567058
     29          1           0        1.333761    0.693746    1.648035
     30          1           0        3.636506   -1.170501   -1.457318
     31          1           0        1.995289   -3.062112   -1.548425
     32          7           0        3.523579    0.953848    0.149676
     33          8           0        4.480453    0.906517   -0.620253
     34          8           0        3.309766    1.854276    0.958471
 ---------------------------------------------------------------------

 SCF Done:  E(RHF) =  -669.534437723     A.U. after   15 cycles
 E2 =    -0.2094106927D+01 EUMP2 =    -0.67162854465050D+03

 The electronic state is 1-A.
 Alpha  occ. eigenvalues --  -20.60838 -20.60833 -15.85893 -11.31290 -11.27865
 Alpha  occ. eigenvalues --  -11.27855 -11.27578 -11.26877 -11.26863 -11.22367
 Alpha  occ. eigenvalues --  -11.22115 -11.22059 -11.21937 -11.21802 -11.21215
 Alpha  occ. eigenvalues --   -1.59913  -1.39465  -1.19472  -1.09067  -1.08836
 Alpha  occ. eigenvalues --   -1.04877  -1.04118  -0.96565  -0.95689  -0.87574
 Alpha  occ. eigenvalues --   -0.86275  -0.82518  -0.80202  -0.78803  -0.77558
 Alpha  occ. eigenvalues --   -0.72111  -0.71237  -0.70594  -0.65863  -0.65117
 Alpha  occ. eigenvalues --   -0.64761  -0.62235  -0.61467  -0.59971  -0.58157
 Alpha  occ. eigenvalues --   -0.55894  -0.55330  -0.53314  -0.53170  -0.52972
 Alpha  occ. eigenvalues --   -0.52950  -0.50503  -0.48871  -0.48864  -0.48493
 Alpha  occ. eigenvalues --   -0.47262  -0.46339  -0.46253  -0.44864  -0.44355
 Alpha  occ. eigenvalues --   -0.37367  -0.36444
 Alpha virt. eigenvalues --    0.04928   0.11065   0.16314   0.19003   0.22947
 Alpha virt. eigenvalues --    0.23839   0.25100   0.26411   0.27235   0.28575
 Alpha virt. eigenvalues --    0.29549   0.29774   0.31058   0.31553   0.31928

 Mulliken charges:
               1
     1  C   -0.302106
     2  C   -0.299691
     3  C   -0.476529
     4  H    0.153226
     5  H    0.151356
     6  H    0.149724
     7  H    0.152429
     8  H    0.155583
     9  H    0.158869
    10  H    0.162222
    11  C   -0.297632
    12  C   -0.310840
    13  C   -0.477435
    14  H    0.142020
    15  H    0.153210
    16  H    0.153893
    17  H    0.156095
    18  H    0.161421
    19  H    0.149948
    20  H    0.157990
    21  C   -0.172475
    22  C   -0.217926
    23  C   -0.173119
    24  C    0.158602
    25  C   -0.170640
    26  C   -0.219724
    27  H    0.229214
    28  H    0.228080
    29  H    0.276033
    30  H    0.276115
    31  H    0.224229
    32  N    0.488086
    33  O   -0.459995
    34  O   -0.460233
 Sum of Mulliken charges =  -0.00000

 Dipole moment (field-independent basis, Debye):
    X=             -3.4039    Y=             -3.8579    Z=             -0.2673  Tot=              5.1518
 Quadrupole moment (field-independent basis, Debye-Ang):
   XX=           -110.4592   YY=            -93.8374   ZZ=            -92.5040
   XY=            -11.4980   XZ=             -2.2266   YZ=              1.8976

 Normal termination of Gaussian 16 at Wed May  5 17:04:03 2021.
