 Gaussian 16, Revision A.03,
 Gaussian 16:  EM64L-G16RevA.03 25-Dec-2016

 -------------
 #p 6-31g* mp2
 -------------

 ------------------------------------------------------
 Input file generated by CHIRIPA (05-May-2021 14:51:09)
 ------------------------------------------------------
 Symbolic Z-matrix:
 Charge =  0 Multiplicity = 1

                         Standard orientation:
 ---------------------------------------------------------------------
 Center     Atomic      Atomic             Coordinates (Angstroms)
 Number     Number       Type             X           Y           Z
 ---------------------------------------------------------------------
      1          6           0        2.542878    0.424319    0.244650
      2          6           0        3.704382    1.340741   -0.141440
      3          6           0        3.506373    2.779480    0.336699
      4          1           0        1.611131    0.826953   -0.175681
      5          1           0        2.423537    0.435550    1.336907
      6          1           0        3.822381    1.326708   -1.232538
      7          1           0        4.633501    0.935775    0.279697
      8          1           0        3.410708    2.813442    1.426789
      9          1           0        2.594980    3.206596   -0.094039
     10          1           0        4.348313    3.417284    0.049988
     11          6           0        2.726224   -1.017296   -0.226368
     12          6           0        1.564720   -1.933718    0.159722
     13          6           0        1.762729   -3.372457   -0.318417
     14          1           0        2.845565   -1.028527   -1.318626
     15          1           0        3.657971   -1.419930    0.193962
     16          1           0        0.635602   -1.528752   -0.261416
     17          1           0        1.446721   -1.919685    1.250820
     18          1           0        2.674122   -3.799573    0.112321
     19          1           0        1.858394   -3.406419   -1.408507
     20          1           0        0.920790   -4.010261   -0.031706
     21          6           0       -2.967515    0.975202    0.100017
     22          6           0       -2.112774    2.152570   -0.370311
     23          6           0       -2.792401    3.503591   -0.145268
     24          1           0       -3.930543    0.995332   -0.428297
     25          1           0       -3.194241    1.099262    1.168005
     26          1           0       -1.886568    2.025615   -1.436767
     27          1           0       -1.151593    2.129526    0.159044
     28          1           0       -3.003531    3.656238    0.918087
     29          1           0       -3.742683    3.551738   -0.686791
     30          1           0       -2.163960    4.331264   -0.488600
     31          6           0       -2.301588   -0.382225   -0.118299
     32          6           0       -3.156329   -1.559593    0.352029
     33          6           0       -2.476701   -2.910613    0.126986
     34          1           0       -2.074861   -0.506284   -1.186287
     35          1           0       -1.338559   -0.402354    0.410015
     36          1           0       -4.117509   -1.536548   -0.177326
     37          1           0       -3.382533   -1.432638    1.418486
     38          1           0       -1.526419   -2.958761    0.668509
     39          1           0       -2.265571   -3.063260   -0.936369
     40          1           0       -3.105142   -3.738288    0.470318
 ---------------------------------------------------------------------

 SCF Done:  E(RHF) =  -470.732822377     A.U. after   11 cycles
 E2 =    -0.1584397468D+01 EUMP2 =    -0.47231721984474D+03

 The electronic state is 1-A.
 Alpha  occ. eigenvalues --  -11.21632 -11.21609 -11.21598 -11.21512 -11.21410
 Alpha  occ. eigenvalues --  -11.21390 -11.21345 -11.21326 -11.21090 -11.21071
 Alpha  occ. eigenvalues --  -11.21057 -11.21008  -1.08471  -1.08389  -1.03576
 Alpha  occ. eigenvalues --   -1.03475  -0.96012  -0.95936  -0.87038  -0.86943
 Alpha  occ. eigenvalues --   -0.79696  -0.79512  -0.78449  -0.78051  -0.65150
 Alpha  occ. eigenvalues --   -0.64971  -0.61001  -0.60869  -0.59464  -0.59228
 Alpha  occ. eigenvalues --   -0.57730  -0.57450  -0.55275  -0.55240  -0.52699
 Alpha  occ. eigenvalues --   -0.52664  -0.52540  -0.52238  -0.49948  -0.49882
 Alpha  occ. eigenvalues --   -0.48071  -0.47795  -0.46773  -0.46552  -0.46284
 Alpha  occ. eigenvalues --   -0.45784  -0.45686  -0.45011  -0.43803  -0.43748
 Alpha virt. eigenvalues --    0.21279   0.22274   0.23367   0.24690   0.25242
 Alpha virt. eigenvalues --    0.26100   0.26572   0.27097   0.29131   0.29838
 Alpha virt. eigenvalues --    0.30181   0.30903   0.31560   0.31757   0.31834

 Mulliken charges:
               1
     1  C   -0.301924
     2  C   -0.299420
     3  C   -0.475912
     4  H    0.152794
     5  H    0.148742
     6  H    0.152036
     7  H    0.152052
     8  H    0.154960
     9  H    0.155338
    10  H    0.160308
    11  C   -0.297605
    12  C   -0.308421
    13  C   -0.477549
    14  H    0.149389
    15  H    0.149401
    16  H    0.163037
    17  H    0.149554
    18  H    0.154652
    19  H    0.154888
    20  H    0.162721
    21  C   -0.297441
    22  C   -0.302337
    23  C   -0.475601
    24  H    0.149645
    25  H    0.149644
    26  H    0.151340
    27  H    0.154220
    28  H    0.155447
    29  H    0.155293
    30  H    0.160258
    31  C   -0.304877
    32  C   -0.299160
    33  C   -0.480959
    34  H    0.148252
    35  H    0.157032
    36  H    0.151842
    37  H    0.151795
    38  H    0.161387
    39  H    0.155115
    40  H    0.160065
 Sum of Mulliken charges =  -0.00000

 Dipole moment (field-independent basis, Debye):
    X=             -0.0241    Y=              0.0012    Z=              0.0008  Tot=              0.0242
 Quadrupole moment (field-independent basis, Debye-Ang):
   XX=            -84.6271   YY=            -87.0376   ZZ=            -83.2256
   XY=              0.3254   XZ=              0.7892   YZ=             -0.5392

 Normal termination of Gaussian 16 at Thu May  6 02:09:31 2021.
