 Gaussian 16, Revision A.03,
 Gaussian 16:  EM64L-G16RevA.03 25-Dec-2016

 -------------
 #p 6-31g* mp2
 -------------

 ------------------------------------------------------
 Input file generated by CHIRIPA (05-May-2021 14:51:07)
 ------------------------------------------------------
 Symbolic Z-matrix:
 Charge =  0 Multiplicity = 1

                         Standard orientation:
 ---------------------------------------------------------------------
 Center     Atomic      Atomic             Coordinates (Angstroms)
 Number     Number       Type             X           Y           Z
 ---------------------------------------------------------------------
      1          6           0        3.276670    0.705090   -0.209337
      2          6           0        2.804221    1.865022    0.667781
      3          6           0        3.836120    2.988829    0.767970
      4          1           0        4.216786    0.306526    0.195971
      5          1           0        3.505743    1.084511   -1.214802
      6          1           0        2.574788    1.483282    1.670901
      7          1           0        1.865021    2.260746    0.260447
      8          1           0        4.058512    3.397119   -0.223212
      9          1           0        4.772312    2.615237    1.195255
     10          1           0        3.477859    3.807686    1.399620
     11          6           0        2.255921   -0.426158   -0.319238
     12          6           0        2.728369   -1.586090   -1.196356
     13          6           0        1.696471   -2.709897   -1.296545
     14          1           0        2.026848   -0.805579    0.686227
     15          1           0        1.315805   -0.027595   -0.724546
     16          1           0        3.667570   -1.981815   -0.789022
     17          1           0        2.957803   -1.204351   -2.199476
     18          1           0        0.760278   -2.336305   -1.723830
     19          1           0        1.474078   -3.118187   -0.305363
     20          1           0        2.054731   -3.528755   -1.928195
     21          6           0       -3.349696    0.352971    0.288394
     22          6           0       -3.460690    1.223319   -0.963868
     23          6           0       -4.632580    2.203355   -0.900666
     24          1           0       -4.287402   -0.202856    0.425168
     25          1           0       -3.239503    1.001461    1.168573
     26          1           0       -3.569252    0.573343   -1.841571
     27          1           0       -2.522539    1.776994   -1.097784
     28          1           0       -4.526869    2.875465   -0.042939
     29          1           0       -5.579528    1.664974   -0.790951
     30          1           0       -4.693265    2.815509   -1.805898
     31          6           0       -2.182895   -0.631903    0.240181
     32          6           0       -2.071901   -1.502250    1.492443
     33          6           0       -0.900010   -2.482287    1.429241
     34          1           0       -2.293087   -1.280393   -0.639997
     35          1           0       -1.245188   -0.076076    0.103407
     36          1           0       -3.010051   -2.055926    1.626359
     37          1           0       -1.963339   -0.852274    2.370145
     38          1           0        0.046937   -1.943907    1.319526
     39          1           0       -1.005722   -3.154397    0.571513
     40          1           0       -0.839326   -3.094441    2.334473
 ---------------------------------------------------------------------

 SCF Done:  E(RHF) =  -470.731702392     A.U. after   11 cycles
 E2 =    -0.1584762428D+01 EUMP2 =    -0.47231646482010D+03

 The electronic state is 1-A.
 Alpha  occ. eigenvalues --  -11.21656 -11.21605 -11.21581 -11.21534 -11.21440
 Alpha  occ. eigenvalues --  -11.21380 -11.21372 -11.21307 -11.21109 -11.21072
 Alpha  occ. eigenvalues --  -11.20919 -11.20904  -1.08477  -1.08381  -1.03574
 Alpha  occ. eigenvalues --   -1.03451  -0.96020  -0.95902  -0.87059  -0.86906
 Alpha  occ. eigenvalues --   -0.79761  -0.79443  -0.78423  -0.78056  -0.65103
 Alpha  occ. eigenvalues --   -0.65029  -0.60991  -0.60852  -0.59442  -0.59236
 Alpha  occ. eigenvalues --   -0.57759  -0.57401  -0.55326  -0.55181  -0.52683
 Alpha  occ. eigenvalues --   -0.52667  -0.52601  -0.52165  -0.49998  -0.49827
 Alpha  occ. eigenvalues --   -0.48300  -0.47574  -0.46702  -0.46567  -0.46175
 Alpha  occ. eigenvalues --   -0.45693  -0.45640  -0.45139  -0.43793  -0.43747
 Alpha virt. eigenvalues --    0.21319   0.23270   0.23419   0.24794   0.24996
 Alpha virt. eigenvalues --    0.25492   0.26552   0.27786   0.29149   0.29883
 Alpha virt. eigenvalues --    0.30359   0.30536   0.31637   0.31785   0.32048

 Mulliken charges:
               1
     1  C   -0.297247
     2  C   -0.299762
     3  C   -0.475676
     4  H    0.149889
     5  H    0.149799
     6  H    0.151643
     7  H    0.151210
     8  H    0.155377
     9  H    0.155413
    10  H    0.160300
    11  C   -0.306543
    12  C   -0.299455
    13  C   -0.479644
    14  H    0.152006
    15  H    0.153833
    16  H    0.151615
    17  H    0.151583
    18  H    0.155675
    19  H    0.162067
    20  H    0.158849
    21  C   -0.298019
    22  C   -0.299487
    23  C   -0.475659
    24  H    0.149675
    25  H    0.149555
    26  H    0.151763
    27  H    0.151145
    28  H    0.155236
    29  H    0.155283
    30  H    0.160120
    31  C   -0.303114
    32  C   -0.299286
    33  C   -0.483529
    34  H    0.149007
    35  H    0.154373
    36  H    0.151407
    37  H    0.151251
    38  H    0.163504
    39  H    0.157428
    40  H    0.158417
 Sum of Mulliken charges =  -0.00000

 Dipole moment (field-independent basis, Debye):
    X=              0.0309    Y=             -0.0076    Z=              0.0002  Tot=              0.0318
 Quadrupole moment (field-independent basis, Debye-Ang):
   XX=            -85.3687   YY=            -85.4885   ZZ=            -84.0704
   XY=              0.2711   XZ=              0.4963   YZ=             -0.1367

 Normal termination of Gaussian 16 at Wed May  5 22:53:24 2021.
