 Gaussian 16, Revision A.03,
 Gaussian 16:  EM64L-G16RevA.03 25-Dec-2016

 -------------
 #p 6-31g* mp2
 -------------

 ------------------------------------------------------
 Input file generated by CHIRIPA (05-May-2021 14:55:21)
 ------------------------------------------------------
 Symbolic Z-matrix:
 Charge =  0 Multiplicity = 1

                         Standard orientation:
 ---------------------------------------------------------------------
 Center     Atomic      Atomic             Coordinates (Angstroms)
 Number     Number       Type             X           Y           Z
 ---------------------------------------------------------------------
      1          6           0       -4.061408   -0.965113   -1.322835
      2          6           0       -3.004645   -1.817986   -0.987601
      3          6           0       -2.018330   -1.406119   -0.086437
      4          6           0       -2.120333   -0.129047    0.463085
      5          6           0       -3.160955    0.743739    0.149015
      6          6           0       -4.136059    0.310778   -0.754459
      7          1           0       -4.823247   -1.293255   -2.023778
      8          1           0       -2.944116   -2.809402   -1.427459
      9          1           0       -1.189404   -2.046047    0.190676
     10          1           0       -3.194369    1.726312    0.603824
     11          1           0       -4.955621    0.975261   -1.012963
     12          7           0       -1.082100    0.318143    1.418329
     13          8           0       -1.194695    1.448074    1.888665
     14          8           0       -0.175396   -0.469747    1.678626
     15          6           0        2.374574    0.776098   -0.322797
     16          6           0        2.720277    2.128970   -0.945865
     17          6           0        1.593137    3.151878   -0.800920
     18          1           0        1.461006    0.386141   -0.792128
     19          1           0        2.142567    0.919066    0.741687
     20          1           0        2.952911    1.983293   -2.008538
     21          1           0        3.633236    2.515661   -0.475130
     22          1           0        1.364892    3.326512    0.255492
     23          1           0        0.680700    2.791119   -1.286629
     24          1           0        1.861464    4.111721   -1.253206
     25          6           0        3.491528   -0.257058   -0.459664
     26          6           0        3.145826   -1.609930    0.163403
     27          6           0        4.272966   -2.632838    0.018459
     28          1           0        3.723537   -0.400027   -1.524149
     29          1           0        4.405097    0.132899    0.009666
     30          1           0        2.232867   -1.996621   -0.307332
     31          1           0        2.913192   -1.464254    1.226076
     32          1           0        5.185402   -2.272079    0.504167
     33          1           0        4.501211   -2.807471   -1.037954
     34          1           0        4.004639   -3.592681    0.470744
 ---------------------------------------------------------------------

 SCF Done:  E(RHF) =  -669.536128734     A.U. after   15 cycles
 E2 =    -0.2093033337D+01 EUMP2 =    -0.67162916207107D+03

 The electronic state is 1-A.
 Alpha  occ. eigenvalues --  -20.60937 -20.60920 -15.85929 -11.31280 -11.27838
 Alpha  occ. eigenvalues --  -11.27832 -11.27577 -11.26848 -11.26839 -11.20728
 Alpha  occ. eigenvalues --  -11.20683 -11.20509 -11.20424 -11.20231 -11.20221
 Alpha  occ. eigenvalues --   -1.59972  -1.39530  -1.19443  -1.08846  -1.07496
 Alpha  occ. eigenvalues --   -1.04840  -1.02687  -0.95687  -0.95143  -0.86240
 Alpha  occ. eigenvalues --   -0.86163  -0.82523  -0.78730  -0.77605  -0.77263
 Alpha  occ. eigenvalues --   -0.72163  -0.71256  -0.70550  -0.65098  -0.64846
 Alpha  occ. eigenvalues --   -0.64136  -0.62186  -0.60093  -0.58518  -0.56750
 Alpha  occ. eigenvalues --   -0.55345  -0.54438  -0.53172  -0.52932  -0.51875
 Alpha  occ. eigenvalues --   -0.51573  -0.49115  -0.48950  -0.48915  -0.47044
 Alpha  occ. eigenvalues --   -0.45761  -0.45333  -0.44738  -0.44330  -0.42909
 Alpha  occ. eigenvalues --   -0.37417  -0.36441
 Alpha virt. eigenvalues --    0.04927   0.11181   0.16400   0.21156   0.23589
 Alpha virt. eigenvalues --    0.24895   0.26237   0.27531   0.27970   0.28700
 Alpha virt. eigenvalues --    0.29040   0.31034   0.31625   0.32436   0.32550

 Mulliken charges:
               1
     1  C   -0.170597
     2  C   -0.218665
     3  C   -0.172089
     4  C    0.158377
     5  C   -0.170827
     6  C   -0.218600
     7  H    0.225951
     8  H    0.223835
     9  H    0.276878
    10  H    0.276098
    11  H    0.223855
    12  N    0.489953
    13  O   -0.459960
    14  O   -0.458579
    15  C   -0.299986
    16  C   -0.299119
    17  C   -0.476829
    18  H    0.138576
    19  H    0.172753
    20  H    0.145965
    21  H    0.150374
    22  H    0.166987
    23  H    0.147923
    24  H    0.155418
    25  C   -0.298864
    26  C   -0.297018
    27  C   -0.475677
    28  H    0.143234
    29  H    0.147928
    30  H    0.144125
    31  H    0.166070
    32  H    0.154476
    33  H    0.150874
    34  H    0.157159
 Sum of Mulliken charges =  -0.00000

 Dipole moment (field-independent basis, Debye):
    X=             -3.8461    Y=             -1.5488    Z=             -3.0656  Tot=              5.1565
 Quadrupole moment (field-independent basis, Debye-Ang):
   XX=            -79.5519   YY=            -91.7546   ZZ=            -97.9810
   XY=              2.4442   XZ=              6.5233   YZ=              0.7749

 Normal termination of Gaussian 16 at Wed May  5 18:58:24 2021.
