 Gaussian 16, Revision A.03,
 Gaussian 16:  EM64L-G16RevA.03 25-Dec-2016

 -------------
 #p 6-31g* mp2
 -------------

 ------------------------------------------------------
 Input file generated by CHIRIPA (05-May-2021 14:53:14)
 ------------------------------------------------------
 Symbolic Z-matrix:
 Charge =  0 Multiplicity = 1

                         Standard orientation:
 ---------------------------------------------------------------------
 Center     Atomic      Atomic             Coordinates (Angstroms)
 Number     Number       Type             X           Y           Z
 ---------------------------------------------------------------------
      1          6           0        2.661237   -0.706078   -0.714136
      2          6           0        1.928635   -1.895915   -0.093194
      3          6           0        0.866625   -2.486114   -1.021415
      4          1           0        1.929666    0.070214   -0.977041
      5          1           0        3.131194   -1.024203   -1.655057
      6          1           0        1.461359   -1.575989    0.846974
      7          1           0        2.662056   -2.669386    0.168439
      8          1           0        1.320783   -2.832268   -1.955503
      9          1           0        0.113263   -1.732658   -1.273112
     10          1           0        0.355292   -3.335424   -0.557658
     11          6           0        3.726027   -0.105181    0.201764
     12          6           0        4.458628    1.084656   -0.419178
     13          6           0        5.520638    1.674855    0.509043
     14          1           0        3.256070    0.212943    1.142685
     15          1           0        4.457598   -0.881473    0.464669
     16          1           0        3.725207    1.858127   -0.680811
     17          1           0        4.925904    0.764730   -1.359347
     18          1           0        6.274000    0.921399    0.760740
     19          1           0        5.066481    2.021008    1.443131
     20          1           0        6.031972    2.524164    0.045286
     21          6           0       -2.267707   -2.126026    0.788680
     22          6           0       -3.193853   -1.722286   -0.178673
     23          6           0       -3.328357   -0.371414   -0.512739
     24          6           0       -2.517001    0.553071    0.143248
     25          6           0       -1.585098    0.182062    1.111338
     26          6           0       -1.467697   -1.174241    1.429469
     27          1           0       -2.169864   -3.177525    1.042001
     28          1           0       -3.816472   -2.459253   -0.677941
     29          1           0       -4.037262   -0.031281   -1.257844
     30          1           0       -0.978361    0.939904    1.591926
     31          1           0       -0.747593   -1.484901    2.181124
     32          7           0       -2.650342    1.986054   -0.201978
     33          8           0       -1.923782    2.780942    0.390391
     34          8           0       -3.478890    2.287203   -1.058398
 ---------------------------------------------------------------------

 SCF Done:  E(RHF) =  -669.534324641     A.U. after   15 cycles
 E2 =    -0.2093936704D+01 EUMP2 =    -0.67162826134490D+03

 The electronic state is 1-A.
 Alpha  occ. eigenvalues --  -20.60825 -20.60820 -15.85880 -11.31258 -11.27824
 Alpha  occ. eigenvalues --  -11.27820 -11.27535 -11.26817 -11.26798 -11.22038
 Alpha  occ. eigenvalues --  -11.21676 -11.21639 -11.21573 -11.21424 -11.21111
 Alpha  occ. eigenvalues --   -1.59901  -1.39454  -1.19433  -1.08835  -1.08658
 Alpha  occ. eigenvalues --   -1.04837  -1.03759  -0.96212  -0.95645  -0.87226
 Alpha  occ. eigenvalues --   -0.86225  -0.82487  -0.79846  -0.78481  -0.77529
 Alpha  occ. eigenvalues --   -0.72096  -0.71227  -0.70531  -0.65349  -0.65075
 Alpha  occ. eigenvalues --   -0.64816  -0.62198  -0.61176  -0.59607  -0.57823
 Alpha  occ. eigenvalues --   -0.55592  -0.55327  -0.53188  -0.52928  -0.52783
 Alpha  occ. eigenvalues --   -0.52609  -0.50095  -0.48858  -0.48851  -0.48147
 Alpha  occ. eigenvalues --   -0.46867  -0.46018  -0.45931  -0.44858  -0.44032
 Alpha  occ. eigenvalues --   -0.37331  -0.36405
 Alpha virt. eigenvalues --    0.04979   0.11154   0.16387   0.20334   0.22901
 Alpha virt. eigenvalues --    0.24261   0.25445   0.26765   0.26932   0.28463
 Alpha virt. eigenvalues --    0.28598   0.29926   0.31327   0.31786   0.32358

 Mulliken charges:
               1
     1  C   -0.299614
     2  C   -0.299516
     3  C   -0.473804
     4  H    0.153334
     5  H    0.151202
     6  H    0.142584
     7  H    0.151398
     8  H    0.155602
     9  H    0.163158
    10  H    0.149133
    11  C   -0.297609
    12  C   -0.300696
    13  C   -0.475860
    14  H    0.146282
    15  H    0.149090
    16  H    0.156087
    17  H    0.152298
    18  H    0.154200
    19  H    0.155354
    20  H    0.161934
    21  C   -0.167309
    22  C   -0.219069
    23  C   -0.171325
    24  C    0.157895
    25  C   -0.172872
    26  C   -0.214536
    27  H    0.225748
    28  H    0.223947
    29  H    0.275958
    30  H    0.275440
    31  H    0.224135
    32  N    0.488125
    33  O   -0.460593
    34  O   -0.460102
 Sum of Mulliken charges =  -0.00000

 Dipole moment (field-independent basis, Debye):
    X=              0.4341    Y=             -4.9898    Z=              1.1524  Tot=              5.1395
 Quadrupole moment (field-independent basis, Debye-Ang):
   XX=            -94.9509   YY=           -100.8156   ZZ=            -92.8280
   XY=             13.5268   XZ=             -1.1481   YZ=              0.7238

 Normal termination of Gaussian 16 at Wed May  5 15:35:00 2021.
