 Gaussian 16, Revision A.03,
 Gaussian 16:  EM64L-G16RevA.03 25-Dec-2016

 -------------
 #p 6-31g* mp2
 -------------

 ------------------------------------------------------
 Input file generated by CHIRIPA (05-May-2021 14:53:11)
 ------------------------------------------------------
 Symbolic Z-matrix:
 Charge =  0 Multiplicity = 1

                         Standard orientation:
 ---------------------------------------------------------------------
 Center     Atomic      Atomic             Coordinates (Angstroms)
 Number     Number       Type             X           Y           Z
 ---------------------------------------------------------------------
      1          6           0        3.618370    0.815307    0.160149
      2          6           0        2.708092    2.006042   -0.142385
      3          6           0        3.363359    3.348691    0.182749
      4          1           0        3.902069    0.839073    1.221231
      5          1           0        4.549113    0.918863   -0.414644
      6          1           0        1.778766    1.899561    0.431751
      7          1           0        2.426372    1.979331   -1.202827
      8          1           0        4.280468    3.481007   -0.400350
      9          1           0        3.629183    3.400784    1.243515
     10          1           0        2.695222    4.186156   -0.041091
     11          6           0        2.977320   -0.533950   -0.159675
     12          6           0        3.887598   -1.724686    0.142860
     13          6           0        3.232330   -3.067335   -0.182275
     14          1           0        2.046576   -0.637506    0.415119
     15          1           0        2.693621   -0.557717   -1.220757
     16          1           0        4.169318   -1.697975    1.203301
     17          1           0        4.816923   -1.618205   -0.431276
     18          1           0        2.966506   -3.119427   -1.243041
     19          1           0        2.315221   -3.199651    0.400824
     20          1           0        3.900468   -3.904800    0.041566
     21          6           0       -1.984400   -2.560909    0.089207
     22          6           0       -3.323691   -2.161690    0.147913
     23          6           0       -3.663375   -0.806407    0.099210
     24          6           0       -2.633678    0.127049   -0.008828
     25          6           0       -1.290017   -0.239273   -0.069459
     26          6           0       -0.973620   -1.600120   -0.019101
     27          1           0       -1.729569   -3.615885    0.127684
     28          1           0       -4.110769   -2.905650    0.232039
     29          1           0       -4.692011   -0.469613    0.142768
     30          1           0       -0.527476    0.525539   -0.153196
     31          1           0        0.067350   -1.907252   -0.064891
     32          7           0       -2.980961    1.564772   -0.061264
     33          8           0       -2.055174    2.367565   -0.156549
     34          8           0       -4.172371    1.861642   -0.006085
 ---------------------------------------------------------------------

 SCF Done:  E(RHF) =  -669.535405131     A.U. after   15 cycles
 E2 =    -0.2092776410D+01 EUMP2 =    -0.67162818154064D+03

 The electronic state is 1-A.
 Alpha  occ. eigenvalues --  -20.60697 -20.60692 -15.85748 -11.31083 -11.27659
 Alpha  occ. eigenvalues --  -11.27611 -11.27381 -11.26672 -11.26577 -11.22420
 Alpha  occ. eigenvalues --  -11.22279 -11.22096 -11.21905 -11.21845 -11.21105
 Alpha  occ. eigenvalues --   -1.59773  -1.39327  -1.19250  -1.09087  -1.08652
 Alpha  occ. eigenvalues --   -1.04646  -1.04087  -0.96561  -0.95493  -0.87575
 Alpha  occ. eigenvalues --   -0.86050  -0.82336  -0.80200  -0.78913  -0.77348
 Alpha  occ. eigenvalues --   -0.71967  -0.71095  -0.70364  -0.65739  -0.64898
 Alpha  occ. eigenvalues --   -0.64659  -0.62003  -0.61460  -0.59952  -0.58149
 Alpha  occ. eigenvalues --   -0.55870  -0.55158  -0.53201  -0.52998  -0.52981
 Alpha  occ. eigenvalues --   -0.52755  -0.50512  -0.48737  -0.48723  -0.48454
 Alpha  occ. eigenvalues --   -0.47224  -0.46380  -0.46285  -0.44739  -0.44352
 Alpha  occ. eigenvalues --   -0.37237  -0.36247
 Alpha virt. eigenvalues --    0.05137   0.11384   0.16597   0.19557   0.22436
 Alpha virt. eigenvalues --    0.22966   0.24792   0.26197   0.26481   0.28659
 Alpha virt. eigenvalues --    0.29388   0.30455   0.31133   0.31494   0.32352

 Mulliken charges:
               1
     1  C   -0.297893
     2  C   -0.305398
     3  C   -0.476421
     4  H    0.151859
     5  H    0.152341
     6  H    0.155753
     7  H    0.154011
     8  H    0.154683
     9  H    0.155576
    10  H    0.168146
    11  C   -0.306314
    12  C   -0.299339
    13  C   -0.480038
    14  H    0.143386
    15  H    0.151000
    16  H    0.155348
    17  H    0.156740
    18  H    0.156571
    19  H    0.147681
    20  H    0.165870
    21  C   -0.172272
    22  C   -0.218800
    23  C   -0.170796
    24  C    0.158093
    25  C   -0.179320
    26  C   -0.229926
    27  H    0.225481
    28  H    0.222918
    29  H    0.275124
    30  H    0.283485
    31  H    0.236677
    32  N    0.487651
    33  O   -0.461077
    34  O   -0.460803
 Sum of Mulliken charges =  -0.00000

 Dipole moment (field-independent basis, Debye):
    X=              1.4853    Y=             -4.9410    Z=              0.1689  Tot=              5.1622
 Quadrupole moment (field-independent basis, Debye-Ang):
   XX=            -95.6376   YY=            -96.9589   ZZ=            -94.7538
   XY=             14.6854   XZ=             -1.3157   YZ=             -0.2372

 Normal termination of Gaussian 16 at Thu May  6 00:54:12 2021.
