 Gaussian 16, Revision A.03,
 Gaussian 16:  EM64L-G16RevA.03 25-Dec-2016

 -------------
 #p 6-31g* mp2
 -------------

 ------------------------------------------------------
 Input file generated by CHIRIPA (05-May-2021 14:53:16)
 ------------------------------------------------------
 Symbolic Z-matrix:
 Charge =  0 Multiplicity = 1

                         Standard orientation:
 ---------------------------------------------------------------------
 Center     Atomic      Atomic             Coordinates (Angstroms)
 Number     Number       Type             X           Y           Z
 ---------------------------------------------------------------------
      1          6           0       -3.865400   -0.059969   -0.157901
      2          6           0       -5.269038   -0.062204    0.448548
      3          6           0       -5.913323   -1.448803    0.442707
      4          1           0       -3.917491   -0.437312   -1.188359
      5          1           0       -3.231166   -0.762356    0.400485
      6          1           0       -5.900062    0.641008   -0.109949
      7          1           0       -5.213628    0.315369    1.477618
      8          1           0       -5.307455   -2.157531    1.016492
      9          1           0       -5.997790   -1.830042   -0.580094
     10          1           0       -6.916108   -1.427393    0.880685
     11          6           0       -3.208211    1.319099   -0.159185
     12          6           0       -1.804573    1.321333   -0.765634
     13          6           0       -1.160288    2.707933   -0.759793
     14          1           0       -3.842445    2.021485   -0.717571
     15          1           0       -3.156120    1.696442    0.871273
     16          1           0       -1.859984    0.943761   -1.794704
     17          1           0       -1.173549    0.618122   -0.207137
     18          1           0       -1.075821    3.089172    0.263008
     19          1           0       -1.766156    3.416661   -1.333578
     20          1           0       -0.157503    2.686523   -1.197771
     21          6           0        0.725250   -1.955618   -0.141373
     22          6           0        1.792722   -2.072783   -1.037641
     23          6           0        2.926856   -1.266915   -0.900289
     24          6           0        2.960144   -0.350335    0.149504
     25          6           0        1.912735   -0.210001    1.058641
     26          6           0        0.788552   -1.026239    0.902067
     27          1           0       -0.151907   -2.585663   -0.255538
     28          1           0        1.746316   -2.793682   -1.848934
     29          1           0        3.767499   -1.336796   -1.579889
     30          1           0        1.988019    0.517773    1.857450
     31          1           0       -0.038968   -0.933065    1.599616
     32          7           0        4.155533    0.508290    0.305087
     33          8           0        4.160356    1.308076    1.238337
     34          8           0        5.065022    0.365236   -0.509164
 ---------------------------------------------------------------------

 SCF Done:  E(RHF) =  -669.534884296     A.U. after   15 cycles
 E2 =    -0.2092778804D+01 EUMP2 =    -0.67162766309966D+03

 The electronic state is 1-A.
 Alpha  occ. eigenvalues --  -20.60801 -20.60795 -15.85856 -11.31243 -11.27819
 Alpha  occ. eigenvalues --  -11.27810 -11.27555 -11.26836 -11.26819 -11.22189
 Alpha  occ. eigenvalues --  -11.22088 -11.21920 -11.21855 -11.21652 -11.21308
 Alpha  occ. eigenvalues --   -1.59876  -1.39429  -1.19426  -1.08984  -1.08809
 Alpha  occ. eigenvalues --   -1.04840  -1.03994  -0.96455  -0.95640  -0.87466
 Alpha  occ. eigenvalues --   -0.86234  -0.82475  -0.80072  -0.78807  -0.77518
 Alpha  occ. eigenvalues --   -0.72073  -0.71200  -0.70516  -0.65657  -0.65075
 Alpha  occ. eigenvalues --   -0.64823  -0.62193  -0.61399  -0.59825  -0.58067
 Alpha  occ. eigenvalues --   -0.55766  -0.55318  -0.53237  -0.53055  -0.52930
 Alpha  occ. eigenvalues --   -0.52866  -0.50402  -0.48836  -0.48826  -0.48378
 Alpha  occ. eigenvalues --   -0.47122  -0.46335  -0.46278  -0.44829  -0.44272
 Alpha  occ. eigenvalues --   -0.37349  -0.36376
 Alpha virt. eigenvalues --    0.05015   0.11111   0.16470   0.19935   0.22790
 Alpha virt. eigenvalues --    0.23886   0.25360   0.26528   0.27404   0.27875
 Alpha virt. eigenvalues --    0.29423   0.30771   0.31161   0.31524   0.31751

 Mulliken charges:
               1
     1  C   -0.296173
     2  C   -0.299817
     3  C   -0.475738
     4  H    0.150284
     5  H    0.138416
     6  H    0.154752
     7  H    0.152581
     8  H    0.152451
     9  H    0.155510
    10  H    0.162689
    11  C   -0.298358
    12  C   -0.306842
    13  C   -0.475677
    14  H    0.152044
    15  H    0.148500
    16  H    0.150910
    17  H    0.154689
    18  H    0.154230
    19  H    0.156277
    20  H    0.164008
    21  C   -0.168235
    22  C   -0.218488
    23  C   -0.170653
    24  C    0.158343
    25  C   -0.170650
    26  C   -0.219914
    27  H    0.227037
    28  H    0.223847
    29  H    0.275882
    30  H    0.276047
    31  H    0.224406
    32  N    0.488071
    33  O   -0.460142
    34  O   -0.460288
 Sum of Mulliken charges =  -0.00000

 Dipole moment (field-independent basis, Debye):
    X=             -4.2001    Y=             -3.0029    Z=             -0.5910  Tot=              5.1969
 Quadrupole moment (field-independent basis, Debye-Ang):
   XX=           -119.3875   YY=            -93.0351   ZZ=            -91.1356
   XY=             -9.3095   XZ=             -3.7285   YZ=              1.6606

 Normal termination of Gaussian 16 at Thu May  6 07:31:54 2021.
