 Gaussian 16, Revision A.03,
 Gaussian 16:  EM64L-G16RevA.03 25-Dec-2016

 -------------
 #p 6-31g* mp2
 -------------

 ------------------------------------------------------
 Input file generated by CHIRIPA (05-May-2021 14:51:13)
 ------------------------------------------------------
 Symbolic Z-matrix:
 Charge =  0 Multiplicity = 1

                         Standard orientation:
 ---------------------------------------------------------------------
 Center     Atomic      Atomic             Coordinates (Angstroms)
 Number     Number       Type             X           Y           Z
 ---------------------------------------------------------------------
      1          6           0        3.053931    1.116096   -0.389326
      2          6           0        2.912777    2.348360    0.504870
      3          6           0        2.767407    3.644386   -0.293239
      4          1           0        3.926175    1.244540   -1.044793
      5          1           0        2.176360    1.046383   -1.046901
      6          1           0        3.789696    2.414954    1.161524
      7          1           0        2.040880    2.216883    1.158418
      8          1           0        1.882529    3.603424   -0.936601
      9          1           0        3.641282    3.802619   -0.933478
     10          1           0        2.667902    4.512610    0.365658
     11          6           0        3.200159   -0.187278    0.393976
     12          6           0        3.341313   -1.419542   -0.500220
     13          6           0        3.486683   -2.715568    0.297889
     14          1           0        4.077730   -0.117565    1.051551
     15          1           0        2.327915   -0.315722    1.049443
     16          1           0        4.213210   -1.288065   -1.153769
     17          1           0        2.464394   -1.486136   -1.156874
     18          1           0        2.612808   -2.873801    0.938128
     19          1           0        4.371561   -2.674606    0.941251
     20          1           0        3.586188   -3.583792   -0.361008
     21          6           0       -2.394714   -0.595391    0.170784
     22          6           0       -1.890806   -1.955093   -0.314264
     23          6           0       -0.424043   -2.202504    0.039554
     24          1           0       -1.771838    0.196753   -0.266798
     25          1           0       -2.263303   -0.530649    1.259790
     26          1           0       -2.024404   -2.017790   -1.401847
     27          1           0       -2.515074   -2.744083    0.124370
     28          1           0       -0.278052   -2.166892    1.123998
     29          1           0        0.215406   -1.436473   -0.410892
     30          1           0       -0.084556   -3.180156   -0.316545
     31          6           0       -3.859376   -0.333427   -0.175434
     32          6           0       -4.363284    1.026275    0.309615
     33          6           0       -5.830047    1.273686   -0.044204
     34          1           0       -3.990786   -0.398170   -1.264440
     35          1           0       -4.482253   -1.125571    0.262148
     36          1           0       -3.739015    1.815265   -0.129020
     37          1           0       -4.229686    1.088972    1.397198
     38          1           0       -6.469496    0.507655    0.406242
     39          1           0       -5.976038    1.238074   -1.128648
     40          1           0       -6.169534    2.251337    0.311896
 ---------------------------------------------------------------------

 SCF Done:  E(RHF) =  -470.732757635     A.U. after   11 cycles
 E2 =    -0.1583673149D+01 EUMP2 =    -0.47231643078337D+03

 The electronic state is 1-A.
 Alpha  occ. eigenvalues --  -11.21662 -11.21640 -11.21580 -11.21480 -11.21465
 Alpha  occ. eigenvalues --  -11.21402 -11.21368 -11.21278 -11.21136 -11.21100
 Alpha  occ. eigenvalues --  -11.21062 -11.20943  -1.08492  -1.08374  -1.03608
 Alpha  occ. eigenvalues --   -1.03448  -0.96052  -0.95909  -0.87064  -0.86937
 Alpha  occ. eigenvalues --   -0.79661  -0.79533  -0.78301  -0.78193  -0.65188
 Alpha  occ. eigenvalues --   -0.64974  -0.61099  -0.60788  -0.59407  -0.59286
 Alpha  occ. eigenvalues --   -0.57638  -0.57531  -0.55331  -0.55219  -0.52715
 Alpha  occ. eigenvalues --   -0.52611  -0.52465  -0.52332  -0.50129  -0.49735
 Alpha  occ. eigenvalues --   -0.48033  -0.47782  -0.46817  -0.46444  -0.45913
 Alpha  occ. eigenvalues --   -0.45800  -0.45628  -0.45562  -0.43832  -0.43725
 Alpha virt. eigenvalues --    0.20662   0.22994   0.23738   0.24708   0.25877
 Alpha virt. eigenvalues --    0.26239   0.27278   0.27541   0.27986   0.29450
 Alpha virt. eigenvalues --    0.30727   0.31295   0.31721   0.31861   0.32343

 Mulliken charges:
               1
     1  C   -0.298517
     2  C   -0.299669
     3  C   -0.475586
     4  H    0.149789
     5  H    0.148034
     6  H    0.152003
     7  H    0.152243
     8  H    0.154758
     9  H    0.155156
    10  H    0.160242
    11  C   -0.300949
    12  C   -0.301367
    13  C   -0.478188
    14  H    0.149507
    15  H    0.152153
    16  H    0.151447
    17  H    0.154216
    18  H    0.159932
    19  H    0.154229
    20  H    0.159188
    21  C   -0.298452
    22  C   -0.300802
    23  C   -0.480450
    24  H    0.149072
    25  H    0.149526
    26  H    0.152075
    27  H    0.152252
    28  H    0.154693
    29  H    0.160960
    30  H    0.161861
    31  C   -0.298297
    32  C   -0.299689
    33  C   -0.475746
    34  H    0.149658
    35  H    0.149879
    36  H    0.151925
    37  H    0.151987
    38  H    0.155258
    39  H    0.155256
    40  H    0.160413
 Sum of Mulliken charges =  -0.00000

 Dipole moment (field-independent basis, Debye):
    X=             -0.0408    Y=             -0.0217    Z=              0.0116  Tot=              0.0476
 Quadrupole moment (field-independent basis, Debye-Ang):
   XX=            -84.9135   YY=            -85.7359   ZZ=            -84.2209
   XY=              0.7346   XZ=             -0.4587   YZ=              0.1230

 Normal termination of Gaussian 16 at Wed May  5 18:24:05 2021.
