 Gaussian 16, Revision A.03,
 Gaussian 16:  EM64L-G16RevA.03 25-Dec-2016

 -------------
 #p 6-31g* mp2
 -------------

 ------------------------------------------------------
 Input file generated by CHIRIPA (05-May-2021 14:55:21)
 ------------------------------------------------------
 Symbolic Z-matrix:
 Charge =  0 Multiplicity = 1

                         Standard orientation:
 ---------------------------------------------------------------------
 Center     Atomic      Atomic             Coordinates (Angstroms)
 Number     Number       Type             X           Y           Z
 ---------------------------------------------------------------------
      1          6           0       -0.977939   -1.712181    2.009750
      2          6           0       -1.926459   -0.696814    2.170564
      3          6           0       -2.493047   -0.071461    1.055907
      4          6           0       -2.086259   -0.488289   -0.210611
      5          6           0       -1.143535   -1.496937   -0.403459
      6          6           0       -0.590188   -2.108304    0.725516
      7          1           0       -0.542942   -2.192538    2.881204
      8          1           0       -2.229484   -0.387131    3.166715
      9          1           0       -3.229398    0.717237    1.151615
     10          1           0       -0.861407   -1.784047   -1.409138
     11          1           0        0.146232   -2.896574    0.597609
     12          7           0       -2.679072    0.166341   -1.398227
     13          8           0       -2.303854   -0.219118   -2.503338
     14          8           0       -3.507712    1.052504   -1.201482
     15          6           0        2.775922    0.143373   -0.363312
     16          6           0        4.271759   -0.137758   -0.216941
     17          6           0        4.717838   -1.380718   -0.987564
     18          1           0        2.209146   -0.730080   -0.012899
     19          1           0        2.535358    0.265276   -1.428518
     20          1           0        4.509678   -0.257723    0.847774
     21          1           0        4.835037    0.736540   -0.567565
     22          1           0        4.508939   -1.267015   -2.056224
     23          1           0        4.181732   -2.266927   -0.632843
     24          1           0        5.790484   -1.563068   -0.869082
     25          6           0        2.314781    1.382846    0.401398
     26          6           0        0.818945    1.663978    0.255027
     27          6           0        0.372866    2.906938    1.025649
     28          1           0        2.555346    1.260944    1.466604
     29          1           0        2.881558    2.256299    0.050985
     30          1           0        0.255666    0.789680    0.605651
     31          1           0        0.581025    1.783942   -0.809689
     32          1           0        0.908971    3.793146    0.670929
     33          1           0        0.581764    2.793235    2.094309
     34          1           0       -0.699781    3.089288    0.907168
 ---------------------------------------------------------------------

 SCF Done:  E(RHF) =  -669.533897493     A.U. after   15 cycles
 E2 =    -0.2096247031D+01 EUMP2 =    -0.67163014452337D+03

 The electronic state is 1-A.
 Alpha  occ. eigenvalues --  -20.60829 -20.60822 -15.85881 -11.31247 -11.27872
 Alpha  occ. eigenvalues --  -11.27844 -11.27668 -11.26927 -11.26916 -11.21826
 Alpha  occ. eigenvalues --  -11.21545 -11.21428 -11.21376 -11.21347 -11.21013
 Alpha  occ. eigenvalues --   -1.59900  -1.39454  -1.19514  -1.08879  -1.08523
 Alpha  occ. eigenvalues --   -1.04905  -1.03615  -0.96089  -0.95698  -0.87104
 Alpha  occ. eigenvalues --   -0.86287  -0.82529  -0.79705  -0.78366  -0.77562
 Alpha  occ. eigenvalues --   -0.72103  -0.71221  -0.70594  -0.65203  -0.65135
 Alpha  occ. eigenvalues --   -0.64888  -0.62240  -0.61064  -0.59489  -0.57723
 Alpha  occ. eigenvalues --   -0.55417  -0.55394  -0.53454  -0.52985  -0.52703
 Alpha  occ. eigenvalues --   -0.52498  -0.50023  -0.48863  -0.48854  -0.47964
 Alpha  occ. eigenvalues --   -0.46684  -0.45849  -0.45601  -0.44851  -0.43863
 Alpha  occ. eigenvalues --   -0.37468  -0.36483
 Alpha virt. eigenvalues --    0.04951   0.11050   0.16357   0.20951   0.22955
 Alpha virt. eigenvalues --    0.23964   0.26196   0.26773   0.27514   0.28232
 Alpha virt. eigenvalues --    0.28547   0.30411   0.31137   0.31551   0.32096

 Mulliken charges:
               1
     1  C   -0.172809
     2  C   -0.216945
     3  C   -0.172623
     4  C    0.162032
     5  C   -0.171351
     6  C   -0.216953
     7  H    0.226567
     8  H    0.224599
     9  H    0.276168
    10  H    0.276696
    11  H    0.224509
    12  N    0.488517
    13  O   -0.460296
    14  O   -0.460757
    15  C   -0.300713
    16  C   -0.299457
    17  C   -0.474941
    18  H    0.143815
    19  H    0.152362
    20  H    0.149920
    21  H    0.154150
    22  H    0.157357
    23  H    0.149280
    24  H    0.161258
    25  C   -0.295803
    26  C   -0.311462
    27  C   -0.475307
    28  H    0.145629
    29  H    0.150388
    30  H    0.164328
    31  H    0.154352
    32  H    0.156361
    33  H    0.149990
    34  H    0.161140
 Sum of Mulliken charges =  -0.00000

 Dipole moment (field-independent basis, Debye):
    X=              1.9615    Y=             -2.3364    Z=              4.1468  Tot=              5.1481
 Quadrupole moment (field-independent basis, Debye-Ang):
   XX=           -102.8711   YY=            -91.8345   ZZ=            -94.6926
   XY=              2.5745   XZ=            -11.2817   YZ=             -0.7193

 Normal termination of Gaussian 16 at Thu May  6 03:00:43 2021.
