 Gaussian 16, Revision A.03,
 Gaussian 16:  EM64L-G16RevA.03 25-Dec-2016

 -------------
 #p 6-31g* mp2
 -------------

 ------------------------------------------------------
 Input file generated by CHIRIPA (05-May-2021 14:51:13)
 ------------------------------------------------------
 Symbolic Z-matrix:
 Charge =  0 Multiplicity = 1

                         Standard orientation:
 ---------------------------------------------------------------------
 Center     Atomic      Atomic             Coordinates (Angstroms)
 Number     Number       Type             X           Y           Z
 ---------------------------------------------------------------------
      1          6           0        2.157878   -0.642886    0.942949
      2          6           0        1.161153   -1.802397    0.935253
      3          6           0        0.367260   -1.908156    2.237690
      4          1           0        2.850067   -0.768332    1.786798
      5          1           0        1.615777    0.296298    1.120306
      6          1           0        1.704800   -2.738955    0.756585
      7          1           0        0.471375   -1.674277    0.091211
      8          1           0       -0.200244   -0.989565    2.418606
      9          1           0        1.040189   -2.060292    3.087762
     10          1           0       -0.339233   -2.743613    2.210508
     11          6           0        2.959101   -0.524142   -0.352300
     12          6           0        3.955826    0.635369   -0.344604
     13          6           0        4.749719    0.741128   -1.647041
     14          1           0        3.501202   -1.463326   -0.529657
     15          1           0        2.266912   -0.398696   -1.196149
     16          1           0        4.645604    0.507249    0.499438
     17          1           0        3.412179    1.571927   -0.165936
     18          1           0        4.076790    0.893264   -2.497113
     19          1           0        5.317223   -0.177464   -1.827957
     20          1           0        5.456212    1.576585   -1.619859
     21          6           0       -2.460615   -0.026586   -0.744358
     22          6           0       -3.571499   -1.067754   -0.603319
     23          6           0       -3.361614   -2.282397   -1.507964
     24          1           0       -2.403706    0.299987   -1.791761
     25          1           0       -1.495293   -0.496597   -0.510605
     26          1           0       -4.534594   -0.595568   -0.835923
     27          1           0       -3.625897   -1.391745    0.443909
     28          1           0       -2.415026   -2.779369   -1.272183
     29          1           0       -3.328887   -1.978668   -2.559286
     30          1           0       -4.167201   -3.013993   -1.391108
     31          6           0       -2.656364    1.193614    0.153708
     32          6           0       -1.545480    2.234782    0.012670
     33          6           0       -1.755365    3.449425    0.917315
     34          1           0       -3.621686    1.663626   -0.080044
     35          1           0       -2.713273    0.867041    1.201112
     36          1           0       -1.491082    2.558773   -1.034558
     37          1           0       -0.582385    1.762597    0.245274
     38          1           0       -1.788092    3.145697    1.968638
     39          1           0       -2.701952    3.946397    0.681534
     40          1           0       -0.949778    4.181022    0.800459
 ---------------------------------------------------------------------

 SCF Done:  E(RHF) =  -470.733300277     A.U. after   11 cycles
 E2 =    -0.1584094715D+01 EUMP2 =    -0.47231739499207D+03

 The electronic state is 1-A.
 Alpha  occ. eigenvalues --  -11.21670 -11.21666 -11.21617 -11.21612 -11.21454
 Alpha  occ. eigenvalues --  -11.21438 -11.21384 -11.21371 -11.21161 -11.21120
 Alpha  occ. eigenvalues --  -11.21085 -11.21077  -1.08506  -1.08441  -1.03583
 Alpha  occ. eigenvalues --   -1.03561  -0.96036  -0.96002  -0.87042  -0.87028
 Alpha  occ. eigenvalues --   -0.79678  -0.79597  -0.78329  -0.78248  -0.65387
 Alpha  occ. eigenvalues --   -0.64855  -0.61020  -0.60924  -0.59412  -0.59360
 Alpha  occ. eigenvalues --   -0.57637  -0.57623  -0.55421  -0.55192  -0.52719
 Alpha  occ. eigenvalues --   -0.52706  -0.52475  -0.52413  -0.50001  -0.49943
 Alpha  occ. eigenvalues --   -0.48008  -0.47944  -0.46877  -0.46565  -0.46064
 Alpha  occ. eigenvalues --   -0.45793  -0.45701  -0.45386  -0.43829  -0.43817
 Alpha virt. eigenvalues --    0.18678   0.22655   0.23498   0.24667   0.25673
 Alpha virt. eigenvalues --    0.26447   0.26951   0.27658   0.28513   0.29735
 Alpha virt. eigenvalues --    0.30638   0.31543   0.31719   0.31808   0.32398

 Mulliken charges:
               1
     1  C   -0.302206
     2  C   -0.306267
     3  C   -0.476757
     4  H    0.150212
     5  H    0.152520
     6  H    0.152911
     7  H    0.156931
     8  H    0.155204
     9  H    0.155966
    10  H    0.160410
    11  C   -0.298446
    12  C   -0.299742
    13  C   -0.475775
    14  H    0.149693
    15  H    0.150301
    16  H    0.151921
    17  H    0.152066
    18  H    0.155435
    19  H    0.155176
    20  H    0.160309
    21  C   -0.307494
    22  C   -0.299172
    23  C   -0.476474
    24  H    0.149414
    25  H    0.158408
    26  H    0.151963
    27  H    0.152486
    28  H    0.155474
    29  H    0.155143
    30  H    0.160434
    31  C   -0.298055
    32  C   -0.304218
    33  C   -0.475515
    34  H    0.149939
    35  H    0.150029
    36  H    0.152207
    37  H    0.154429
    38  H    0.155271
    39  H    0.155580
    40  H    0.160289
 Sum of Mulliken charges =  -0.00000

 Dipole moment (field-independent basis, Debye):
    X=              0.0076    Y=             -0.0052    Z=              0.0008  Tot=              0.0093
 Quadrupole moment (field-independent basis, Debye-Ang):
   XX=            -84.3474   YY=            -85.0891   ZZ=            -85.1887
   XY=             -0.8403   XZ=              1.2555   YZ=             -0.9889

 Normal termination of Gaussian 16 at Wed May  5 15:21:01 2021.
