 Gaussian 16, Revision A.03,
 Gaussian 16:  EM64L-G16RevA.03 25-Dec-2016

 -------------
 #p 6-31g* mp2
 -------------

 ------------------------------------------------------
 Input file generated by CHIRIPA (05-May-2021 14:51:07)
 ------------------------------------------------------
 Symbolic Z-matrix:
 Charge =  0 Multiplicity = 1

                         Standard orientation:
 ---------------------------------------------------------------------
 Center     Atomic      Atomic             Coordinates (Angstroms)
 Number     Number       Type             X           Y           Z
 ---------------------------------------------------------------------
      1          6           0       -3.470776    0.611009   -0.210468
      2          6           0       -2.817839    1.989089   -0.098431
      3          6           0       -3.812763    3.085310    0.283956
      4          1           0       -4.276292    0.653498   -0.956312
      5          1           0       -3.945243    0.358760    0.747993
      6          1           0       -2.343558    2.238065   -1.056389
      7          1           0       -2.013658    1.943266    0.647095
      8          1           0       -4.277748    2.863632    1.250004
      9          1           0       -4.609522    3.160106   -0.463160
     10          1           0       -3.324796    4.062137    0.358502
     11          6           0       -2.488911   -0.495355   -0.592081
     12          6           0       -3.141849   -1.873435   -0.704117
     13          6           0       -2.146925   -2.969656   -1.086504
     14          1           0       -2.014445   -0.243106   -1.550542
     15          1           0       -1.683396   -0.537844    0.153764
     16          1           0       -3.946030   -1.827612   -1.449643
     17          1           0       -3.616130   -2.122411    0.253841
     18          1           0       -1.350166   -3.044452   -0.339389
     19          1           0       -1.681940   -2.747978   -2.052552
     20          1           0       -2.634892   -3.946483   -1.161050
     21          6           0        3.311783   -0.027932   -0.286007
     22          6           0        4.564782    0.847878   -0.316643
     23          6           0        5.217564    0.897697   -1.698376
     24          1           0        3.575485   -1.045465   -0.605429
     25          1           0        2.588747    0.352774   -1.020633
     26          1           0        5.284684    0.466461    0.418803
     27          1           0        4.298104    1.863397    0.003074
     28          1           0        4.519312    1.298838   -2.440084
     29          1           0        5.511497   -0.106035   -2.021992
     30          1           0        6.111440    1.529239   -1.697554
     31          6           0        2.647904   -0.087723    1.088554
     32          6           0        1.394906   -0.963531    1.119191
     33          6           0        0.742123   -1.013351    2.500924
     34          1           0        3.370941   -0.468428    1.823182
     35          1           0        2.384202    0.929812    1.407977
     36          1           0        1.661585   -1.979050    0.799475
     37          1           0        0.675004   -0.582116    0.383746
     38          1           0        0.448190   -0.009620    2.824541
     39          1           0        1.440376   -1.414492    3.242632
     40          1           0       -0.151753   -1.644893    2.500102
 ---------------------------------------------------------------------

 SCF Done:  E(RHF) =  -470.733233362     A.U. after   11 cycles
 E2 =    -0.1583387681D+01 EUMP2 =    -0.47231662104263D+03

 The electronic state is 1-A.
 Alpha  occ. eigenvalues --  -11.21633 -11.21601 -11.21595 -11.21583 -11.21404
 Alpha  occ. eigenvalues --  -11.21401 -11.21341 -11.21339 -11.21142 -11.21093
 Alpha  occ. eigenvalues --  -11.21065 -11.21056  -1.08462  -1.08412  -1.03564
 Alpha  occ. eigenvalues --   -1.03520  -0.96005  -0.95978  -0.87012  -0.87002
 Alpha  occ. eigenvalues --   -0.79661  -0.79556  -0.78356  -0.78146  -0.65184
 Alpha  occ. eigenvalues --   -0.64968  -0.60996  -0.60901  -0.59426  -0.59293
 Alpha  occ. eigenvalues --   -0.57624  -0.57581  -0.55351  -0.55206  -0.52698
 Alpha  occ. eigenvalues --   -0.52678  -0.52422  -0.52412  -0.49971  -0.49897
 Alpha  occ. eigenvalues --   -0.48029  -0.47848  -0.46776  -0.46591  -0.46020
 Alpha  occ. eigenvalues --   -0.45753  -0.45742  -0.45298  -0.43797  -0.43788
 Alpha virt. eigenvalues --    0.20431   0.23119   0.23625   0.24476   0.26090
 Alpha virt. eigenvalues --    0.26502   0.26947   0.27830   0.27929   0.29453
 Alpha virt. eigenvalues --    0.30174   0.31392   0.31631   0.31810   0.32312

 Mulliken charges:
               1
     1  C   -0.297444
     2  C   -0.299896
     3  C   -0.475671
     4  H    0.149680
     5  H    0.149610
     6  H    0.151619
     7  H    0.151415
     8  H    0.155392
     9  H    0.155345
    10  H    0.160158
    11  C   -0.307561
    12  C   -0.299088
    13  C   -0.477530
    14  H    0.148696
    15  H    0.160111
    16  H    0.151918
    17  H    0.151589
    18  H    0.157186
    19  H    0.155245
    20  H    0.160119
    21  C   -0.298456
    22  C   -0.299668
    23  C   -0.475707
    24  H    0.149757
    25  H    0.149995
    26  H    0.151881
    27  H    0.151934
    28  H    0.155173
    29  H    0.155201
    30  H    0.160219
    31  C   -0.297709
    32  C   -0.306737
    33  C   -0.477112
    34  H    0.149360
    35  H    0.149504
    36  H    0.152144
    37  H    0.158622
    38  H    0.154906
    39  H    0.155960
    40  H    0.159841
 Sum of Mulliken charges =  -0.00000

 Dipole moment (field-independent basis, Debye):
    X=              0.0030    Y=             -0.0020    Z=             -0.0037  Tot=              0.0052
 Quadrupole moment (field-independent basis, Debye-Ang):
   XX=            -85.1573   YY=            -84.9466   ZZ=            -84.7150
   XY=             -0.0689   XZ=              1.0227   YZ=             -0.4871

 Normal termination of Gaussian 16 at Wed May  5 15:02:37 2021.
