 Gaussian 16, Revision A.03,
 Gaussian 16:  EM64L-G16RevA.03 25-Dec-2016

 -------------
 #p 6-31g* mp2
 -------------

 ------------------------------------------------------
 Input file generated by CHIRIPA (05-May-2021 14:55:23)
 ------------------------------------------------------
 Symbolic Z-matrix:
 Charge =  0 Multiplicity = 1

                         Standard orientation:
 ---------------------------------------------------------------------
 Center     Atomic      Atomic             Coordinates (Angstroms)
 Number     Number       Type             X           Y           Z
 ---------------------------------------------------------------------
      1          6           0        3.482672   -2.115572   -0.801092
      2          6           0        2.189799   -1.684936   -0.485571
      3          6           0        1.956338   -0.361138   -0.101381
      4          6           0        3.043771    0.509140   -0.043109
      5          6           0        4.343437    0.110222   -0.351365
      6          6           0        4.553477   -1.218201   -0.733102
      7          1           0        3.654933   -3.145727   -1.098588
      8          1           0        1.356296   -2.379645   -0.537497
      9          1           0        0.965627   -0.001162    0.148273
     10          1           0        5.154274    0.825933   -0.290375
     11          1           0        5.558606   -1.549852   -0.977576
     12          7           0        2.809014    1.913034    0.362317
     13          8           0        3.783964    2.660171    0.405864
     14          8           0        1.654507    2.239686    0.628867
     15          6           0       -4.509169    0.149135    0.245948
     16          6           0       -5.236916    0.523470   -1.045655
     17          6           0       -6.361771    1.533941   -0.818833
     18          1           0       -5.234126   -0.261636    0.961943
     19          1           0       -4.098616    1.059487    0.704317
     20          1           0       -5.644788   -0.387491   -1.502169
     21          1           0       -4.510109    0.933221   -1.758727
     22          1           0       -5.967325    2.458636   -0.385300
     23          1           0       -7.108451    1.130420   -0.127283
     24          1           0       -6.868556    1.787447   -1.755188
     25          6           0       -3.381934   -0.860205    0.035468
     26          6           0       -2.654186   -1.234540    1.327072
     27          6           0       -1.529332   -2.245010    1.100250
     28          1           0       -3.792486   -1.770557   -0.422900
     29          1           0       -2.656976   -0.449433   -0.680526
     30          1           0       -3.380993   -1.644291    2.040144
     31          1           0       -2.246315   -0.323578    1.783586
     32          1           0       -0.782652   -1.841489    0.408700
     33          1           0       -1.923777   -3.169706    0.666716
     34          1           0       -1.022546   -2.498516    2.036605
 ---------------------------------------------------------------------

 SCF Done:  E(RHF) =  -669.535172121     A.U. after   15 cycles
 E2 =    -0.2091582194D+01 EUMP2 =    -0.67162675431582D+03

 The electronic state is 1-A.
 Alpha  occ. eigenvalues --  -20.60755 -20.60750 -15.85807 -11.31150 -11.27715
 Alpha  occ. eigenvalues --  -11.27699 -11.27447 -11.26730 -11.26678 -11.22042
 Alpha  occ. eigenvalues --  -11.21918 -11.21703 -11.21658 -11.21485 -11.21055
 Alpha  occ. eigenvalues --   -1.59830  -1.39384  -1.19317  -1.08717  -1.08688
 Alpha  occ. eigenvalues --   -1.04724  -1.03837  -0.96319  -0.95556  -0.87345
 Alpha  occ. eigenvalues --   -0.86115  -0.82398  -0.79913  -0.78462  -0.77443
 Alpha  occ. eigenvalues --   -0.72027  -0.71152  -0.70437  -0.65332  -0.64968
 Alpha  occ. eigenvalues --   -0.64727  -0.62199  -0.61149  -0.59689  -0.57893
 Alpha  occ. eigenvalues --   -0.55646  -0.55184  -0.53082  -0.53011  -0.52867
 Alpha  occ. eigenvalues --   -0.52647  -0.50258  -0.48783  -0.48781  -0.48217
 Alpha  occ. eigenvalues --   -0.46921  -0.46018  -0.45899  -0.44795  -0.44063
 Alpha  occ. eigenvalues --   -0.37298  -0.36315
 Alpha virt. eigenvalues --    0.05089   0.11334   0.16583   0.19802   0.22636
 Alpha virt. eigenvalues --    0.23863   0.25647   0.26454   0.27433   0.28174
 Alpha virt. eigenvalues --    0.29239   0.30039   0.31320   0.31447   0.32343

 Mulliken charges:
               1
     1  C   -0.170903
     2  C   -0.221825
     3  C   -0.174331
     4  C    0.159169
     5  C   -0.171064
     6  C   -0.218651
     7  H    0.225648
     8  H    0.228458
     9  H    0.276704
    10  H    0.275359
    11  H    0.223264
    12  N    0.488544
    13  O   -0.460433
    14  O   -0.461309
    15  C   -0.299410
    16  C   -0.300076
    17  C   -0.476163
    18  H    0.149864
    19  H    0.154353
    20  H    0.150735
    21  H    0.153307
    22  H    0.157580
    23  H    0.154881
    24  H    0.160578
    25  C   -0.298459
    26  C   -0.301938
    27  C   -0.480995
    28  H    0.148758
    29  H    0.148319
    30  H    0.155107
    31  H    0.158892
    32  H    0.144276
    33  H    0.156900
    34  H    0.164859
 Sum of Mulliken charges =  -0.00000

 Dipole moment (field-independent basis, Debye):
    X=              0.6758    Y=             -4.9154    Z=             -1.3618  Tot=              5.1451
 Quadrupole moment (field-independent basis, Debye-Ang):
   XX=            -84.7074   YY=           -100.1767   ZZ=            -95.3182
   XY=            -12.7763   XZ=             -5.3372   YZ=             -0.7707

 Normal termination of Gaussian 16 at Thu May  6 19:17:48 2021.
