 Gaussian 16, Revision A.03,
 Gaussian 16:  EM64L-G16RevA.03 25-Dec-2016

 -------------
 #p 6-31g* mp2
 -------------

 ------------------------------------------------------
 Input file generated by CHIRIPA (05-May-2021 14:51:10)
 ------------------------------------------------------
 Symbolic Z-matrix:
 Charge =  0 Multiplicity = 1

                         Standard orientation:
 ---------------------------------------------------------------------
 Center     Atomic      Atomic             Coordinates (Angstroms)
 Number     Number       Type             X           Y           Z
 ---------------------------------------------------------------------
      1          6           0        2.767402   -0.887322    0.115028
      2          6           0        3.009238    0.589002    0.431201
      3          6           0        4.445507    0.871372    0.873007
      4          1           0        3.004562   -1.489490    1.002775
      5          1           0        3.463712   -1.205111   -0.673361
      6          1           0        2.311741    0.904272    1.217788
      7          1           0        2.771292    1.187743   -0.457341
      8          1           0        5.153330    0.584120    0.088741
      9          1           0        4.691169    0.299039    1.773388
     10          1           0        4.596274    1.932649    1.093961
     11          6           0        1.336132   -1.185420   -0.328067
     12          6           0        1.094296   -2.661744   -0.644241
     13          6           0       -0.341973   -2.944114   -1.086046
     14          1           0        0.639822   -0.867631    0.460322
     15          1           0        1.098972   -0.583252   -1.215814
     16          1           0        1.332242   -3.260485    0.244302
     17          1           0        1.791793   -2.977014   -1.430827
     18          1           0       -0.587635   -2.371781   -1.986427
     19          1           0       -1.049797   -2.656862   -0.301780
     20          1           0       -0.492741   -4.005391   -1.307000
     21          6           0       -2.549397    0.474097   -0.033639
     22          6           0       -2.731397   -0.482429    1.145309
     23          6           0       -3.729971   -1.601891    0.849592
     24          1           0       -3.522796    0.909471   -0.298003
     25          1           0       -2.213367   -0.095987   -0.910841
     26          1           0       -3.065653    0.089501    2.020401
     27          1           0       -1.757419   -0.915431    1.407020
     28          1           0       -3.398515   -2.197380   -0.007222
     29          1           0       -4.714184   -1.186740    0.609644
     30          1           0       -3.844801   -2.273952    1.705751
     31          6           0       -1.554137    1.598645    0.246678
     32          6           0       -1.372137    2.555171   -0.932270
     33          6           0       -0.373563    3.674633   -0.636553
     34          1           0       -1.890167    2.168729    1.123880
     35          1           0       -0.580737    1.163270    0.511042
     36          1           0       -2.346115    2.988173   -1.193981
     37          1           0       -1.037880    1.983241   -1.807362
     38          1           0        0.610650    3.259482   -0.396604
     39          1           0       -0.705019    4.270122    0.220262
     40          1           0       -0.258733    4.346694   -1.492711
 ---------------------------------------------------------------------

 SCF Done:  E(RHF) =  -470.731718457     A.U. after   11 cycles
 E2 =    -0.1586639711D+01 EUMP2 =    -0.47231835816866D+03

 The electronic state is 1-A.
 Alpha  occ. eigenvalues --  -11.21706 -11.21684 -11.21591 -11.21528 -11.21499
 Alpha  occ. eigenvalues --  -11.21439 -11.21296 -11.21215 -11.21136 -11.21115
 Alpha  occ. eigenvalues --  -11.21030 -11.20996  -1.08570  -1.08330  -1.03646
 Alpha  occ. eigenvalues --   -1.03461  -0.96096  -0.95897  -0.87090  -0.86939
 Alpha  occ. eigenvalues --   -0.79696  -0.79552  -0.78480  -0.78084  -0.65359
 Alpha  occ. eigenvalues --   -0.64851  -0.61252  -0.60733  -0.59413  -0.59285
 Alpha  occ. eigenvalues --   -0.57714  -0.57514  -0.55580  -0.55008  -0.52758
 Alpha  occ. eigenvalues --   -0.52637  -0.52494  -0.52305  -0.50091  -0.49781
 Alpha  occ. eigenvalues --   -0.48148  -0.47717  -0.46757  -0.46656  -0.46458
 Alpha  occ. eigenvalues --   -0.45885  -0.45549  -0.44916  -0.43867  -0.43712
 Alpha virt. eigenvalues --    0.20112   0.21696   0.23487   0.24207   0.24937
 Alpha virt. eigenvalues --    0.25664   0.27230   0.27691   0.28896   0.29872
 Alpha virt. eigenvalues --    0.30890   0.31072   0.31427   0.31884   0.32530

 Mulliken charges:
               1
     1  C   -0.297769
     2  C   -0.303812
     3  C   -0.475722
     4  H    0.149943
     5  H    0.149987
     6  H    0.153629
     7  H    0.153530
     8  H    0.155512
     9  H    0.155495
    10  H    0.160884
    11  C   -0.307139
    12  C   -0.298878
    13  C   -0.484841
    14  H    0.157135
    15  H    0.150014
    16  H    0.151988
    17  H    0.152210
    18  H    0.154909
    19  H    0.165550
    20  H    0.160734
    21  C   -0.300386
    22  C   -0.305127
    23  C   -0.479617
    24  H    0.149553
    25  H    0.153121
    26  H    0.152872
    27  H    0.152857
    28  H    0.159165
    29  H    0.155756
    30  H    0.159737
    31  C   -0.305242
    32  C   -0.299047
    33  C   -0.478749
    34  H    0.148300
    35  H    0.158108
    36  H    0.151533
    37  H    0.151093
    38  H    0.158279
    39  H    0.154862
    40  H    0.159572
 Sum of Mulliken charges =  -0.00000

 Dipole moment (field-independent basis, Debye):
    X=              0.0517    Y=             -0.0470    Z=              0.0038  Tot=              0.0699
 Quadrupole moment (field-independent basis, Debye-Ang):
   XX=            -85.5680   YY=            -85.3886   ZZ=            -83.8632
   XY=             -1.2801   XZ=             -0.8307   YZ=             -0.1100

 Normal termination of Gaussian 16 at Wed May  5 19:48:16 2021.
