 Gaussian 16, Revision A.03,
 Gaussian 16:  EM64L-G16RevA.03 25-Dec-2016

 -------------
 #p 6-31g* mp2
 -------------

 ------------------------------------------------------
 Input file generated by CHIRIPA (05-May-2021 14:53:18)
 ------------------------------------------------------
 Symbolic Z-matrix:
 Charge =  0 Multiplicity = 1

                         Standard orientation:
 ---------------------------------------------------------------------
 Center     Atomic      Atomic             Coordinates (Angstroms)
 Number     Number       Type             X           Y           Z
 ---------------------------------------------------------------------
      1          6           0        3.104758    0.138021   -0.020178
      2          6           0        2.813463   -1.313381   -0.403013
      3          6           0        4.038965   -2.217681   -0.268178
      4          1           0        3.916689    0.521613   -0.653084
      5          1           0        3.473219    0.170116    1.014521
      6          1           0        2.444349   -1.342586   -1.436221
      7          1           0        2.002000   -1.693502    0.230748
      8          1           0        4.405658   -2.218282    0.763393
      9          1           0        4.850520   -1.865373   -0.913048
     10          1           0        3.808289   -3.250636   -0.546839
     11          6           0        1.889342    1.054367   -0.149802
     12          6           0        2.180638    2.505769    0.233034
     13          6           0        0.955135    3.410069    0.098198
     14          1           0        1.520881    1.022272   -1.184500
     15          1           0        1.077411    0.670775    0.483104
     16          1           0        2.992100    2.885890   -0.400727
     17          1           0        2.549751    2.534974    1.266242
     18          1           0        0.143580    3.057761    0.743068
     19          1           0        0.588442    3.410670   -0.933372
     20          1           0        1.185811    4.443024    0.376859
     21          6           0       -2.392132   -0.167114   -2.399766
     22          6           0       -1.377186   -1.028088   -1.969500
     23          6           0       -1.123818   -1.201284   -0.605552
     24          6           0       -1.908156   -0.494650    0.304818
     25          6           0       -2.926523    0.370365   -0.092631
     26          6           0       -3.162204    0.528140   -1.461612
     27          1           0       -2.582084   -0.038561   -3.461269
     28          1           0       -0.777557   -1.569320   -2.695833
     29          1           0       -0.344392   -1.861464   -0.244893
     30          1           0       -3.507602    0.896311    0.655131
     31          1           0       -3.951085    1.197450   -1.792874
     32          7           0       -1.649290   -0.669841    1.751434
     33          8           0       -2.354359   -0.035831    2.533447
     34          8           0       -0.746221   -1.437849    2.075886
 ---------------------------------------------------------------------

 SCF Done:  E(RHF) =  -669.535395256     A.U. after   15 cycles
 E2 =    -0.2094432286D+01 EUMP2 =    -0.67162982754235D+03

 The electronic state is 1-A.
 Alpha  occ. eigenvalues --  -20.60906 -20.60890 -15.85921 -11.31166 -11.27771
 Alpha  occ. eigenvalues --  -11.27713 -11.27504 -11.26749 -11.26733 -11.21743
 Alpha  occ. eigenvalues --  -11.21479 -11.21336 -11.21244 -11.21111 -11.20992
 Alpha  occ. eigenvalues --   -1.59959  -1.39517  -1.19360  -1.08780  -1.08393
 Alpha  occ. eigenvalues --   -1.04748  -1.03517  -0.95944  -0.95627  -0.86968
 Alpha  occ. eigenvalues --   -0.86162  -0.82461  -0.79621  -0.78277  -0.77479
 Alpha  occ. eigenvalues --   -0.72146  -0.71278  -0.70483  -0.65096  -0.64972
 Alpha  occ. eigenvalues --   -0.64716  -0.62119  -0.60895  -0.59324  -0.57581
 Alpha  occ. eigenvalues --   -0.55274  -0.55214  -0.53140  -0.52887  -0.52619
 Alpha  occ. eigenvalues --   -0.52355  -0.49880  -0.48920  -0.48895  -0.47914
 Alpha  occ. eigenvalues --   -0.46619  -0.45795  -0.45693  -0.44820  -0.43753
 Alpha  occ. eigenvalues --   -0.37318  -0.36288
 Alpha virt. eigenvalues --    0.04981   0.11232   0.16440   0.20825   0.23029
 Alpha virt. eigenvalues --    0.24157   0.25716   0.26164   0.27941   0.28098
 Alpha virt. eigenvalues --    0.29006   0.30017   0.31408   0.31905   0.32031

 Mulliken charges:
               1
     1  C   -0.296231
     2  C   -0.310327
     3  C   -0.474646
     4  H    0.148026
     5  H    0.155189
     6  H    0.141832
     7  H    0.162724
     8  H    0.160226
     9  H    0.154441
    10  H    0.158356
    11  C   -0.301874
    12  C   -0.299883
    13  C   -0.475730
    14  H    0.145055
    15  H    0.154177
    16  H    0.150057
    17  H    0.155706
    18  H    0.157143
    19  H    0.151592
    20  H    0.160291
    21  C   -0.170409
    22  C   -0.221510
    23  C   -0.168465
    24  C    0.155934
    25  C   -0.170364
    26  C   -0.218753
    27  H    0.225536
    28  H    0.223875
    29  H    0.282257
    30  H    0.275437
    31  H    0.223397
    32  N    0.488663
    33  O   -0.459196
    34  O   -0.462523
 Sum of Mulliken charges =  -0.00000

 Dipole moment (field-independent basis, Debye):
    X=             -0.9210    Y=              0.6069    Z=             -4.9664  Tot=              5.0874
 Quadrupole moment (field-independent basis, Debye-Ang):
   XX=            -89.3133   YY=            -94.5099   ZZ=            -97.3582
   XY=             -2.8738   XZ=              8.8133   YZ=              3.3430

 Normal termination of Gaussian 16 at Wed May  5 23:39:37 2021.
