 Gaussian 16, Revision A.03,
 Gaussian 16:  EM64L-G16RevA.03 25-Dec-2016

 -------------
 #p 6-31g* mp2
 -------------

 ------------------------------------------------------
 Input file generated by CHIRIPA (05-May-2021 14:57:23)
 ------------------------------------------------------
 Symbolic Z-matrix:
 Charge =  0 Multiplicity = 1

                         Standard orientation:
 ---------------------------------------------------------------------
 Center     Atomic      Atomic             Coordinates (Angstroms)
 Number     Number       Type             X           Y           Z
 ---------------------------------------------------------------------
      1          6           0        2.487088   -1.840149    1.018407
      2          6           0        2.231383   -0.465482    1.056182
      3          6           0        3.150289    0.442584    0.521790
      4          6           0        4.319949   -0.060987   -0.045311
      5          6           0        4.603317   -1.424883   -0.098044
      6          6           0        3.670153   -2.314625    0.442430
      7          1           0        1.767722   -2.538439    1.435898
      8          1           0        1.313436   -0.094145    1.502868
      9          1           0        2.977569    1.511851    0.537712
     10          1           0        5.527199   -1.764996   -0.549910
     11          1           0        3.871383   -3.381681    0.411698
     12          7           0        5.300301    0.890642   -0.614267
     13          8           0        6.323319    0.421622   -1.108322
     14          8           0        5.027119    2.087531   -0.555388
     15          6           0       -2.569677    2.054161    0.636989
     16          6           0       -3.913874    2.348855    0.386371
     17          6           0       -4.803101    1.339338    0.005974
     18          6           0       -4.311964    0.040297   -0.114727
     19          6           0       -2.978334   -0.284927    0.128069
     20          6           0       -2.107013    0.740527    0.507267
     21          1           0       -1.885860    2.844568    0.932024
     22          1           0       -4.275977    3.368137    0.486325
     23          1           0       -5.848699    1.539585   -0.194136
     24          1           0       -2.646778   -1.310516    0.020104
     25          1           0       -1.063612    0.508740    0.701262
     26          7           0       -5.243872   -1.036868   -0.516801
     27          8           0       -4.786354   -2.173290   -0.616109
     28          8           0       -6.414171   -0.724334   -0.725025
 ---------------------------------------------------------------------

 SCF Done:  E(RHF) =  -868.336853990     A.U. after   16 cycles
 E2 =    -0.2599371763D+01 EUMP2 =    -0.87093622575285D+03

 The electronic state is 1-A.
 Alpha  occ. eigenvalues --  -20.61282 -20.61269 -20.61215 -20.61203 -15.86339
 Alpha  occ. eigenvalues --  -15.86270 -11.31807 -11.31710 -11.28479 -11.28367
 Alpha  occ. eigenvalues --  -11.28354 -11.28263 -11.28184 -11.28070 -11.27572
 Alpha  occ. eigenvalues --  -11.27437 -11.27366 -11.27274  -1.60351  -1.60285
 Alpha  occ. eigenvalues --   -1.39902  -1.39837  -1.20009  -1.19902  -1.09381
 Alpha  occ. eigenvalues --   -1.09283  -1.05446  -1.05328  -0.96192  -0.96101
 Alpha  occ. eigenvalues --   -0.86852  -0.86716  -0.83041  -0.82937  -0.78084
 Alpha  occ. eigenvalues --   -0.77960  -0.72555  -0.72487  -0.71676  -0.71609
 Alpha  occ. eigenvalues --   -0.71106  -0.71008  -0.65669  -0.65638  -0.65561
 Alpha  occ. eigenvalues --   -0.65227  -0.62876  -0.62600  -0.55933  -0.55817
 Alpha  occ. eigenvalues --   -0.53758  -0.53665  -0.53634  -0.53306  -0.49324
 Alpha  occ. eigenvalues --   -0.49302  -0.49250  -0.49236  -0.45285  -0.45226
 Alpha  occ. eigenvalues --   -0.37982  -0.37878  -0.37046  -0.36928
 Alpha virt. eigenvalues --    0.04498   0.04584   0.10525   0.10720   0.15887
 Alpha virt. eigenvalues --    0.16048   0.18274   0.21901   0.24580   0.27427
 Alpha virt. eigenvalues --    0.27943   0.28494   0.29413   0.31455   0.31824

 Mulliken charges:
               1
     1  C   -0.170670
     2  C   -0.223593
     3  C   -0.170221
     4  C    0.159001
     5  C   -0.169141
     6  C   -0.218194
     7  H    0.227523
     8  H    0.218034
     9  H    0.273915
    10  H    0.278227
    11  H    0.226900
    12  N    0.488191
    13  O   -0.457989
    14  O   -0.460603
    15  C   -0.171114
    16  C   -0.218179
    17  C   -0.169894
    18  C    0.159128
    19  C   -0.171438
    20  C   -0.221032
    21  H    0.226518
    22  H    0.226027
    23  H    0.277576
    24  H    0.274031
    25  H    0.218109
    26  N    0.488173
    27  O   -0.460832
    28  O   -0.458453
 Sum of Mulliken charges =  -0.00000

 Dipole moment (field-independent basis, Debye):
    X=             -0.1240    Y=              0.4047    Z=              3.3448  Tot=              3.3714
 Quadrupole moment (field-independent basis, Debye-Ang):
   XX=           -157.3903   YY=            -99.0683   ZZ=           -106.7316
   XY=            -36.8055   XZ=              1.6305   YZ=              0.5467

 Normal termination of Gaussian 16 at Fri May  7 09:30:10 2021.
