 Gaussian 16, Revision A.03,
 Gaussian 16:  EM64L-G16RevA.03 25-Dec-2016

 -------------
 #p 6-31g* mp2
 -------------

 ------------------------------------------------------
 Input file generated by CHIRIPA (05-May-2021 14:51:14)
 ------------------------------------------------------
 Symbolic Z-matrix:
 Charge =  0 Multiplicity = 1

                         Standard orientation:
 ---------------------------------------------------------------------
 Center     Atomic      Atomic             Coordinates (Angstroms)
 Number     Number       Type             X           Y           Z
 ---------------------------------------------------------------------
      1          6           0        3.726841   -0.411742    0.131298
      2          6           0        4.325170   -1.451820   -0.816449
      3          6           0        4.595484   -2.790988   -0.129896
      4          1           0        4.410517   -0.260041    0.977772
      5          1           0        2.790887   -0.804682    0.551993
      6          1           0        5.259005   -1.056475   -1.236295
      7          1           0        3.640079   -1.600922   -1.660863
      8          1           0        3.668591   -3.210795    0.274123
      9          1           0        5.296715   -2.663254    0.701104
     10          1           0        5.023014   -3.519731   -0.825607
     11          6           0        3.451002    0.932291   -0.540428
     12          6           0        2.852672    1.972369    0.407318
     13          6           0        2.582358    3.311537   -0.279234
     14          1           0        4.386955    1.325231   -0.961124
     15          1           0        2.767326    0.780590   -1.386902
     16          1           0        3.537763    2.121471    1.251732
     17          1           0        1.918838    1.577024    0.827164
     18          1           0        1.881128    3.183803   -1.110234
     19          1           0        3.509251    3.731344   -0.683254
     20          1           0        2.154829    4.040280    0.416476
     21          6           0       -2.965792    0.062641    0.506008
     22          6           0       -1.810519   -0.918894    0.705806
     23          6           0       -0.571019   -0.257980    1.309647
     24          1           0       -2.632880    0.883534   -0.143799
     25          1           0       -3.224807    0.515056    1.473287
     26          1           0       -1.554678   -1.370351   -0.261327
     27          1           0       -2.146279   -1.737645    1.355059
     28          1           0       -0.803903    0.177128    2.286912
     29          1           0       -0.208941    0.546507    0.661342
     30          1           0        0.242554   -0.977662    1.443883
     31          6           0       -4.212050   -0.583190   -0.096879
     32          6           0       -5.367323    0.398345   -0.296675
     33          6           0       -6.606824   -0.262569   -0.900517
     34          1           0       -3.953035   -1.035605   -1.064156
     35          1           0       -4.544963   -1.404082    0.552930
     36          1           0       -5.031563    1.217096   -0.945928
     37          1           0       -5.623165    0.849802    0.670458
     38          1           0       -6.968903   -1.067056   -0.252212
     39          1           0       -6.373939   -0.697676   -1.877782
     40          1           0       -7.420397    0.457113   -1.034752
 ---------------------------------------------------------------------

 SCF Done:  E(RHF) =  -470.733003605     A.U. after   11 cycles
 E2 =    -0.1583127040D+01 EUMP2 =    -0.47231613064556D+03

 The electronic state is 1-A.
 Alpha  occ. eigenvalues --  -11.21678 -11.21634 -11.21567 -11.21477 -11.21457
 Alpha  occ. eigenvalues --  -11.21395 -11.21343 -11.21284 -11.21171 -11.21096
 Alpha  occ. eigenvalues --  -11.21053 -11.21028  -1.08487  -1.08371  -1.03595
 Alpha  occ. eigenvalues --   -1.03476  -0.96047  -0.95934  -0.87072  -0.86947
 Alpha  occ. eigenvalues --   -0.79689  -0.79518  -0.78306  -0.78168  -0.65158
 Alpha  occ. eigenvalues --   -0.64980  -0.61069  -0.60818  -0.59416  -0.59303
 Alpha  occ. eigenvalues --   -0.57683  -0.57515  -0.55336  -0.55226  -0.52773
 Alpha  occ. eigenvalues --   -0.52612  -0.52507  -0.52329  -0.50059  -0.49831
 Alpha  occ. eigenvalues --   -0.48067  -0.47780  -0.46788  -0.46473  -0.45882
 Alpha  occ. eigenvalues --   -0.45775  -0.45710  -0.45517  -0.43812  -0.43722
 Alpha virt. eigenvalues --    0.21102   0.23043   0.23813   0.24456   0.25680
 Alpha virt. eigenvalues --    0.26645   0.27124   0.27439   0.27977   0.29273
 Alpha virt. eigenvalues --    0.29856   0.31488   0.31718   0.31903   0.32188

 Mulliken charges:
               1
     1  C   -0.302846
     2  C   -0.299430
     3  C   -0.475560
     4  H    0.149448
     5  H    0.154128
     6  H    0.151842
     7  H    0.151651
     8  H    0.154671
     9  H    0.155196
    10  H    0.160151
    11  C   -0.297358
    12  C   -0.308313
    13  C   -0.475503
    14  H    0.149267
    15  H    0.148677
    16  H    0.151590
    17  H    0.161904
    18  H    0.154045
    19  H    0.155106
    20  H    0.160106
    21  C   -0.298670
    22  C   -0.299948
    23  C   -0.481804
    24  H    0.149807
    25  H    0.149795
    26  H    0.151896
    27  H    0.152272
    28  H    0.156172
    29  H    0.158268
    30  H    0.162940
    31  C   -0.298312
    32  C   -0.299698
    33  C   -0.475741
    34  H    0.149554
    35  H    0.149791
    36  H    0.152026
    37  H    0.152033
    38  H    0.155235
    39  H    0.155217
    40  H    0.160392
 Sum of Mulliken charges =  -0.00000

 Dipole moment (field-independent basis, Debye):
    X=             -0.0522    Y=             -0.0096    Z=              0.0290  Tot=              0.0605
 Quadrupole moment (field-independent basis, Debye-Ang):
   XX=            -84.8762   YY=            -85.9080   ZZ=            -84.1286
   XY=              0.2792   XZ=             -0.5688   YZ=              0.1124

 Normal termination of Gaussian 16 at Thu May  6 02:25:35 2021.
