 Gaussian 16, Revision A.03,
 Gaussian 16:  EM64L-G16RevA.03 25-Dec-2016

 -------------
 #p 6-31g* mp2
 -------------

 ------------------------------------------------------
 Input file generated by CHIRIPA (05-May-2021 14:57:23)
 ------------------------------------------------------
 Symbolic Z-matrix:
 Charge =  0 Multiplicity = 1

                         Standard orientation:
 ---------------------------------------------------------------------
 Center     Atomic      Atomic             Coordinates (Angstroms)
 Number     Number       Type             X           Y           Z
 ---------------------------------------------------------------------
      1          6           0       -1.339500    2.369878   -0.346268
      2          6           0       -0.939293    1.423190    0.602488
      3          6           0       -1.673677    0.247834    0.786247
      4          6           0       -2.808170    0.050608    0.000553
      5          6           0       -3.232479    0.974878   -0.952849
      6          6           0       -2.482801    2.143100   -1.119545
      7          1           0       -0.763073    3.280151   -0.482389
      8          1           0       -0.051817    1.596652    1.204436
      9          1           0       -1.386414   -0.501770    1.513566
     10          1           0       -4.121647    0.773976   -1.538030
     11          1           0       -2.795972    2.876559   -1.857114
     12          7           0       -3.593725   -1.189913    0.186058
     13          8           0       -4.589427   -1.340041   -0.518695
     14          8           0       -3.198868   -1.988614    1.032699
     15          6           0        2.356880    0.443833    2.432915
     16          6           0        2.717954    1.392346    1.470383
     17          6           0        2.898964    1.016420    0.136043
     18          6           0        2.709814   -0.322627   -0.202282
     19          6           0        2.350000   -1.291048    0.733659
     20          6           0        2.174378   -0.892481    2.062135
     21          1           0        2.218359    0.744656    3.467185
     22          1           0        2.860365    2.430853    1.755461
     23          1           0        3.178437    1.730087   -0.629458
     24          1           0        2.215170   -2.318832    0.419178
     25          1           0        1.893956   -1.631272    2.807517
     26          7           0        2.898589   -0.732587   -1.611784
     27          8           0        2.725927   -1.918579   -1.884266
     28          8           0        3.215640    0.139840   -2.417380
 ---------------------------------------------------------------------

 SCF Done:  E(RHF) =  -868.337040510     A.U. after   16 cycles
 E2 =    -0.2602833429D+01 EUMP2 =    -0.87093987393879D+03

 The electronic state is 1-A.
 Alpha  occ. eigenvalues --  -20.61359 -20.61336 -20.60790 -20.60771 -15.86412
 Alpha  occ. eigenvalues --  -15.85833 -11.32032 -11.31160 -11.28675 -11.28591
 Alpha  occ. eigenvalues --  -11.28441 -11.27729 -11.27708 -11.27692 -11.27654
 Alpha  occ. eigenvalues --  -11.27450 -11.26727 -11.26591  -1.60418  -1.59855
 Alpha  occ. eigenvalues --   -1.39965  -1.39412  -1.20264  -1.19312  -1.09611
 Alpha  occ. eigenvalues --   -1.08723  -1.05689  -1.04703  -0.96382  -0.95572
 Alpha  occ. eigenvalues --   -0.87061  -0.86114  -0.83198  -0.82402  -0.78195
 Alpha  occ. eigenvalues --   -0.77460  -0.72626  -0.72056  -0.71741  -0.71324
 Alpha  occ. eigenvalues --   -0.71173  -0.70458  -0.65889  -0.65653  -0.64967
 Alpha  occ. eigenvalues --   -0.64758  -0.62989  -0.62121  -0.56157  -0.55300
 Alpha  occ. eigenvalues --   -0.54148  -0.53739  -0.53015  -0.52569  -0.49405
 Alpha  occ. eigenvalues --   -0.49364  -0.48817  -0.48800  -0.45315  -0.44827
 Alpha  occ. eigenvalues --   -0.38274  -0.37487  -0.37105  -0.36280
 Alpha virt. eigenvalues --    0.04313   0.05071   0.10197   0.11372   0.15698
 Alpha virt. eigenvalues --    0.16569   0.20408   0.21777   0.26287   0.27352
 Alpha virt. eigenvalues --    0.27745   0.28417   0.30218   0.31297   0.31888

 Mulliken charges:
               1
     1  C   -0.173699
     2  C   -0.221068
     3  C   -0.175066
     4  C    0.160072
     5  C   -0.170978
     6  C   -0.216966
     7  H    0.222287
     8  H    0.229153
     9  H    0.269867
    10  H    0.275981
    11  H    0.223920
    12  N    0.488531
    13  O   -0.459073
    14  O   -0.463341
    15  C   -0.178348
    16  C   -0.232573
    17  C   -0.168278
    18  C    0.162600
    19  C   -0.168696
    20  C   -0.221447
    21  H    0.229634
    22  H    0.224660
    23  H    0.276786
    24  H    0.282532
    25  H    0.230543
    26  N    0.488182
    27  O   -0.455209
    28  O   -0.460005
 Sum of Mulliken charges =  -0.00000

 Dipole moment (field-independent basis, Debye):
    X=              2.3431    Y=              5.6016    Z=              4.1881  Tot=              7.3762
 Quadrupole moment (field-independent basis, Debye-Ang):
   XX=           -122.4808   YY=           -101.0327   ZZ=           -104.8598
   XY=             -8.3099   XZ=             18.0054   YZ=             -4.6520

 Normal termination of Gaussian 16 at Fri May  7 09:29:47 2021.
