 Gaussian 16, Revision A.03,
 Gaussian 16:  EM64L-G16RevA.03 25-Dec-2016

 -------------
 #p 6-31g* mp2
 -------------

 ------------------------------------------------------
 Input file generated by CHIRIPA (05-May-2021 14:57:27)
 ------------------------------------------------------
 Symbolic Z-matrix:
 Charge =  0 Multiplicity = 1

                         Standard orientation:
 ---------------------------------------------------------------------
 Center     Atomic      Atomic             Coordinates (Angstroms)
 Number     Number       Type             X           Y           Z
 ---------------------------------------------------------------------
      1          6           0       -3.502161    2.611239    0.610759
      2          6           0       -4.686084    1.986741    0.204744
      3          6           0       -4.698958    0.624176   -0.107981
      4          6           0       -3.504432   -0.086766   -0.003289
      5          6           0       -2.308808    0.506930    0.398331
      6          6           0       -2.319386    1.870646    0.706088
      7          1           0       -3.501269    3.670160    0.851762
      8          1           0       -5.606131    2.559405    0.129812
      9          1           0       -5.601348    0.115556   -0.424866
     10          1           0       -1.407348   -0.090174    0.463561
     11          1           0       -1.398451    2.353003    1.021136
     12          7           0       -3.505647   -1.529862   -0.331727
     13          8           0       -2.440022   -2.134044   -0.231500
     14          8           0       -4.572200   -2.029453   -0.683166
     15          6           0        2.140625   -2.224650    0.403889
     16          6           0        3.448044   -2.125828    0.891137
     17          6           0        4.212805   -0.981611    0.645256
     18          6           0        3.636060    0.049392   -0.094804
     19          6           0        2.336189   -0.019232   -0.593718
     20          6           0        1.589841   -1.172892   -0.335679
     21          1           0        1.553692   -3.117173    0.599617
     22          1           0        3.878378   -2.941075    1.465793
     23          1           0        5.227384   -0.878780    1.010594
     24          1           0        1.934483    0.809907   -1.163436
     25          1           0        0.574736   -1.246879   -0.715327
     26          7           0        4.435931    1.265721   -0.361542
     27          8           0        3.904793    2.160138   -1.016177
     28          8           0        5.578864    1.301630    0.089072
 ---------------------------------------------------------------------

 SCF Done:  E(RHF) =  -868.339702138     A.U. after   16 cycles
 E2 =    -0.2599446680D+01 EUMP2 =    -0.87093914881798D+03

 The electronic state is 1-A.
 Alpha  occ. eigenvalues --  -20.61646 -20.61581 -20.60862 -20.60849 -15.86648
 Alpha  occ. eigenvalues --  -15.85909 -11.31802 -11.31189 -11.28373 -11.28300
 Alpha  occ. eigenvalues --  -11.27983 -11.27775 -11.27749 -11.27353 -11.27282
 Alpha  occ. eigenvalues --  -11.27266 -11.26688 -11.26627  -1.60672  -1.59937
 Alpha  occ. eigenvalues --   -1.40240  -1.39493  -1.19939  -1.19342  -1.09361
 Alpha  occ. eigenvalues --   -1.08718  -1.05312  -1.04735  -0.96240  -0.95576
 Alpha  occ. eigenvalues --   -0.86720  -0.86104  -0.83085  -0.82421  -0.78185
 Alpha  occ. eigenvalues --   -0.77494  -0.72880  -0.72124  -0.71977  -0.71263
 Alpha  occ. eigenvalues --   -0.71041  -0.70376  -0.65593  -0.65333  -0.64972
 Alpha  occ. eigenvalues --   -0.64667  -0.62706  -0.62026  -0.55791  -0.55127
 Alpha  occ. eigenvalues --   -0.53645  -0.53435  -0.53052  -0.52750  -0.49646
 Alpha  occ. eigenvalues --   -0.49592  -0.48891  -0.48869  -0.45685  -0.44919
 Alpha  occ. eigenvalues --   -0.37884  -0.37271  -0.36907  -0.36362
 Alpha virt. eigenvalues --    0.04328   0.05021   0.10722   0.11203   0.15901
 Alpha virt. eigenvalues --    0.16446   0.20228   0.22023   0.25823   0.27300
 Alpha virt. eigenvalues --    0.28459   0.29001   0.30111   0.31182   0.32166

 Mulliken charges:
               1
     1  C   -0.169724
     2  C   -0.218200
     3  C   -0.170159
     4  C    0.158320
     5  C   -0.176109
     6  C   -0.220173
     7  H    0.229348
     8  H    0.225971
     9  H    0.276740
    10  H    0.272600
    11  H    0.228343
    12  N    0.490221
    13  O   -0.472586
    14  O   -0.454836
    15  C   -0.171773
    16  C   -0.219143
    17  C   -0.170911
    18  C    0.158439
    19  C   -0.175589
    20  C   -0.232469
    21  H    0.235503
    22  H    0.224402
    23  H    0.275342
    24  H    0.272366
    25  H    0.238962
    26  N    0.488125
    27  O   -0.462921
    28  O   -0.460087
 Sum of Mulliken charges =  -0.00000

 Dipole moment (field-independent basis, Debye):
    X=             -3.0563    Y=              0.7785    Z=              2.1448  Tot=              3.8141
 Quadrupole moment (field-independent basis, Debye-Ang):
   XX=           -117.0127   YY=           -105.7897   ZZ=           -104.9680
   XY=            -36.5798   XZ=              3.1129   YZ=             -0.7584

 Normal termination of Gaussian 16 at Wed May  5 18:04:26 2021.
