 Gaussian 16, Revision A.03,
 Gaussian 16:  EM64L-G16RevA.03 25-Dec-2016

 -------------
 #p 6-31g* mp2
 -------------

 ------------------------------------------------------
 Input file generated by CHIRIPA (05-May-2021 14:55:25)
 ------------------------------------------------------
 Symbolic Z-matrix:
 Charge =  0 Multiplicity = 1

                         Standard orientation:
 ---------------------------------------------------------------------
 Center     Atomic      Atomic             Coordinates (Angstroms)
 Number     Number       Type             X           Y           Z
 ---------------------------------------------------------------------
      1          6           0       -1.409072   -2.884401    0.688393
      2          6           0       -1.415090   -1.860227    1.641048
      3          6           0       -1.772257   -0.557479    1.280731
      4          6           0       -2.119403   -0.313260   -0.047100
      5          6           0       -2.123065   -1.312332   -1.019279
      6          6           0       -1.762456   -2.607673   -0.636394
      7          1           0       -1.130279   -3.893530    0.977062
      8          1           0       -1.141105   -2.072225    2.670628
      9          1           0       -1.785437    0.254231    1.997928
     10          1           0       -2.401000   -1.070311   -2.037904
     11          1           0       -1.758675   -3.401087   -1.378368
     12          7           0       -2.499342    1.061980   -0.440498
     13          8           0       -2.801115    1.251226   -1.616829
     14          8           0       -2.488171    1.924607    0.434938
     15          6           0        2.519875    1.396905    0.246621
     16          6           0        1.103391    1.919208    0.004224
     17          6           0        0.893191    3.332426    0.548673
     18          1           0        2.729460    1.410884    1.324964
     19          1           0        3.240756    2.081910   -0.220812
     20          1           0        0.385327    1.232683    0.470790
     21          1           0        0.897084    1.903804   -1.073652
     22          1           0        1.586799    4.034796    0.075191
     23          1           0        1.072134    3.359862    1.628408
     24          1           0       -0.126077    3.686084    0.364612
     25          6           0        2.745495   -0.014720   -0.292026
     26          6           0        4.161979   -0.537023   -0.049629
     27          6           0        4.372178   -1.950241   -0.594077
     28          1           0        2.024614   -0.699724    0.175407
     29          1           0        2.535909   -0.028698   -1.370368
     30          1           0        4.368286   -0.521618    1.028248
     31          1           0        4.880043    0.149503   -0.516195
     32          1           0        4.193236   -1.977677   -1.673812
     33          1           0        3.678570   -2.652611   -0.120595
     34          1           0        5.391446   -2.303899   -0.410016
 ---------------------------------------------------------------------

 SCF Done:  E(RHF) =  -669.535500239     A.U. after   15 cycles
 E2 =    -0.2094500184D+01 EUMP2 =    -0.67163000042226D+03

 The electronic state is 1-A.
 Alpha  occ. eigenvalues --  -20.60938 -20.60927 -15.85942 -11.31270 -11.27845
 Alpha  occ. eigenvalues --  -11.27834 -11.27593 -11.26877 -11.26849 -11.21618
 Alpha  occ. eigenvalues --  -11.21273 -11.21220 -11.21097 -11.21022 -11.20136
 Alpha  occ. eigenvalues --   -1.59980  -1.39540  -1.19459  -1.08858  -1.08209
 Alpha  occ. eigenvalues --   -1.04859  -1.03233  -0.95716  -0.95643  -0.86686
 Alpha  occ. eigenvalues --   -0.86258  -0.82534  -0.79351  -0.78038  -0.77577
 Alpha  occ. eigenvalues --   -0.72183  -0.71291  -0.70568  -0.65122  -0.64894
 Alpha  occ. eigenvalues --   -0.64819  -0.62209  -0.60652  -0.59061  -0.57234
 Alpha  occ. eigenvalues --   -0.55361  -0.54981  -0.53228  -0.52947  -0.52301
 Alpha  occ. eigenvalues --   -0.52087  -0.49649  -0.48953  -0.48931  -0.47633
 Alpha  occ. eigenvalues --   -0.46433  -0.45582  -0.45523  -0.44774  -0.43459
 Alpha  occ. eigenvalues --   -0.37382  -0.36427
 Alpha virt. eigenvalues --    0.04914   0.11099   0.16404   0.21278   0.23025
 Alpha virt. eigenvalues --    0.24634   0.26733   0.27274   0.27550   0.28034
 Alpha virt. eigenvalues --    0.28570   0.30823   0.31543   0.31881   0.32545

 Mulliken charges:
               1
     1  C   -0.170947
     2  C   -0.218590
     3  C   -0.174587
     4  C    0.161629
     5  C   -0.170456
     6  C   -0.217902
     7  H    0.226151
     8  H    0.223973
     9  H    0.275995
    10  H    0.275837
    11  H    0.224041
    12  N    0.491257
    13  O   -0.458769
    14  O   -0.459257
    15  C   -0.296918
    16  C   -0.306177
    17  C   -0.479580
    18  H    0.146412
    19  H    0.149817
    20  H    0.149108
    21  H    0.153541
    22  H    0.150462
    23  H    0.148480
    24  H    0.182868
    25  C   -0.298823
    26  C   -0.299113
    27  C   -0.474797
    28  H    0.147169
    29  H    0.149464
    30  H    0.150471
    31  H    0.153111
    32  H    0.155164
    33  H    0.150983
    34  H    0.159981
 Sum of Mulliken charges =  -0.00000

 Dipole moment (field-independent basis, Debye):
    X=              1.1031    Y=             -4.7938    Z=              1.3264  Tot=              5.0947
 Quadrupole moment (field-independent basis, Debye-Ang):
   XX=           -101.5212   YY=            -92.4078   ZZ=            -89.8463
   XY=             10.4595   XZ=             -2.4659   YZ=              0.6460

 Normal termination of Gaussian 16 at Thu May  6 17:45:14 2021.
