 Gaussian 16, Revision A.03,
 Gaussian 16:  EM64L-G16RevA.03 25-Dec-2016

 -------------
 #p 6-31g* mp2
 -------------

 ------------------------------------------------------
 Input file generated by CHIRIPA (05-May-2021 14:53:17)
 ------------------------------------------------------
 Symbolic Z-matrix:
 Charge =  0 Multiplicity = 1

                         Standard orientation:
 ---------------------------------------------------------------------
 Center     Atomic      Atomic             Coordinates (Angstroms)
 Number     Number       Type             X           Y           Z
 ---------------------------------------------------------------------
      1          6           0        4.128200   -0.512058   -0.385703
      2          6           0        4.272053   -1.869976    0.302302
      3          6           0        4.992459   -2.900240   -0.567965
      4          1           0        3.582055   -0.642597   -1.329965
      5          1           0        5.125883   -0.135780   -0.651103
      6          1           0        3.274482   -2.242943    0.567566
      7          1           0        4.817752   -1.736160    1.245129
      8          1           0        5.999340   -2.553393   -0.821911
      9          1           0        4.447302   -3.063056   -1.503323
     10          1           0        5.084365   -3.863605   -0.056748
     11          6           0        3.410038    0.528472    0.471774
     12          6           0        3.266185    1.886390   -0.216231
     13          6           0        2.545778    2.916654    0.654036
     14          1           0        2.412354    0.152193    0.737175
     15          1           0        3.956182    0.659011    1.416036
     16          1           0        2.720486    1.752573   -1.159057
     17          1           0        4.263755    2.259357   -0.481495
     18          1           0        3.090935    3.079470    1.589395
     19          1           0        1.538897    2.569807    0.907983
     20          1           0        2.453873    3.880018    0.142819
     21          6           0       -5.164038   -1.185457    0.189927
     22          6           0       -4.248388   -1.210681    1.247030
     23          6           0       -3.015671   -0.560882    1.134254
     24          6           0       -2.730059    0.107574   -0.055233
     25          6           0       -3.621413    0.150777   -1.126173
     26          6           0       -4.848186   -0.506006   -0.991218
     27          1           0       -6.119334   -1.692949    0.286148
     28          1           0       -4.490993   -1.737566    2.165496
     29          1           0       -2.288334   -0.564465    1.936992
     30          1           0       -3.351232    0.684284   -2.029384
     31          1           0       -5.557357   -0.484745   -1.813817
     32          7           0       -1.428183    0.799185   -0.186364
     33          8           0       -1.200486    1.381103   -1.244741
     34          8           0       -0.660123    0.746254    0.771716
 ---------------------------------------------------------------------

 SCF Done:  E(RHF) =  -669.536957797     A.U. after   15 cycles
 E2 =    -0.2091710788D+01 EUMP2 =    -0.67162866858502D+03

 The electronic state is 1-A.
 Alpha  occ. eigenvalues --  -20.61184 -20.61166 -15.86174 -11.31421 -11.27970
 Alpha  occ. eigenvalues --  -11.27967 -11.27694 -11.26959 -11.26949 -11.20739
 Alpha  occ. eigenvalues --  -11.20401 -11.20246 -11.19931 -11.19810 -11.19108
 Alpha  occ. eigenvalues --   -1.60213  -1.39772  -1.19578  -1.08998  -1.07136
 Alpha  occ. eigenvalues --   -1.04961  -1.02213  -0.95851  -0.94670  -0.86366
 Alpha  occ. eigenvalues --   -0.85695  -0.82688  -0.78362  -0.77751  -0.76871
 Alpha  occ. eigenvalues --   -0.72391  -0.71514  -0.70686  -0.65235  -0.64965
 Alpha  occ. eigenvalues --   -0.63761  -0.62308  -0.59596  -0.58129  -0.56272
 Alpha  occ. eigenvalues --   -0.55470  -0.53946  -0.53297  -0.53051  -0.51415
 Alpha  occ. eigenvalues --   -0.51101  -0.49231  -0.49146  -0.48541  -0.46639
 Alpha  occ. eigenvalues --   -0.45393  -0.45188  -0.44432  -0.44197  -0.42475
 Alpha  occ. eigenvalues --   -0.37552  -0.36558
 Alpha virt. eigenvalues --    0.04754   0.11099   0.16261   0.21232   0.24075
 Alpha virt. eigenvalues --    0.25721   0.27169   0.27831   0.28221   0.28769
 Alpha virt. eigenvalues --    0.29346   0.30826   0.32313   0.32736   0.32808

 Mulliken charges:
               1
     1  C   -0.297518
     2  C   -0.298388
     3  C   -0.474819
     4  H    0.149228
     5  H    0.145556
     6  H    0.150709
     7  H    0.149769
     8  H    0.153957
     9  H    0.153826
    10  H    0.156526
    11  C   -0.303950
    12  C   -0.295782
    13  C   -0.485996
    14  H    0.166030
    15  H    0.142746
    16  H    0.157433
    17  H    0.142489
    18  H    0.144151
    19  H    0.183118
    20  H    0.152768
    21  C   -0.170273
    22  C   -0.218567
    23  C   -0.170623
    24  C    0.157555
    25  C   -0.170416
    26  C   -0.218624
    27  H    0.226500
    28  H    0.224341
    29  H    0.276128
    30  H    0.276133
    31  H    0.224284
    32  N    0.489761
    33  O   -0.457532
    34  O   -0.460524
 Sum of Mulliken charges =  -0.00000

 Dipole moment (field-independent basis, Debye):
    X=             -5.1293    Y=             -2.4541    Z=              0.4381  Tot=              5.7031
 Quadrupole moment (field-independent basis, Debye-Ang):
   XX=            -70.9941   YY=            -97.0807   ZZ=            -90.8065
   XY=              6.4895   XZ=              0.8396   YZ=             -1.9096

 Normal termination of Gaussian 16 at Thu May  6 10:41:58 2021.
