 Gaussian 16, Revision A.03,
 Gaussian 16:  EM64L-G16RevA.03 25-Dec-2016

 -------------
 #p 6-31g* mp2
 -------------

 ------------------------------------------------------
 Input file generated by CHIRIPA (05-May-2021 14:53:12)
 ------------------------------------------------------
 Symbolic Z-matrix:
 Charge =  0 Multiplicity = 1

                         Standard orientation:
 ---------------------------------------------------------------------
 Center     Atomic      Atomic             Coordinates (Angstroms)
 Number     Number       Type             X           Y           Z
 ---------------------------------------------------------------------
      1          6           0       -3.270100    0.936755   -0.252081
      2          6           0       -3.952975    2.160880    0.358807
      3          6           0       -3.203031    3.461676    0.070177
      4          1           0       -2.245013    0.864630    0.136429
      5          1           0       -3.183461    1.077851   -1.338350
      6          1           0       -4.039546    2.016909    1.443424
      7          1           0       -4.976619    2.229990   -0.031056
      8          1           0       -3.128819    3.632318   -1.008699
      9          1           0       -2.186421    3.418026    0.474158
     10          1           0       -3.708547    4.323945    0.516055
     11          6           0       -4.007970   -0.371268    0.027831
     12          6           0       -3.325095   -1.595394   -0.583057
     13          6           0       -4.075038   -2.896190   -0.294428
     14          1           0       -4.094608   -0.512364    1.114100
     15          1           0       -5.033057   -0.299144   -0.360679
     16          1           0       -2.301451   -1.664503   -0.193194
     17          1           0       -3.238524   -1.451423   -1.667674
     18          1           0       -5.091648   -2.852540   -0.698408
     19          1           0       -4.149251   -3.066831    0.784449
     20          1           0       -3.569523   -3.758458   -0.740305
     21          6           0        5.046661    0.748361   -0.667605
     22          6           0        4.068348    0.415855   -1.610401
     23          6           0        2.843694   -0.121825   -1.203373
     24          6           0        2.629954   -0.314597    0.160608
     25          6           0        3.584827    0.006631    1.124101
     26          6           0        4.802209    0.543050    0.694236
     27          1           0        5.995176    1.165554   -0.992665
     28          1           0        4.255434    0.574213   -2.668686
     29          1           0        2.068807   -0.388114   -1.911934
     30          1           0        3.369275   -0.162712    2.172089
     31          1           0        5.560144    0.800349    1.428659
     32          7           0        1.337317   -0.883147    0.603599
     33          8           0        1.173541   -1.043283    1.811147
     34          8           0        0.512400   -1.157875   -0.265121
 ---------------------------------------------------------------------

 SCF Done:  E(RHF) =  -669.536549636     A.U. after   15 cycles
 E2 =    -0.2091264165D+01 EUMP2 =    -0.67162781380065D+03

 The electronic state is 1-A.
 Alpha  occ. eigenvalues --  -20.61080 -20.61046 -15.86078 -11.31353 -11.27910
 Alpha  occ. eigenvalues --  -11.27903 -11.27639 -11.26905 -11.26895 -11.20764
 Alpha  occ. eigenvalues --  -11.20454 -11.20253 -11.20133 -11.19932 -11.19801
 Alpha  occ. eigenvalues --   -1.60117  -1.39672  -1.19516  -1.08930  -1.07264
 Alpha  occ. eigenvalues --   -1.04904  -1.02411  -0.95779  -0.94919  -0.86306
 Alpha  occ. eigenvalues --   -0.85944  -0.82614  -0.78486  -0.77673  -0.77014
 Alpha  occ. eigenvalues --   -0.72295  -0.71423  -0.70624  -0.65172  -0.64907
 Alpha  occ. eigenvalues --   -0.63889  -0.62250  -0.59804  -0.58307  -0.56503
 Alpha  occ. eigenvalues --   -0.55411  -0.54221  -0.53239  -0.52995  -0.51648
 Alpha  occ. eigenvalues --   -0.51341  -0.49144  -0.49055  -0.48849  -0.46794
 Alpha  occ. eigenvalues --   -0.45490  -0.45133  -0.44585  -0.44319  -0.42659
 Alpha  occ. eigenvalues --   -0.37492  -0.36502
 Alpha virt. eigenvalues --    0.04847   0.11154   0.16352   0.21289   0.23975
 Alpha virt. eigenvalues --    0.25380   0.27216   0.27775   0.28130   0.28737
 Alpha virt. eigenvalues --    0.29046   0.30891   0.32359   0.32449   0.32845

 Mulliken charges:
               1
     1  C   -0.299011
     2  C   -0.298874
     3  C   -0.474674
     4  H    0.158846
     5  H    0.144860
     6  H    0.151716
     7  H    0.149053
     8  H    0.152539
     9  H    0.153917
    10  H    0.157183
    11  C   -0.296946
    12  C   -0.311875
    13  C   -0.474630
    14  H    0.148846
    15  H    0.143048
    16  H    0.185311
    17  H    0.144442
    18  H    0.148349
    19  H    0.154014
    20  H    0.158079
    21  C   -0.170387
    22  C   -0.218557
    23  C   -0.170647
    24  C    0.157412
    25  C   -0.170465
    26  C   -0.218624
    27  H    0.226251
    28  H    0.224130
    29  H    0.276325
    30  H    0.275893
    31  H    0.224014
    32  N    0.489941
    33  O   -0.459081
    34  O   -0.460401
 Sum of Mulliken charges =  -0.00000

 Dipole moment (field-independent basis, Debye):
    X=              4.9742    Y=              1.9229    Z=             -1.4920  Tot=              5.5377
 Quadrupole moment (field-independent basis, Debye-Ang):
   XX=            -72.2174   YY=            -98.5702   ZZ=            -90.1180
   XY=              3.6335   XZ=             -1.5932   YZ=              1.0032

 Normal termination of Gaussian 16 at Wed May  5 20:07:40 2021.
