 Gaussian 16, Revision A.03,
 Gaussian 16:  EM64L-G16RevA.03 25-Dec-2016

 -------------
 #p 6-31g* mp2
 -------------

 ------------------------------------------------------
 Input file generated by CHIRIPA (05-May-2021 14:51:14)
 ------------------------------------------------------
 Symbolic Z-matrix:
 Charge =  0 Multiplicity = 1

                         Standard orientation:
 ---------------------------------------------------------------------
 Center     Atomic      Atomic             Coordinates (Angstroms)
 Number     Number       Type             X           Y           Z
 ---------------------------------------------------------------------
      1          6           0       -1.792189   -1.114975    0.029081
      2          6           0       -1.564588   -2.472633    0.694625
      3          6           0       -0.090929   -2.879497    0.718830
      4          1           0       -1.402272   -1.147040   -0.997506
      5          1           0       -1.208636   -0.351080    0.561364
      6          1           0       -2.149482   -3.233504    0.162094
      7          1           0       -1.955265   -2.437392    1.719684
      8          1           0        0.503406   -2.141872    1.267715
      9          1           0        0.308086   -2.942508   -0.298724
     10          1           0        0.048939   -3.853025    1.198977
     11          6           0       -3.260478   -0.694450   -0.002775
     12          6           0       -3.488079    0.663208   -0.668319
     13          6           0       -4.961738    1.070073   -0.692524
     14          1           0       -3.844031   -1.458345   -0.535058
     15          1           0       -3.650396   -0.662385    1.023812
     16          1           0       -3.097402    0.627967   -1.693378
     17          1           0       -2.903185    1.424080   -0.135788
     18          1           0       -5.360754    1.133083    0.325030
     19          1           0       -5.556074    0.332447   -1.241409
     20          1           0       -5.101606    2.043600   -1.172671
     21          6           0        2.677024    0.184763   -0.219059
     22          6           0        4.169880   -0.096207   -0.393483
     23          6           0        4.455356   -1.540692   -0.805502
     24          1           0        2.267000   -0.500974    0.534990
     25          1           0        2.156522   -0.038627   -1.160637
     26          1           0        4.687608    0.128965    0.547723
     27          1           0        4.576437    0.590408   -1.147066
     28          1           0        3.964829   -1.774298   -1.755981
     29          1           0        4.076632   -2.238362   -0.051562
     30          1           0        5.528518   -1.719578   -0.924602
     31          6           0        2.375643    1.624661    0.192753
     32          6           0        0.882788    1.905631    0.367177
     33          6           0        0.597310    3.350117    0.779196
     34          1           0        2.896144    1.848052    1.134331
     35          1           0        2.785667    2.310399   -0.561296
     36          1           0        0.476230    1.219017    1.120760
     37          1           0        0.365059    1.680459   -0.574029
     38          1           0        0.976036    4.047787    0.025256
     39          1           0        1.087839    3.583722    1.729675
     40          1           0       -0.475851    3.529004    0.898295
 ---------------------------------------------------------------------

 SCF Done:  E(RHF) =  -470.732520467     A.U. after   11 cycles
 E2 =    -0.1584641248D+01 EUMP2 =    -0.47231716171479D+03

 The electronic state is 1-A.
 Alpha  occ. eigenvalues --  -11.21594 -11.21585 -11.21568 -11.21554 -11.21379
 Alpha  occ. eigenvalues --  -11.21340 -11.21303 -11.21236 -11.21097 -11.21060
 Alpha  occ. eigenvalues --  -11.21035 -11.21031  -1.08444  -1.08353  -1.03521
 Alpha  occ. eigenvalues --   -1.03499  -0.95983  -0.95928  -0.87018  -0.86930
 Alpha  occ. eigenvalues --   -0.79617  -0.79571  -0.78449  -0.77950  -0.65143
 Alpha  occ. eigenvalues --   -0.64937  -0.60937  -0.60886  -0.59353  -0.59311
 Alpha  occ. eigenvalues --   -0.57675  -0.57466  -0.55334  -0.55162  -0.52681
 Alpha  occ. eigenvalues --   -0.52634  -0.52534  -0.52238  -0.50009  -0.49798
 Alpha  occ. eigenvalues --   -0.47985  -0.47920  -0.46723  -0.46588  -0.46234
 Alpha  occ. eigenvalues --   -0.45781  -0.45554  -0.44955  -0.43766  -0.43733
 Alpha virt. eigenvalues --    0.20931   0.22326   0.23633   0.24048   0.25164
 Alpha virt. eigenvalues --    0.25864   0.26890   0.27819   0.28200   0.29914
 Alpha virt. eigenvalues --    0.30544   0.31360   0.31634   0.31900   0.32321

 Mulliken charges:
               1
     1  C   -0.305793
     2  C   -0.299474
     3  C   -0.478336
     4  H    0.148526
     5  H    0.159873
     6  H    0.151566
     7  H    0.151129
     8  H    0.156804
     9  H    0.156431
    10  H    0.159714
    11  C   -0.297700
    12  C   -0.300967
    13  C   -0.475664
    14  H    0.149160
    15  H    0.149062
    16  H    0.151505
    17  H    0.153110
    18  H    0.155114
    19  H    0.155236
    20  H    0.160099
    21  C   -0.303075
    22  C   -0.299375
    23  C   -0.475859
    24  H    0.155426
    25  H    0.149520
    26  H    0.151563
    27  H    0.151666
    28  H    0.154791
    29  H    0.156172
    30  H    0.159986
    31  C   -0.297913
    32  C   -0.303924
    33  C   -0.476050
    34  H    0.148971
    35  H    0.149545
    36  H    0.153242
    37  H    0.155274
    38  H    0.155570
    39  H    0.155019
    40  H    0.160055
 Sum of Mulliken charges =  -0.00000

 Dipole moment (field-independent basis, Debye):
    X=              0.0210    Y=              0.0092    Z=             -0.0045  Tot=              0.0234
 Quadrupole moment (field-independent basis, Debye-Ang):
   XX=            -86.1325   YY=            -85.8088   ZZ=            -83.0815
   XY=              0.7895   XZ=              0.1846   YZ=             -0.1058

 Normal termination of Gaussian 16 at Wed May  5 18:24:46 2021.
