 Gaussian 16, Revision A.03,
 Gaussian 16:  EM64L-G16RevA.03 25-Dec-2016

 -------------
 #p 6-31g* mp2
 -------------

 ------------------------------------------------------
 Input file generated by CHIRIPA (05-May-2021 14:51:08)
 ------------------------------------------------------
 Symbolic Z-matrix:
 Charge =  0 Multiplicity = 1

                         Standard orientation:
 ---------------------------------------------------------------------
 Center     Atomic      Atomic             Coordinates (Angstroms)
 Number     Number       Type             X           Y           Z
 ---------------------------------------------------------------------
      1          6           0        3.710073   -0.179568   -0.020276
      2          6           0        4.167969   -1.293796   -0.961984
      3          6           0        5.062905   -2.322268   -0.269793
      4          1           0        4.592368    0.323132    0.399001
      5          1           0        3.171165   -0.624183    0.827833
      6          1           0        4.704654   -0.847104   -1.808774
      7          1           0        3.284481   -1.793777   -1.379216
      8          1           0        4.533276   -2.794864    0.563723
      9          1           0        5.961518   -1.842812    0.131724
     10          1           0        5.378664   -3.109708   -0.961237
     11          6           0        2.814660    0.856331   -0.697681
     12          6           0        2.356764    1.970558    0.244027
     13          6           0        1.461828    2.999031   -0.448164
     14          1           0        3.353568    1.300946   -1.545791
     15          1           0        1.932365    0.353630   -1.116958
     16          1           0        3.240252    2.470540    0.661259
     17          1           0        1.820079    1.523867    1.090816
     18          1           0        0.563215    2.519575   -0.849682
     19          1           0        1.991457    3.471626   -1.281680
     20          1           0        1.146069    3.786471    0.243279
     21          6           0       -4.011622   -0.381055    0.216753
     22          6           0       -4.348655   -0.347492   -1.274309
     23          6           0       -5.851413   -0.433701   -1.542783
     24          1           0       -4.411563   -1.305273    0.655859
     25          1           0       -4.523272    0.451010    0.720021
     26          1           0       -3.835412   -1.178553   -1.774845
     27          1           0       -3.947698    0.576663   -1.709955
     28          1           0       -6.375909    0.402660   -1.069491
     29          1           0       -6.262985   -1.362528   -1.134750
     30          1           0       -6.069813   -0.408036   -2.614932
     31          6           0       -2.513112   -0.295708    0.501203
     32          6           0       -2.176078   -0.329271    1.992266
     33          6           0       -0.673320   -0.243061    2.260741
     34          1           0       -2.001461   -1.127772   -0.002064
     35          1           0       -2.113170    0.628511    0.062098
     36          1           0       -2.577035   -1.253426    2.427913
     37          1           0       -2.689321    0.501790    2.492802
     38          1           0       -0.261748    0.685766    1.852708
     39          1           0       -0.148824   -1.079423    1.787449
     40          1           0       -0.454921   -0.268727    3.332890
 ---------------------------------------------------------------------

 SCF Done:  E(RHF) =  -470.733344551     A.U. after   11 cycles
 E2 =    -0.1582948874D+01 EUMP2 =    -0.47231629342577D+03

 The electronic state is 1-A.
 Alpha  occ. eigenvalues --  -11.21662 -11.21631 -11.21569 -11.21527 -11.21458
 Alpha  occ. eigenvalues --  -11.21394 -11.21352 -11.21293 -11.21140 -11.21092
 Alpha  occ. eigenvalues --  -11.21075 -11.21047  -1.08480  -1.08384  -1.03585
 Alpha  occ. eigenvalues --   -1.03493  -0.96033  -0.95950  -0.87056  -0.86962
 Alpha  occ. eigenvalues --   -0.79670  -0.79536  -0.78297  -0.78190  -0.65137
 Alpha  occ. eigenvalues --   -0.65000  -0.61094  -0.60805  -0.59392  -0.59321
 Alpha  occ. eigenvalues --   -0.57647  -0.57550  -0.55376  -0.55185  -0.52725
 Alpha  occ. eigenvalues --   -0.52651  -0.52469  -0.52372  -0.50052  -0.49827
 Alpha  occ. eigenvalues --   -0.48062  -0.47808  -0.46764  -0.46469  -0.45907
 Alpha  occ. eigenvalues --   -0.45761  -0.45698  -0.45544  -0.43833  -0.43747
 Alpha virt. eigenvalues --    0.20621   0.23001   0.23616   0.24914   0.25719
 Alpha virt. eigenvalues --    0.26179   0.26882   0.27737   0.28363   0.29269
 Alpha virt. eigenvalues --    0.30369   0.31249   0.31793   0.31866   0.31922

 Mulliken charges:
               1
     1  C   -0.299153
     2  C   -0.299599
     3  C   -0.475666
     4  H    0.149458
     5  H    0.150811
     6  H    0.151815
     7  H    0.151690
     8  H    0.155117
     9  H    0.155173
    10  H    0.160068
    11  C   -0.297841
    12  C   -0.306223
    13  C   -0.476942
    14  H    0.149150
    15  H    0.150042
    16  H    0.151847
    17  H    0.158861
    18  H    0.155179
    19  H    0.155560
    20  H    0.159773
    21  C   -0.298315
    22  C   -0.299751
    23  C   -0.475744
    24  H    0.149820
    25  H    0.149793
    26  H    0.151885
    27  H    0.152087
    28  H    0.155299
    29  H    0.155206
    30  H    0.160399
    31  C   -0.299125
    32  C   -0.299444
    33  C   -0.482078
    34  H    0.149247
    35  H    0.150025
    36  H    0.152200
    37  H    0.152365
    38  H    0.161402
    39  H    0.154784
    40  H    0.160824
 Sum of Mulliken charges =  -0.00000

 Dipole moment (field-independent basis, Debye):
    X=             -0.0267    Y=             -0.0034    Z=              0.0198  Tot=              0.0334
 Quadrupole moment (field-independent basis, Debye-Ang):
   XX=            -85.6332   YY=            -84.1690   ZZ=            -84.9642
   XY=              0.8754   XZ=             -0.8049   YZ=              0.1909

 Normal termination of Gaussian 16 at Wed May  5 18:07:55 2021.
