 Gaussian 16, Revision A.03,
 Gaussian 16:  EM64L-G16RevA.03 25-Dec-2016

 -------------
 #p 6-31g* mp2
 -------------

 ------------------------------------------------------
 Input file generated by CHIRIPA (05-May-2021 14:51:14)
 ------------------------------------------------------
 Symbolic Z-matrix:
 Charge =  0 Multiplicity = 1

                         Standard orientation:
 ---------------------------------------------------------------------
 Center     Atomic      Atomic             Coordinates (Angstroms)
 Number     Number       Type             X           Y           Z
 ---------------------------------------------------------------------
      1          6           0       -1.707751    1.017885    0.011462
      2          6           0       -1.878872    2.498976    0.350687
      3          6           0       -0.596722    3.133905    0.889899
      4          1           0       -1.379387    0.477994    0.910149
      5          1           0       -0.903850    0.909148   -0.729696
      6          1           0       -2.683146    2.605014    1.089953
      7          1           0       -2.207052    3.035371   -0.548865
      8          1           0        0.210067    3.057544    0.153787
      9          1           0       -0.268733    2.624741    1.801917
     10          1           0       -0.741567    4.192769    1.125880
     11          6           0       -2.980912    0.369095   -0.528779
     12          6           0       -2.809791   -1.111996   -0.868004
     13          6           0       -4.091941   -1.746925   -1.407217
     14          1           0       -3.784813    0.477832    0.212379
     15          1           0       -3.309276    0.908986   -1.427467
     16          1           0       -2.481611   -1.648391    0.031548
     17          1           0       -2.005517   -1.218034   -1.607271
     18          1           0       -4.419931   -1.237761   -2.319234
     19          1           0       -4.898730   -1.670564   -0.671104
     20          1           0       -3.947096   -2.805789   -1.643198
     21          6           0        2.021679   -0.750631    0.948631
     22          6           0        0.796973   -1.665816    0.971399
     23          6           0        0.162534   -1.769963    2.358638
     24          1           0        2.764697   -1.125075    1.666031
     25          1           0        1.729298    0.250265    1.295206
     26          1           0        1.091281   -2.664322    0.623568
     27          1           0        0.056864   -1.289259    0.253722
     28          1           0       -0.158600   -0.784187    2.710376
     29          1           0        0.881694   -2.167063    3.082324
     30          1           0       -0.711218   -2.429034    2.352043
     31          6           0        2.666984   -0.636348   -0.431314
     32          6           0        3.891690    0.278836   -0.454081
     33          6           0        4.526129    0.382983   -1.841320
     34          1           0        2.959366   -1.637245   -0.777889
     35          1           0        1.923967   -0.261905   -1.148713
     36          1           0        4.631799   -0.097721    0.263596
     37          1           0        3.597382    1.277341   -0.106252
     38          1           0        3.806969    0.780083   -2.565008
     39          1           0        4.847264   -0.602793   -2.193059
     40          1           0        5.399881    1.042053   -1.834725
 ---------------------------------------------------------------------

 SCF Done:  E(RHF) =  -470.731640810     A.U. after   11 cycles
 E2 =    -0.1586135113D+01 EUMP2 =    -0.47231777592260D+03

 The electronic state is 1-A.
 Alpha  occ. eigenvalues --  -11.21673 -11.21648 -11.21565 -11.21461 -11.21400
 Alpha  occ. eigenvalues --  -11.21381 -11.21341 -11.21255 -11.21177 -11.21107
 Alpha  occ. eigenvalues --  -11.21074 -11.21054  -1.08556  -1.08321  -1.03601
 Alpha  occ. eigenvalues --   -1.03479  -0.96065  -0.95937  -0.87071  -0.86959
 Alpha  occ. eigenvalues --   -0.79695  -0.79548  -0.78470  -0.78057  -0.65230
 Alpha  occ. eigenvalues --   -0.64933  -0.61036  -0.60883  -0.59485  -0.59249
 Alpha  occ. eigenvalues --   -0.57667  -0.57546  -0.55462  -0.55133  -0.52752
 Alpha  occ. eigenvalues --   -0.52632  -0.52503  -0.52343  -0.50027  -0.49862
 Alpha  occ. eigenvalues --   -0.48010  -0.47920  -0.46796  -0.46632  -0.46147
 Alpha  occ. eigenvalues --   -0.45793  -0.45588  -0.45062  -0.43844  -0.43717
 Alpha virt. eigenvalues --    0.20022   0.22353   0.23096   0.24033   0.24841
 Alpha virt. eigenvalues --    0.26246   0.26764   0.28499   0.29177   0.29463
 Alpha virt. eigenvalues --    0.30364   0.31069   0.31636   0.32213   0.32507

 Mulliken charges:
               1
     1  C   -0.309432
     2  C   -0.298801
     3  C   -0.477037
     4  H    0.159986
     5  H    0.150062
     6  H    0.152244
     7  H    0.152104
     8  H    0.155098
     9  H    0.155324
    10  H    0.161020
    11  C   -0.296726
    12  C   -0.304859
    13  C   -0.475364
    14  H    0.149689
    15  H    0.149630
    16  H    0.156263
    17  H    0.152182
    18  H    0.155239
    19  H    0.155281
    20  H    0.160591
    21  C   -0.299583
    22  C   -0.310199
    23  C   -0.478850
    24  H    0.149001
    25  H    0.151612
    26  H    0.151079
    27  H    0.166355
    28  H    0.153997
    29  H    0.155996
    30  H    0.159738
    31  C   -0.299183
    32  C   -0.299852
    33  C   -0.475594
    34  H    0.149431
    35  H    0.149370
    36  H    0.152026
    37  H    0.152172
    38  H    0.154626
    39  H    0.155147
    40  H    0.160217
 Sum of Mulliken charges =  -0.00000

 Dipole moment (field-independent basis, Debye):
    X=             -0.0623    Y=              0.0153    Z=             -0.0093  Tot=              0.0648
 Quadrupole moment (field-independent basis, Debye-Ang):
   XX=            -85.4009   YY=            -84.5146   ZZ=            -84.9536
   XY=             -0.9877   XZ=              0.0520   YZ=             -0.4271

 Normal termination of Gaussian 16 at Wed May  5 21:38:01 2021.
