 Gaussian 16, Revision A.03,
 Gaussian 16:  EM64L-G16RevA.03 25-Dec-2016

 -------------
 #p 6-31g* mp2
 -------------

 ------------------------------------------------------
 Input file generated by CHIRIPA (05-May-2021 14:57:26)
 ------------------------------------------------------
 Symbolic Z-matrix:
 Charge =  0 Multiplicity = 1

                         Standard orientation:
 ---------------------------------------------------------------------
 Center     Atomic      Atomic             Coordinates (Angstroms)
 Number     Number       Type             X           Y           Z
 ---------------------------------------------------------------------
      1          6           0        2.019124    1.869653    0.053291
      2          6           0        1.865189    0.647717    0.716388
      3          6           0        2.848703   -0.341207    0.620064
      4          6           0        3.978491   -0.073355   -0.151379
      5          6           0        4.160815    1.134050   -0.823853
      6          6           0        3.164426    2.108499   -0.713361
      7          1           0        1.250106    2.632250    0.133620
      8          1           0        0.976777    0.459462    1.312484
      9          1           0        2.755080   -1.296047    1.122987
     10          1           0        5.057445    1.292588   -1.410656
     11          1           0        3.286652    3.056542   -1.229424
     12          7           0        5.026508   -1.112622   -0.260853
     13          8           0        6.012551   -0.852056   -0.946755
     14          8           0        4.842057   -2.168086    0.341318
     15          6           0       -2.033010    0.574253    1.798099
     16          6           0       -2.635626    1.542320    0.988025
     17          6           0       -3.618981    1.181315    0.062155
     18          6           0       -3.977148   -0.162914   -0.027606
     19          6           0       -3.395215   -1.150680    0.765464
     20          6           0       -2.414056   -0.766793    1.684434
     21          1           0       -1.269969    0.863578    2.514657
     22          1           0       -2.341687    2.584544    1.074127
     23          1           0       -4.101802    1.910239   -0.577355
     24          1           0       -3.709161   -2.181716    0.656744
     25          1           0       -1.947764   -1.520758    2.312251
     26          7           0       -5.017020   -0.557205   -1.004131
     27          8           0       -5.314894   -1.748144   -1.063885
     28          8           0       -5.514508    0.332155   -1.691286
 ---------------------------------------------------------------------

 SCF Done:  E(RHF) =  -868.336512998     A.U. after   16 cycles
 E2 =    -0.2600460356D+01 EUMP2 =    -0.87093697335319D+03

 The electronic state is 1-A.
 Alpha  occ. eigenvalues --  -20.61381 -20.61374 -20.61153 -20.61145 -15.86439
 Alpha  occ. eigenvalues --  -15.86210 -11.32017 -11.31667 -11.28602 -11.28563
 Alpha  occ. eigenvalues --  -11.28488 -11.28278 -11.28222 -11.28060 -11.27745
 Alpha  occ. eigenvalues --  -11.27685 -11.27342 -11.27267  -1.60450  -1.60225
 Alpha  occ. eigenvalues --   -1.39997  -1.39776  -1.20218  -1.19856  -1.09609
 Alpha  occ. eigenvalues --   -1.09242  -1.05638  -1.05279  -0.96400  -0.96059
 Alpha  occ. eigenvalues --   -0.87045  -0.86684  -0.83217  -0.82891  -0.78198
 Alpha  occ. eigenvalues --   -0.77921  -0.72655  -0.72428  -0.71773  -0.71548
 Alpha  occ. eigenvalues --   -0.71408  -0.70989  -0.65880  -0.65675  -0.65516
 Alpha  occ. eigenvalues --   -0.65293  -0.62967  -0.62640  -0.56260  -0.55789
 Alpha  occ. eigenvalues --   -0.54010  -0.53739  -0.53589  -0.53324  -0.49432
 Alpha  occ. eigenvalues --   -0.49395  -0.49193  -0.49175  -0.45355  -0.45161
 Alpha  occ. eigenvalues --   -0.38267  -0.37835  -0.37226  -0.36868
 Alpha virt. eigenvalues --    0.04265   0.04630   0.10363   0.10765   0.15527
 Alpha virt. eigenvalues --    0.16096   0.18856   0.22010   0.25198   0.25906
 Alpha virt. eigenvalues --    0.27881   0.28880   0.29618   0.31209   0.32275

 Mulliken charges:
               1
     1  C   -0.170920
     2  C   -0.217721
     3  C   -0.171639
     4  C    0.159498
     5  C   -0.170242
     6  C   -0.217915
     7  H    0.220845
     8  H    0.217549
     9  H    0.274910
    10  H    0.277398
    11  H    0.224902
    12  N    0.488070
    13  O   -0.458685
    14  O   -0.460136
    15  C   -0.177200
    16  C   -0.219765
    17  C   -0.169704
    18  C    0.160444
    19  C   -0.169031
    20  C   -0.218473
    21  H    0.221136
    22  H    0.221471
    23  H    0.277834
    24  H    0.279422
    25  H    0.225856
    26  N    0.487881
    27  O   -0.457240
    28  O   -0.458547
 Sum of Mulliken charges =  -0.00000

 Dipole moment (field-independent basis, Debye):
    X=             -0.1852    Y=              4.9470    Z=              3.6654  Tot=              6.1597
 Quadrupole moment (field-independent basis, Debye-Ang):
   XX=           -161.5576   YY=            -99.7835   ZZ=           -104.3219
   XY=             10.4087   XZ=            -13.4773   YZ=             -5.0703

 Normal termination of Gaussian 16 at Fri May  7 02:01:14 2021.
