 Gaussian 16, Revision A.03,
 Gaussian 16:  EM64L-G16RevA.03 25-Dec-2016

 -------------
 #p 6-31g* mp2
 -------------

 ------------------------------------------------------
 Input file generated by CHIRIPA (05-May-2021 14:55:19)
 ------------------------------------------------------
 Symbolic Z-matrix:
 Charge =  0 Multiplicity = 1

                         Standard orientation:
 ---------------------------------------------------------------------
 Center     Atomic      Atomic             Coordinates (Angstroms)
 Number     Number       Type             X           Y           Z
 ---------------------------------------------------------------------
      1          6           0        1.450232   -1.823877    1.475965
      2          6           0        2.758786   -2.199472    1.154816
      3          6           0        3.559799   -1.373711    0.360433
      4          6           0        3.017757   -0.173931   -0.097832
      5          6           0        1.717728    0.228008    0.204922
      6          6           0        0.934788   -0.613469    1.000830
      7          1           0        0.835006   -2.471452    2.093653
      8          1           0        3.161722   -3.138919    1.522413
      9          1           0        4.576116   -1.640023    0.096621
     10          1           0        1.343830    1.170516   -0.176256
     11          1           0       -0.081108   -0.319213    1.248647
     12          7           0        3.856186    0.708584   -0.939618
     13          8           0        3.355202    1.760508   -1.330907
     14          8           0        4.998457    0.331665   -1.192180
     15          6           0       -3.806881   -0.092104   -0.616159
     16          6           0       -4.984227   -1.030948   -0.350799
     17          6           0       -5.213764   -2.027219   -1.487702
     18          1           0       -3.984939    0.453215   -1.553105
     19          1           0       -2.897820   -0.689804   -0.770290
     20          1           0       -5.890531   -0.431600   -0.195844
     21          1           0       -4.803433   -1.573955    0.585723
     22          1           0       -4.326087   -2.649799   -1.639446
     23          1           0       -5.419360   -1.500954   -2.425453
     24          1           0       -6.060042   -2.688560   -1.277225
     25          6           0       -3.564826    0.909717    0.511445
     26          6           0       -2.387481    1.848562    0.246085
     27          6           0       -2.157944    2.844833    1.382988
     28          1           0       -4.473888    1.507418    0.665575
     29          1           0       -3.386767    0.364399    1.448391
     30          1           0       -2.568274    2.391568   -0.690437
     31          1           0       -1.481177    1.249214    0.091130
     32          1           0       -1.952347    2.318567    2.320739
     33          1           0       -3.045621    3.467412    1.534732
     34          1           0       -1.311665    3.506174    1.172511
 ---------------------------------------------------------------------

 SCF Done:  E(RHF) =  -669.535339550     A.U. after   15 cycles
 E2 =    -0.2091703111D+01 EUMP2 =    -0.67162704266024D+03

 The electronic state is 1-A.
 Alpha  occ. eigenvalues --  -20.60751 -20.60746 -15.85804 -11.31175 -11.27750
 Alpha  occ. eigenvalues --  -11.27736 -11.27495 -11.26766 -11.26737 -11.22485
 Alpha  occ. eigenvalues --  -11.22174 -11.22161 -11.22018 -11.21796 -11.21527
 Alpha  occ. eigenvalues --   -1.59826  -1.39379  -1.19350  -1.09152  -1.08745
 Alpha  occ. eigenvalues --   -1.04760  -1.04208  -0.96631  -0.95578  -0.87643
 Alpha  occ. eigenvalues --   -0.86154  -0.82419  -0.80282  -0.78950  -0.77456
 Alpha  occ. eigenvalues --   -0.72023  -0.71149  -0.70463  -0.65866  -0.65002
 Alpha  occ. eigenvalues --   -0.64736  -0.62232  -0.61487  -0.59993  -0.58237
 Alpha  occ. eigenvalues --   -0.55923  -0.55257  -0.53311  -0.53085  -0.53044
 Alpha  occ. eigenvalues --   -0.52845  -0.50576  -0.48786  -0.48777  -0.48571
 Alpha  occ. eigenvalues --   -0.47337  -0.46472  -0.46417  -0.44784  -0.44458
 Alpha  occ. eigenvalues --   -0.37334  -0.36354
 Alpha virt. eigenvalues --    0.05071   0.11283   0.16513   0.18779   0.22647
 Alpha virt. eigenvalues --    0.23639   0.25486   0.25854   0.27091   0.28247
 Alpha virt. eigenvalues --    0.29032   0.29942   0.31164   0.31287   0.32281

 Mulliken charges:
               1
     1  C   -0.171046
     2  C   -0.218576
     3  C   -0.170877
     4  C    0.158829
     5  C   -0.173056
     6  C   -0.223325
     7  H    0.225548
     8  H    0.223388
     9  H    0.275611
    10  H    0.276978
    11  H    0.228794
    12  N    0.488288
    13  O   -0.460378
    14  O   -0.460550
    15  C   -0.298889
    16  C   -0.299817
    17  C   -0.476052
    18  H    0.153607
    19  H    0.147062
    20  H    0.153883
    21  H    0.149910
    22  H    0.155003
    23  H    0.157319
    24  H    0.161584
    25  C   -0.299192
    26  C   -0.305922
    27  C   -0.477485
    28  H    0.154171
    29  H    0.144990
    30  H    0.159819
    31  H    0.143280
    32  H    0.152222
    33  H    0.160121
    34  H    0.164757
 Sum of Mulliken charges =  -0.00000

 Dipole moment (field-independent basis, Debye):
    X=             -3.1264    Y=             -3.0286    Z=              2.9095  Tot=              5.2357
 Quadrupole moment (field-independent basis, Debye-Ang):
   XX=           -108.9793   YY=            -91.6677   ZZ=            -96.4495
   XY=            -12.7412   XZ=              9.8613   YZ=             -1.3864

 Normal termination of Gaussian 16 at Thu May  6 20:36:00 2021.
