 Gaussian 16, Revision A.03,
 Gaussian 16:  EM64L-G16RevA.03 25-Dec-2016

 -------------
 #p 6-31g* mp2
 -------------

 ------------------------------------------------------
 Input file generated by CHIRIPA (05-May-2021 14:55:25)
 ------------------------------------------------------
 Symbolic Z-matrix:
 Charge =  0 Multiplicity = 1

                         Standard orientation:
 ---------------------------------------------------------------------
 Center     Atomic      Atomic             Coordinates (Angstroms)
 Number     Number       Type             X           Y           Z
 ---------------------------------------------------------------------
      1          6           0       -0.844152   -1.280752    0.817900
      2          6           0       -1.007283   -0.935526   -0.527733
      3          6           0       -2.149936   -0.250458   -0.951494
      4          6           0       -3.113817    0.075129    0.001510
      5          6           0       -2.980188   -0.254928    1.349284
      6          6           0       -1.829388   -0.939952    1.750470
      7          1           0        0.046653   -1.812912    1.138320
      8          1           0       -0.243775   -1.198904   -1.254185
      9          1           0       -2.301728    0.029069   -1.986985
     10          1           0       -3.758573    0.021225    2.050193
     11          1           0       -1.705372   -1.206774    2.796162
     12          7           0       -4.327805    0.800357   -0.435157
     13          8           0       -5.162395    1.075713    0.424073
     14          8           0       -4.421753    1.079701   -1.628379
     15          6           0        4.138327    0.666292   -0.305985
     16          6           0        3.904231    1.890994    0.579051
     17          6           0        4.728949    3.102199    0.142455
     18          1           0        5.206351    0.409333   -0.290439
     19          1           0        3.893488    0.922082   -1.346186
     20          1           0        4.148117    1.632564    1.617487
     21          1           0        2.836610    2.144951    0.561548
     22          1           0        4.479876    3.387867   -0.884657
     23          1           0        5.798835    2.872568    0.177281
     24          1           0        4.546228    3.966372    0.788735
     25          6           0        3.320841   -0.552635    0.117881
     26          6           0        3.554938   -1.777338   -0.767154
     27          6           0        2.730219   -2.988543   -0.330558
     28          1           0        3.565679   -0.808426    1.158084
     29          1           0        2.252817   -0.295677    0.102335
     30          1           0        4.622559   -2.031294   -0.749652
     31          1           0        3.311050   -1.518907   -1.805589
     32          1           0        1.660332   -2.758911   -0.365384
     33          1           0        2.979291   -3.274211    0.696554
     34          1           0        2.912940   -3.852716   -0.976838
 ---------------------------------------------------------------------

 SCF Done:  E(RHF) =  -669.535178087     A.U. after   15 cycles
 E2 =    -0.2092446312D+01 EUMP2 =    -0.67162762439918D+03

 The electronic state is 1-A.
 Alpha  occ. eigenvalues --  -20.60759 -20.60754 -15.85814 -11.31181 -11.27760
 Alpha  occ. eigenvalues --  -11.27749 -11.27440 -11.26762 -11.26741 -11.22657
 Alpha  occ. eigenvalues --  -11.22398 -11.22350 -11.22165 -11.22082 -11.21501
 Alpha  occ. eigenvalues --   -1.59835  -1.39388  -1.19354  -1.09292  -1.08742
 Alpha  occ. eigenvalues --   -1.04761  -1.04377  -0.96844  -0.95580  -0.87860
 Alpha  occ. eigenvalues --   -0.86160  -0.82415  -0.80458  -0.79065  -0.77464
 Alpha  occ. eigenvalues --   -0.72032  -0.71158  -0.70473  -0.65967  -0.65001
 Alpha  occ. eigenvalues --   -0.64758  -0.62165  -0.61701  -0.60225  -0.58439
 Alpha  occ. eigenvalues --   -0.56174  -0.55246  -0.53514  -0.53286  -0.53054
 Alpha  occ. eigenvalues --   -0.52846  -0.50798  -0.48793  -0.48791  -0.48740
 Alpha  occ. eigenvalues --   -0.47481  -0.46595  -0.46495  -0.44794  -0.44608
 Alpha  occ. eigenvalues --   -0.37310  -0.36363
 Alpha virt. eigenvalues --    0.05061   0.11175   0.16541   0.19140   0.22527
 Alpha virt. eigenvalues --    0.23909   0.25423   0.25964   0.27017   0.27470
 Alpha virt. eigenvalues --    0.29418   0.29810   0.30906   0.31244   0.32151

 Mulliken charges:
               1
     1  C   -0.173625
     2  C   -0.222552
     3  C   -0.170989
     4  C    0.158160
     5  C   -0.170657
     6  C   -0.219301
     7  H    0.232218
     8  H    0.225036
     9  H    0.275561
    10  H    0.275611
    11  H    0.223756
    12  N    0.488071
    13  O   -0.460357
    14  O   -0.460512
    15  C   -0.298295
    16  C   -0.300774
    17  C   -0.476236
    18  H    0.151871
    19  H    0.150704
    20  H    0.151905
    21  H    0.153840
    22  H    0.156460
    23  H    0.155793
    24  H    0.162464
    25  C   -0.304039
    26  C   -0.300499
    27  C   -0.481761
    28  H    0.149793
    29  H    0.147517
    30  H    0.157421
    31  H    0.152483
    32  H    0.146152
    33  H    0.157383
    34  H    0.167398
 Sum of Mulliken charges =  -0.00000

 Dipole moment (field-independent basis, Debye):
    X=              4.4725    Y=             -2.5197    Z=              1.5409  Tot=              5.3597
 Quadrupole moment (field-independent basis, Debye-Ang):
   XX=           -120.3643   YY=            -96.4792   ZZ=            -89.9898
   XY=              7.5447   XZ=             -6.2076   YZ=              0.1101

 Normal termination of Gaussian 16 at Thu May  6 04:47:59 2021.
