 Gaussian 16, Revision A.03,
 Gaussian 16:  EM64L-G16RevA.03 25-Dec-2016

 -------------
 #p 6-31g* mp2
 -------------

 ------------------------------------------------------
 Input file generated by CHIRIPA (05-May-2021 14:55:25)
 ------------------------------------------------------
 Symbolic Z-matrix:
 Charge =  0 Multiplicity = 1

                         Standard orientation:
 ---------------------------------------------------------------------
 Center     Atomic      Atomic             Coordinates (Angstroms)
 Number     Number       Type             X           Y           Z
 ---------------------------------------------------------------------
      1          6           0        0.667907   -0.299940    1.656178
      2          6           0        1.427661    0.866393    1.518471
      3          6           0        2.590139    0.868952    0.741820
      4          6           0        2.965247   -0.317838    0.114036
      5          6           0        2.229462   -1.495974    0.231965
      6          6           0        1.070523   -1.475329    1.013618
      7          1           0       -0.233759   -0.292915    2.261442
      8          1           0        1.117392    1.780669    2.016343
      9          1           0        3.197000    1.757691    0.618207
     10          1           0        2.564120   -2.392048   -0.276438
     11          1           0        0.482447   -2.382606    1.118780
     12          7           0        4.194037   -0.327411   -0.710817
     13          8           0        4.503092   -1.385911   -1.253681
     14          8           0        4.824841    0.723766   -0.798855
     15          6           0       -3.660203   -0.345304   -0.393473
     16          6           0       -5.112145   -0.748344   -0.133841
     17          6           0       -5.344253   -2.252060   -0.284690
     18          1           0       -3.373745   -0.662260   -1.405611
     19          1           0       -3.005975   -0.889770    0.301463
     20          1           0       -5.763562   -0.202240   -0.828133
     21          1           0       -5.395241   -0.430221    0.877729
     22          1           0       -4.718403   -2.810924    0.418577
     23          1           0       -5.088817   -2.581647   -1.296977
     24          1           0       -6.388759   -2.518103   -0.094720
     25          6           0       -3.412379    1.154930   -0.246481
     26          6           0       -1.960437    1.557970   -0.506114
     27          6           0       -1.728330    3.061687   -0.355265
     28          1           0       -4.066608    1.699396   -0.941418
     29          1           0       -3.698838    1.471887    0.765657
     30          1           0       -1.677342    1.239848   -1.517683
     31          1           0       -1.309019    1.011866    0.188179
     32          1           0       -1.983765    3.391274    0.657023
     33          1           0       -2.354180    3.620550   -1.058531
     34          1           0       -0.683824    3.327729   -0.545234
 ---------------------------------------------------------------------

 SCF Done:  E(RHF) =  -669.534799195     A.U. after   15 cycles
 E2 =    -0.2092945133D+01 EUMP2 =    -0.67162774432790D+03

 The electronic state is 1-A.
 Alpha  occ. eigenvalues --  -20.60801 -20.60795 -15.85855 -11.31242 -11.27815
 Alpha  occ. eigenvalues --  -11.27810 -11.27568 -11.26837 -11.26827 -11.22165
 Alpha  occ. eigenvalues --  -11.22044 -11.22026 -11.21933 -11.21636 -11.21607
 Alpha  occ. eigenvalues --   -1.59876  -1.39429  -1.19426  -1.09024  -1.08817
 Alpha  occ. eigenvalues --   -1.04827  -1.04079  -0.96547  -0.95655  -0.87559
 Alpha  occ. eigenvalues --   -0.86227  -0.82480  -0.80138  -0.78829  -0.77512
 Alpha  occ. eigenvalues --   -0.72074  -0.71199  -0.70559  -0.65674  -0.65079
 Alpha  occ. eigenvalues --   -0.64819  -0.62174  -0.61496  -0.59911  -0.58152
 Alpha  occ. eigenvalues --   -0.55857  -0.55351  -0.53293  -0.53122  -0.52961
 Alpha  occ. eigenvalues --   -0.52908  -0.50494  -0.48834  -0.48827  -0.48447
 Alpha  occ. eigenvalues --   -0.47184  -0.46365  -0.46311  -0.44830  -0.44345
 Alpha  occ. eigenvalues --   -0.37302  -0.36417
 Alpha virt. eigenvalues --    0.04977   0.11157   0.16365   0.20083   0.22850
 Alpha virt. eigenvalues --    0.23683   0.25640   0.26432   0.27030   0.27982
 Alpha virt. eigenvalues --    0.29266   0.30760   0.31046   0.31402   0.31878

 Mulliken charges:
               1
     1  C   -0.172524
     2  C   -0.215732
     3  C   -0.171396
     4  C    0.158850
     5  C   -0.170747
     6  C   -0.218064
     7  H    0.226460
     8  H    0.225108
     9  H    0.275913
    10  H    0.275974
    11  H    0.223994
    12  N    0.488047
    13  O   -0.460245
    14  O   -0.460264
    15  C   -0.296233
    16  C   -0.299951
    17  C   -0.475567
    18  H    0.152776
    19  H    0.140330
    20  H    0.154477
    21  H    0.151191
    22  H    0.152212
    23  H    0.156814
    24  H    0.162239
    25  C   -0.298586
    26  C   -0.306068
    27  C   -0.476703
    28  H    0.152093
    29  H    0.146354
    30  H    0.155508
    31  H    0.154206
    32  H    0.150378
    33  H    0.158644
    34  H    0.160510
 Sum of Mulliken charges =  -0.00000

 Dipole moment (field-independent basis, Debye):
    X=             -4.3271    Y=              0.0147    Z=              2.8327  Tot=              5.1719
 Quadrupole moment (field-independent basis, Debye-Ang):
   XX=           -120.9277   YY=            -91.3073   ZZ=            -93.5531
   XY=              1.9937   XZ=              8.8293   YZ=             -0.0291

 Normal termination of Gaussian 16 at Thu May  6 03:12:56 2021.
