 Gaussian 16, Revision A.03,
 Gaussian 16:  EM64L-G16RevA.03 25-Dec-2016

 -------------
 #p 6-31g* mp2
 -------------

 ------------------------------------------------------
 Input file generated by CHIRIPA (05-May-2021 14:55:19)
 ------------------------------------------------------
 Symbolic Z-matrix:
 Charge =  0 Multiplicity = 1

                         Standard orientation:
 ---------------------------------------------------------------------
 Center     Atomic      Atomic             Coordinates (Angstroms)
 Number     Number       Type             X           Y           Z
 ---------------------------------------------------------------------
      1          6           0        5.600089   -0.810263    0.397825
      2          6           0        4.661977   -1.812088    0.127985
      3          6           0        3.330334   -1.483523   -0.142791
      4          6           0        2.969774   -0.136960   -0.135465
      5          6           0        3.881119    0.884024    0.129737
      6          6           0        5.207358    0.532229    0.397839
      7          1           0        6.632442   -1.074523    0.607132
      8          1           0        4.964134   -2.855518    0.127298
      9          1           0        2.583503   -2.238949   -0.354908
     10          1           0        3.549968    1.915389    0.123297
     11          1           0        5.933752    1.312372    0.607063
     12          7           0        1.562884    0.223173   -0.420708
     13          8           0        1.270513    1.416907   -0.408237
     14          8           0        0.779174   -0.695107   -0.651351
     15          6           0       -4.485303   -0.293025    0.483680
     16          6           0       -5.345176   -1.159164   -0.437411
     17          6           0       -6.113700   -2.243560    0.318400
     18          1           0       -3.777964   -0.935545    1.025699
     19          1           0       -5.128541    0.173515    1.242613
     20          1           0       -4.700707   -1.622835   -1.195226
     21          1           0       -6.050422   -0.514485   -0.977443
     22          1           0       -6.779836   -1.795721    1.062915
     23          1           0       -5.422453   -2.910369    0.843895
     24          1           0       -6.721802   -2.850941   -0.359214
     25          6           0       -3.710912    0.795590   -0.257240
     26          6           0       -2.851039    1.661728    0.663851
     27          6           0       -2.082516    2.746124   -0.091961
     28          1           0       -3.067675    0.329050   -1.016174
     29          1           0       -4.418251    1.438110   -0.799260
     30          1           0       -2.145794    1.017049    1.203882
     31          1           0       -3.495508    2.125400    1.421665
     32          1           0       -2.773762    3.412933   -0.617455
     33          1           0       -1.416379    2.298285   -0.836476
     34          1           0       -1.474413    3.353505    0.585653
 ---------------------------------------------------------------------

 SCF Done:  E(RHF) =  -669.536351914     A.U. after   15 cycles
 E2 =    -0.2091255150D+01 EUMP2 =    -0.67162760706431D+03

 The electronic state is 1-A.
 Alpha  occ. eigenvalues --  -20.61053 -20.61034 -15.86061 -11.31353 -11.27911
 Alpha  occ. eigenvalues --  -11.27907 -11.27643 -11.26910 -11.26900 -11.20673
 Alpha  occ. eigenvalues --  -11.20332 -11.20254 -11.20009 -11.19933 -11.19091
 Alpha  occ. eigenvalues --   -1.60099  -1.39655  -1.19517  -1.08929  -1.07159
 Alpha  occ. eigenvalues --   -1.04908  -1.02216  -0.95777  -0.94658  -0.86310
 Alpha  occ. eigenvalues --   -0.85681  -0.82607  -0.78340  -0.77666  -0.76930
 Alpha  occ. eigenvalues --   -0.72279  -0.71408  -0.70625  -0.65172  -0.64912
 Alpha  occ. eigenvalues --   -0.63780  -0.62255  -0.59596  -0.58113  -0.56273
 Alpha  occ. eigenvalues --   -0.55417  -0.53938  -0.53241  -0.52998  -0.51378
 Alpha  occ. eigenvalues --   -0.51105  -0.49206  -0.49041  -0.48386  -0.46632
 Alpha  occ. eigenvalues --   -0.45350  -0.45070  -0.44481  -0.44323  -0.42482
 Alpha  occ. eigenvalues --   -0.37495  -0.36507
 Alpha virt. eigenvalues --    0.04858   0.11149   0.16365   0.21287   0.24081
 Alpha virt. eigenvalues --    0.25680   0.27209   0.27875   0.28207   0.28718
 Alpha virt. eigenvalues --    0.29356   0.30869   0.32401   0.32707   0.32835

 Mulliken charges:
               1
     1  C   -0.170458
     2  C   -0.218592
     3  C   -0.170655
     4  C    0.157859
     5  C   -0.170747
     6  C   -0.218562
     7  H    0.226219
     8  H    0.224002
     9  H    0.275802
    10  H    0.276137
    11  H    0.224077
    12  N    0.488942
    13  O   -0.458252
    14  O   -0.460641
    15  C   -0.297433
    16  C   -0.299066
    17  C   -0.474949
    18  H    0.150374
    19  H    0.145272
    20  H    0.153176
    21  H    0.149661
    22  H    0.153222
    23  H    0.154101
    24  H    0.157265
    25  C   -0.299362
    26  C   -0.297235
    27  C   -0.477401
    28  H    0.158962
    29  H    0.144039
    30  H    0.155283
    31  H    0.142513
    32  H    0.142371
    33  H    0.179660
    34  H    0.154416
 Sum of Mulliken charges =  -0.00000

 Dipole moment (field-independent basis, Debye):
    X=              5.4188    Y=             -1.3412    Z=              0.9104  Tot=              5.6561
 Quadrupole moment (field-independent basis, Debye-Ang):
   XX=            -66.9540   YY=            -90.6345   ZZ=            -96.1336
   XY=             -3.9969   XZ=              2.9961   YZ=              0.9539

 Normal termination of Gaussian 16 at Thu May  6 14:02:08 2021.
