 Gaussian 16, Revision A.03,
 Gaussian 16:  EM64L-G16RevA.03 25-Dec-2016

 -------------
 #p 6-31g* mp2
 -------------

 ------------------------------------------------------
 Input file generated by CHIRIPA (05-May-2021 14:51:13)
 ------------------------------------------------------
 Symbolic Z-matrix:
 Charge =  0 Multiplicity = 1

                         Standard orientation:
 ---------------------------------------------------------------------
 Center     Atomic      Atomic             Coordinates (Angstroms)
 Number     Number       Type             X           Y           Z
 ---------------------------------------------------------------------
      1          6           0        2.456479   -0.104915    0.517988
      2          6           0        2.079645    0.287470    1.946980
      3          6           0        0.570875    0.250020    2.191934
      4          1           0        1.952360    0.571114   -0.186139
      5          1           0        2.075193   -1.114180    0.309663
      6          1           0        2.462727    1.295148    2.153013
      7          1           0        2.584871   -0.389451    2.647794
      8          1           0        0.176477   -0.755581    2.013553
      9          1           0        0.053639    0.938590    1.515961
     10          1           0        0.323837    0.533959    3.219655
     11          6           0        3.961434   -0.072258    0.257657
     12          6           0        4.338268   -0.464642   -1.171335
     13          6           0        5.847039   -0.427192   -1.416289
     14          1           0        4.342720    0.937008    0.465981
     15          1           0        4.465553   -0.748286    0.961784
     16          1           0        3.833042    0.212279   -1.872149
     17          1           0        3.955186   -1.472320   -1.377368
     18          1           0        6.364274   -1.115762   -0.740316
     19          1           0        6.241436    0.578409   -1.237908
     20          1           0        6.094076   -0.711131   -2.444011
     21          6           0       -3.391092    0.821578   -0.273883
     22          6           0       -2.322932    1.796158   -0.771089
     23          6           0       -2.701759    3.258714   -0.536115
     24          1           0       -4.342022    1.041124   -0.778340
     25          1           0       -3.560172    0.989740    0.798744
     26          1           0       -2.154923    1.625269   -1.842157
     27          1           0       -1.374388    1.574141   -0.265531
     28          1           0       -2.849776    3.451608    0.531351
     29          1           0       -3.634747    3.503028   -1.054233
     30          1           0       -1.924215    3.938114   -0.899019
     31          6           0       -3.026822   -0.644405   -0.501762
     32          6           0       -4.094981   -1.618985   -0.004556
     33          6           0       -3.716154   -3.081542   -0.239530
     34          1           0       -2.857741   -0.812569   -1.574389
     35          1           0       -2.075892   -0.863952    0.002696
     36          1           0       -5.043525   -1.396970   -0.510113
     37          1           0       -4.262990   -1.448098    1.066513
     38          1           0       -2.783166   -3.325856    0.278589
     39          1           0       -3.568137   -3.274437   -1.306996
     40          1           0       -4.493698   -3.760943    0.123375
 ---------------------------------------------------------------------

 SCF Done:  E(RHF) =  -470.733308913     A.U. after   11 cycles
 E2 =    -0.1583061067D+01 EUMP2 =    -0.47231636997962D+03

 The electronic state is 1-A.
 Alpha  occ. eigenvalues --  -11.21659 -11.21612 -11.21572 -11.21557 -11.21435
 Alpha  occ. eigenvalues --  -11.21374 -11.21351 -11.21286 -11.21156 -11.21079
 Alpha  occ. eigenvalues --  -11.21065 -11.21047  -1.08466  -1.08386  -1.03574
 Alpha  occ. eigenvalues --   -1.03499  -0.96024  -0.95948  -0.87045  -0.86964
 Alpha  occ. eigenvalues --   -0.79656  -0.79550  -0.78299  -0.78171  -0.65125
 Alpha  occ. eigenvalues --   -0.65001  -0.61077  -0.60811  -0.59394  -0.59313
 Alpha  occ. eigenvalues --   -0.57632  -0.57560  -0.55345  -0.55206  -0.52716
 Alpha  occ. eigenvalues --   -0.52657  -0.52452  -0.52375  -0.50065  -0.49813
 Alpha  occ. eigenvalues --   -0.48045  -0.47848  -0.46810  -0.46448  -0.45964
 Alpha  occ. eigenvalues --   -0.45737  -0.45700  -0.45433  -0.43822  -0.43748
 Alpha virt. eigenvalues --    0.20662   0.23068   0.23675   0.24341   0.25954
 Alpha virt. eigenvalues --    0.26434   0.27142   0.27684   0.28001   0.29488
 Alpha virt. eigenvalues --    0.30007   0.31657   0.31847   0.31901   0.32108

 Mulliken charges:
               1
     1  C   -0.298890
     2  C   -0.299423
     3  C   -0.484001
     4  H    0.150147
     5  H    0.149629
     6  H    0.152195
     7  H    0.152225
     8  H    0.155713
     9  H    0.162236
    10  H    0.160708
    11  C   -0.298342
    12  C   -0.299718
    13  C   -0.475740
    14  H    0.149590
    15  H    0.149738
    16  H    0.152154
    17  H    0.152069
    18  H    0.155177
    19  H    0.155188
    20  H    0.160341
    21  C   -0.297559
    22  C   -0.307263
    23  C   -0.475465
    24  H    0.149446
    25  H    0.149911
    26  H    0.151985
    27  H    0.157947
    28  H    0.155304
    29  H    0.155377
    30  H    0.159662
    31  C   -0.301232
    32  C   -0.299622
    33  C   -0.475513
    34  H    0.149087
    35  H    0.153239
    36  H    0.151710
    37  H    0.152090
    38  H    0.154680
    39  H    0.155101
    40  H    0.160120
 Sum of Mulliken charges =  -0.00000

 Dipole moment (field-independent basis, Debye):
    X=              0.0275    Y=              0.0010    Z=              0.0132  Tot=              0.0305
 Quadrupole moment (field-independent basis, Debye-Ang):
   XX=            -85.7496   YY=            -85.0849   ZZ=            -83.9746
   XY=              0.0742   XZ=              0.7855   YZ=             -0.4141

 Normal termination of Gaussian 16 at Thu May  6 00:45:49 2021.
