 Gaussian 16, Revision A.03,
 Gaussian 16:  EM64L-G16RevA.03 25-Dec-2016

 -------------
 #p 6-31g* mp2
 -------------

 ------------------------------------------------------
 Input file generated by CHIRIPA (05-May-2021 14:55:24)
 ------------------------------------------------------
 Symbolic Z-matrix:
 Charge =  0 Multiplicity = 1

                         Standard orientation:
 ---------------------------------------------------------------------
 Center     Atomic      Atomic             Coordinates (Angstroms)
 Number     Number       Type             X           Y           Z
 ---------------------------------------------------------------------
      1          6           0        4.784326    0.307782   -0.659785
      2          6           0        3.993486   -0.504547   -1.479062
      3          6           0        2.731806   -0.929366   -1.052164
      4          6           0        2.290275   -0.521225    0.205516
      5          6           0        3.054758    0.287788    1.044775
      6          6           0        4.313268    0.700664    0.597302
      7          1           0        5.763198    0.633152   -0.999401
      8          1           0        4.356744   -0.811209   -2.455815
      9          1           0        2.098871   -1.558535   -1.666133
     10          1           0        2.665555    0.577206    2.013370
     11          1           0        4.925277    1.331498    1.235690
     12          7           0        0.956269   -0.964639    0.668345
     13          8           0        0.590149   -0.591323    1.780653
     14          8           0        0.302054   -1.677108   -0.089962
     15          6           0       -3.175968    1.308806   -0.369313
     16          6           0       -1.910768    2.011829    0.123648
     17          6           0       -1.851231    3.481982   -0.292164
     18          1           0       -3.226638    1.384012   -1.464175
     19          1           0       -4.056582    1.837271    0.021380
     20          1           0       -1.032790    1.481378   -0.266727
     21          1           0       -1.863006    1.934776    1.217447
     22          1           0       -2.708845    4.031066    0.109838
     23          1           0       -1.873912    3.575091   -1.382769
     24          1           0       -0.938694    3.965183    0.070677
     25          6           0       -3.249978   -0.161556    0.038467
     26          6           0       -4.515178   -0.864579   -0.454494
     27          6           0       -4.574715   -2.334733   -0.038682
     28          1           0       -2.369365   -0.690021   -0.352226
     29          1           0       -3.199308   -0.236762    1.133329
     30          1           0       -4.562940   -0.787527   -1.548293
     31          1           0       -5.393156   -0.334128   -0.064119
     32          1           0       -4.552034   -2.427842    1.051923
     33          1           0       -3.717101   -2.883816   -0.440684
     34          1           0       -5.487252   -2.817933   -0.401523
 ---------------------------------------------------------------------

 SCF Done:  E(RHF) =  -669.536282181     A.U. after   15 cycles
 E2 =    -0.2092281664D+01 EUMP2 =    -0.67162856384525D+03

 The electronic state is 1-A.
 Alpha  occ. eigenvalues --  -20.61004 -20.60992 -15.86013 -11.31326 -11.27887
 Alpha  occ. eigenvalues --  -11.27879 -11.27618 -11.26886 -11.26876 -11.20652
 Alpha  occ. eigenvalues --  -11.20430 -11.20389 -11.20291 -11.19862 -11.19743
 Alpha  occ. eigenvalues --   -1.60045  -1.39604  -1.19489  -1.08897  -1.07233
 Alpha  occ. eigenvalues --   -1.04883  -1.02471  -0.95741  -0.94913  -0.86284
 Alpha  occ. eigenvalues --   -0.85933  -0.82576  -0.78541  -0.77631  -0.76967
 Alpha  occ. eigenvalues --   -0.72236  -0.71354  -0.70597  -0.65145  -0.64885
 Alpha  occ. eigenvalues --   -0.63870  -0.62230  -0.59884  -0.58306  -0.56515
 Alpha  occ. eigenvalues --   -0.55387  -0.54206  -0.53214  -0.52974  -0.51680
 Alpha  occ. eigenvalues --   -0.51331  -0.49072  -0.48992  -0.48805  -0.46868
 Alpha  occ. eigenvalues --   -0.45586  -0.45092  -0.44505  -0.44241  -0.42668
 Alpha  occ. eigenvalues --   -0.37465  -0.36482
 Alpha virt. eigenvalues --    0.04864   0.11173   0.16343   0.21302   0.23956
 Alpha virt. eigenvalues --    0.25288   0.27229   0.27682   0.28112   0.28658
 Alpha virt. eigenvalues --    0.29020   0.30962   0.32318   0.32386   0.32623

 Mulliken charges:
               1
     1  C   -0.170441
     2  C   -0.218532
     3  C   -0.170887
     4  C    0.157584
     5  C   -0.170407
     6  C   -0.218596
     7  H    0.226152
     8  H    0.223917
     9  H    0.275602
    10  H    0.276067
    11  H    0.223984
    12  N    0.489101
    13  O   -0.457179
    14  O   -0.460294
    15  C   -0.298008
    16  C   -0.296100
    17  C   -0.475048
    18  H    0.144320
    19  H    0.144841
    20  H    0.146395
    21  H    0.158621
    22  H    0.153868
    23  H    0.151914
    24  H    0.155037
    25  C   -0.307785
    26  C   -0.298751
    27  C   -0.474973
    28  H    0.173431
    29  H    0.153306
    30  H    0.146691
    31  H    0.146266
    32  H    0.155459
    33  H    0.160845
    34  H    0.153601
 Sum of Mulliken charges =  -0.00000

 Dipole moment (field-independent basis, Debye):
    X=              5.0075    Y=              1.3863    Z=             -1.5019  Tot=              5.4086
 Quadrupole moment (field-independent basis, Debye-Ang):
   XX=            -74.7041   YY=            -97.5197   ZZ=            -91.2344
   XY=              1.4954   XZ=             -2.9568   YZ=              4.2884

 Normal termination of Gaussian 16 at Thu May  6 04:46:22 2021.
