 Gaussian 16, Revision A.03,
 Gaussian 16:  EM64L-G16RevA.03 25-Dec-2016

 -------------
 #p 6-31g* mp2
 -------------

 ------------------------------------------------------
 Input file generated by CHIRIPA (05-May-2021 14:55:20)
 ------------------------------------------------------
 Symbolic Z-matrix:
 Charge =  0 Multiplicity = 1

                         Standard orientation:
 ---------------------------------------------------------------------
 Center     Atomic      Atomic             Coordinates (Angstroms)
 Number     Number       Type             X           Y           Z
 ---------------------------------------------------------------------
      1          6           0        2.688949   -2.296135   -0.767791
      2          6           0        3.810477   -1.924367   -0.019137
      3          6           0        4.044958   -0.581022    0.289073
      4          6           0        3.133254    0.368618   -0.169479
      5          6           0        2.006704    0.029700   -0.917348
      6          6           0        1.792222   -1.319636   -1.213721
      7          1           0        2.514567   -3.342004   -1.002619
      8          1           0        4.508577   -2.680576    0.328497
      9          1           0        4.905140   -0.265431    0.866921
     10          1           0        1.328612    0.806205   -1.249989
     11          1           0        0.920383   -1.605444   -1.795318
     12          7           0        3.370902    1.793928    0.150544
     13          8           0        2.552655    2.611416   -0.265175
     14          8           0        4.370918    2.066609    0.811037
     15          6           0       -3.201458   -0.212978    0.209331
     16          6           0       -2.539609   -1.127888    1.240292
     17          6           0       -1.021126   -1.201248    1.077119
     18          1           0       -2.956583   -0.571015   -0.800020
     19          1           0       -2.773327    0.795303    0.295751
     20          1           0       -2.969846   -2.133807    1.152884
     21          1           0       -2.786245   -0.767744    2.247308
     22          1           0       -0.573599   -0.207980    1.185456
     23          1           0       -0.758242   -1.581804    0.084813
     24          1           0       -0.568459   -1.860631    1.824223
     25          6           0       -4.719404   -0.129318    0.359557
     26          6           0       -5.381254    0.785593   -0.671402
     27          6           0       -6.899736    0.858953   -0.508230
     28          1           0       -5.147535   -1.137599    0.273138
     29          1           0       -4.964280    0.228718    1.368909
     30          1           0       -5.134617    0.425448   -1.678419
     31          1           0       -4.951016    1.791510   -0.583996
     32          1           0       -7.162620    1.239507    0.484076
     33          1           0       -7.347264   -0.134317   -0.616567
     34          1           0       -7.352404    1.518336   -1.255334
 ---------------------------------------------------------------------

 SCF Done:  E(RHF) =  -669.534476539     A.U. after   15 cycles
 E2 =    -0.2092318967D+01 EUMP2 =    -0.67162679550633D+03

 The electronic state is 1-A.
 Alpha  occ. eigenvalues --  -20.60750 -20.60744 -15.85803 -11.31154 -11.27708
 Alpha  occ. eigenvalues --  -11.27704 -11.27455 -11.26738 -11.26727 -11.21879
 Alpha  occ. eigenvalues --  -11.21766 -11.21689 -11.21580 -11.21404 -11.21197
 Alpha  occ. eigenvalues --   -1.59826  -1.39380  -1.19326  -1.08730  -1.08676
 Alpha  occ. eigenvalues --   -1.04737  -1.03767  -0.96228  -0.95561  -0.87252
 Alpha  occ. eigenvalues --   -0.86132  -0.82400  -0.79839  -0.78497  -0.77442
 Alpha  occ. eigenvalues --   -0.72022  -0.71149  -0.70433  -0.65322  -0.64981
 Alpha  occ. eigenvalues --   -0.64754  -0.62105  -0.61158  -0.59592  -0.57850
 Alpha  occ. eigenvalues --   -0.55541  -0.55227  -0.53340  -0.52875  -0.52829
 Alpha  occ. eigenvalues --   -0.52420  -0.50162  -0.48780  -0.48777  -0.48145
 Alpha  occ. eigenvalues --   -0.46868  -0.46041  -0.45952  -0.44788  -0.44025
 Alpha  occ. eigenvalues --   -0.37292  -0.36241
 Alpha virt. eigenvalues --    0.05093   0.11237   0.16554   0.20678   0.22755
 Alpha virt. eigenvalues --    0.24040   0.25922   0.26653   0.27502   0.28196
 Alpha virt. eigenvalues --    0.28918   0.29889   0.31520   0.31720   0.32155

 Mulliken charges:
               1
     1  C   -0.171800
     2  C   -0.218396
     3  C   -0.171242
     4  C    0.157820
     5  C   -0.168593
     6  C   -0.213284
     7  H    0.225299
     8  H    0.223193
     9  H    0.275321
    10  H    0.275586
    11  H    0.222546
    12  N    0.488087
    13  O   -0.460860
    14  O   -0.460448
    15  C   -0.298534
    16  C   -0.300520
    17  C   -0.473567
    18  H    0.143907
    19  H    0.152761
    20  H    0.150337
    21  H    0.154539
    22  H    0.159329
    23  H    0.145131
    24  H    0.160800
    25  C   -0.298236
    26  C   -0.300020
    27  C   -0.475878
    28  H    0.148890
    29  H    0.151466
    30  H    0.150547
    31  H    0.153954
    32  H    0.156121
    33  H    0.154695
    34  H    0.161050
 Sum of Mulliken charges =  -0.00000

 Dipole moment (field-independent basis, Debye):
    X=             -0.8593    Y=             -4.9898    Z=             -1.0801  Tot=              5.1772
 Quadrupole moment (field-independent basis, Debye-Ang):
   XX=            -97.8958   YY=            -98.2433   ZZ=            -93.3695
   XY=            -17.3907   XZ=             -1.0821   YZ=              0.2784

 Normal termination of Gaussian 16 at Wed May  5 22:08:20 2021.
