 Gaussian 16, Revision A.03,
 Gaussian 16:  EM64L-G16RevA.03 25-Dec-2016

 -------------
 #p 6-31g* mp2
 -------------

 ------------------------------------------------------
 Input file generated by CHIRIPA (05-May-2021 14:53:17)
 ------------------------------------------------------
 Symbolic Z-matrix:
 Charge =  0 Multiplicity = 1

                         Standard orientation:
 ---------------------------------------------------------------------
 Center     Atomic      Atomic             Coordinates (Angstroms)
 Number     Number       Type             X           Y           Z
 ---------------------------------------------------------------------
      1          6           0        3.592083    1.065249    0.358169
      2          6           0        2.909585    1.925208   -0.706092
      3          6           0        2.310395    3.209898   -0.133086
      4          1           0        2.862922    0.814243    1.140643
      5          1           0        4.382019    1.654304    0.844390
      6          1           0        2.122091    1.334256   -1.191113
      7          1           0        3.640406    2.174036   -1.486221
      8          1           0        3.088083    3.822764    0.334029
      9          1           0        1.561142    2.978213    0.630814
     10          1           0        1.827553    3.809492   -0.911039
     11          6           0        4.195989   -0.222497   -0.199268
     12          6           0        4.878488   -1.082456    0.864993
     13          6           0        5.477678   -2.367146    0.291987
     14          1           0        3.406054   -0.811552   -0.685489
     15          1           0        4.925150    0.028509   -0.981742
     16          1           0        4.147667   -1.331284    1.645122
     17          1           0        5.665982   -0.491504    1.350014
     18          1           0        6.226931   -2.135461   -0.471913
     19          1           0        4.699989   -2.980012   -0.175128
     20          1           0        5.960520   -2.966740    1.069940
     21          6           0       -0.739092   -1.148669   -0.686581
     22          6           0       -1.810138   -2.046558   -0.630227
     23          6           0       -3.090547   -1.603653   -0.285353
     24          6           0       -3.264874   -0.249977   -0.001695
     25          6           0       -2.217843    0.669131   -0.049218
     26          6           0       -0.945997    0.203925   -0.396409
     27          1           0        0.252234   -1.501391   -0.955387
     28          1           0       -1.652395   -3.097560   -0.855074
     29          1           0       -3.937433   -2.277134   -0.234115
     30          1           0       -2.406099    1.710923    0.180231
     31          1           0       -0.116066    0.903505   -0.439376
     32          7           0       -4.615852    0.230712    0.364633
     33          8           0       -4.743254    1.428282    0.610053
     34          8           0       -5.521765   -0.599197    0.399405
 ---------------------------------------------------------------------

 SCF Done:  E(RHF) =  -669.535445803     A.U. after   15 cycles
 E2 =    -0.2091713163D+01 EUMP2 =    -0.67162715896583D+03

 The electronic state is 1-A.
 Alpha  occ. eigenvalues --  -20.60745 -20.60740 -15.85798 -11.31165 -11.27736
 Alpha  occ. eigenvalues --  -11.27724 -11.27482 -11.26756 -11.26709 -11.22769
 Alpha  occ. eigenvalues --  -11.22429 -11.22391 -11.22343 -11.22108 -11.21797
 Alpha  occ. eigenvalues --   -1.59821  -1.39374  -1.19337  -1.09429  -1.08733
 Alpha  occ. eigenvalues --   -1.04744  -1.04486  -0.96918  -0.95569  -0.87928
 Alpha  occ. eigenvalues --   -0.86143  -0.82400  -0.80550  -0.79224  -0.77448
 Alpha  occ. eigenvalues --   -0.72017  -0.71144  -0.70453  -0.66161  -0.64988
 Alpha  occ. eigenvalues --   -0.64724  -0.62272  -0.61688  -0.60280  -0.58517
 Alpha  occ. eigenvalues --   -0.56231  -0.55231  -0.53592  -0.53326  -0.53071
 Alpha  occ. eigenvalues --   -0.52817  -0.50873  -0.48868  -0.48772  -0.48752
 Alpha  occ. eigenvalues --   -0.47605  -0.46757  -0.46693  -0.44779  -0.44736
 Alpha  occ. eigenvalues --   -0.37322  -0.36342
 Alpha virt. eigenvalues --    0.05087   0.11281   0.16570   0.17953   0.22341
 Alpha virt. eigenvalues --    0.23227   0.24759   0.25871   0.26778   0.28413
 Alpha virt. eigenvalues --    0.29763   0.30311   0.30844   0.31001   0.31898

 Mulliken charges:
               1
     1  C   -0.300153
     2  C   -0.304249
     3  C   -0.479386
     4  H    0.149622
     5  H    0.154826
     6  H    0.141776
     7  H    0.158696
     8  H    0.161930
     9  H    0.152635
    10  H    0.163788
    11  C   -0.297504
    12  C   -0.300690
    13  C   -0.475674
    14  H    0.141123
    15  H    0.153203
    16  H    0.152758
    17  H    0.155126
    18  H    0.156977
    19  H    0.152588
    20  H    0.163276
    21  C   -0.174432
    22  C   -0.218544
    23  C   -0.171200
    24  C    0.159008
    25  C   -0.172522
    26  C   -0.227924
    27  H    0.226274
    28  H    0.223366
    29  H    0.275524
    30  H    0.276104
    31  H    0.236601
    32  N    0.487969
    33  O   -0.460345
    34  O   -0.460547
 Sum of Mulliken charges =  -0.00000

 Dipole moment (field-independent basis, Debye):
    X=              5.0231    Y=             -1.6045    Z=             -1.2371  Tot=              5.4163
 Quadrupole moment (field-independent basis, Debye-Ang):
   XX=           -124.0335   YY=            -89.8963   ZZ=            -95.6269
   XY=              7.5002   XZ=              4.5677   YZ=              0.4915

 Normal termination of Gaussian 16 at Thu May  6 09:07:54 2021.
