 Gaussian 16, Revision A.03,
 Gaussian 16:  EM64L-G16RevA.03 25-Dec-2016

 -------------
 #p 6-31g* mp2
 -------------

 ------------------------------------------------------
 Input file generated by CHIRIPA (05-May-2021 14:57:23)
 ------------------------------------------------------
 Symbolic Z-matrix:
 Charge =  0 Multiplicity = 1

                         Standard orientation:
 ---------------------------------------------------------------------
 Center     Atomic      Atomic             Coordinates (Angstroms)
 Number     Number       Type             X           Y           Z
 ---------------------------------------------------------------------
      1          6           0       -2.066999   -1.271988    1.656476
      2          6           0       -3.261954   -1.937660    1.364100
      3          6           0       -4.210603   -1.355176    0.518330
      4          6           0       -3.930426   -0.100234   -0.020104
      5          6           0       -2.749177    0.588099    0.252183
      6          6           0       -1.814869   -0.013452    1.100564
      7          1           0       -1.335636   -1.731882    2.314504
      8          1           0       -3.460442   -2.915151    1.794400
      9          1           0       -5.143917   -1.848362    0.275204
     10          1           0       -2.579552    1.561506   -0.191805
     11          1           0       -0.887712    0.505839    1.325868
     12          7           0       -4.927127    0.526509   -0.916865
     13          8           0       -4.656452    1.632963   -1.378526
     14          8           0       -5.960144   -0.100571   -1.141105
     15          6           0        2.007196    1.791137    0.739183
     16          6           0        1.689834    0.880080   -0.273622
     17          6           0        2.656468   -0.004254   -0.761598
     18          6           0        3.936208    0.050044   -0.211500
     19          6           0        4.283161    0.946259    0.798309
     20          6           0        3.300566    1.821266    1.270980
     21          1           0        1.250092    2.474486    1.112311
     22          1           0        0.686208    0.854435   -0.688495
     23          1           0        2.437918   -0.719707   -1.545040
     24          1           0        5.292278    0.948159    1.192132
     25          1           0        3.549878    2.527743    2.057605
     26          7           0        4.967989   -0.881224   -0.719997
     27          8           0        6.088135   -0.813409   -0.218690
     28          8           0        4.637013   -1.661332   -1.610235
 ---------------------------------------------------------------------

 SCF Done:  E(RHF) =  -868.336879027     A.U. after   16 cycles
 E2 =    -0.2600688956D+01 EUMP2 =    -0.87093756798277D+03

 The electronic state is 1-A.
 Alpha  occ. eigenvalues --  -20.61332 -20.61319 -20.61306 -20.61301 -15.86387
 Alpha  occ. eigenvalues --  -15.86363 -11.31881 -11.31858 -11.28520 -11.28446
 Alpha  occ. eigenvalues --  -11.28433 -11.28395 -11.28294 -11.28157 -11.27532
 Alpha  occ. eigenvalues --  -11.27514 -11.27501 -11.27396  -1.60402  -1.60378
 Alpha  occ. eigenvalues --   -1.39953  -1.39927  -1.20076  -1.20037  -1.09470
 Alpha  occ. eigenvalues --   -1.09391  -1.05524  -1.05437  -0.96264  -0.96219
 Alpha  occ. eigenvalues --   -0.86967  -0.86781  -0.83090  -0.83053  -0.78175
 Alpha  occ. eigenvalues --   -0.78021  -0.72601  -0.72578  -0.71728  -0.71704
 Alpha  occ. eigenvalues --   -0.71214  -0.71115  -0.65828  -0.65699  -0.65654
 Alpha  occ. eigenvalues --   -0.65243  -0.62980  -0.62628  -0.56037  -0.55916
 Alpha  occ. eigenvalues --   -0.53943  -0.53801  -0.53591  -0.53375  -0.49371
 Alpha  occ. eigenvalues --   -0.49353  -0.49344  -0.49322  -0.45336  -0.45297
 Alpha  occ. eigenvalues --   -0.38125  -0.37975  -0.37189  -0.36957
 Alpha virt. eigenvalues --    0.04404   0.04428   0.10197   0.10790   0.15726
 Alpha virt. eigenvalues --    0.15897   0.19169   0.21814   0.25301   0.26573
 Alpha virt. eigenvalues --    0.27810   0.28811   0.29839   0.31076   0.32301

 Mulliken charges:
               1
     1  C   -0.171730
     2  C   -0.218049
     3  C   -0.169710
     4  C    0.159643
     5  C   -0.175435
     6  C   -0.223578
     7  H    0.229620
     8  H    0.226825
     9  H    0.278194
    10  H    0.272063
    11  H    0.221136
    12  N    0.488129
    13  O   -0.460851
    14  O   -0.457695
    15  C   -0.177181
    16  C   -0.222665
    17  C   -0.171655
    18  C    0.159065
    19  C   -0.170628
    20  C   -0.218031
    21  H    0.223300
    22  H    0.225607
    23  H    0.278895
    24  H    0.277910
    25  H    0.225922
    26  N    0.487855
    27  O   -0.458589
    28  O   -0.458369
 Sum of Mulliken charges =  -0.00000

 Dipole moment (field-independent basis, Debye):
    X=             -0.0709    Y=              0.8849    Z=              4.9497  Tot=              5.0287
 Quadrupole moment (field-independent basis, Debye-Ang):
   XX=           -156.2610   YY=           -100.8061   ZZ=           -104.6922
   XY=             25.8361   XZ=             -2.7362   YZ=             -0.0781

 Normal termination of Gaussian 16 at Thu May  6 01:49:01 2021.
