 Gaussian 16, Revision A.03,
 Gaussian 16:  EM64L-G16RevA.03 25-Dec-2016

 -------------
 #p 6-31g* mp2
 -------------

 ------------------------------------------------------
 Input file generated by CHIRIPA (05-May-2021 14:53:12)
 ------------------------------------------------------
 Symbolic Z-matrix:
 Charge =  0 Multiplicity = 1

                         Standard orientation:
 ---------------------------------------------------------------------
 Center     Atomic      Atomic             Coordinates (Angstroms)
 Number     Number       Type             X           Y           Z
 ---------------------------------------------------------------------
      1          6           0       -3.965774    0.619944   -0.342140
      2          6           0       -4.997793    1.665695    0.081328
      3          6           0       -4.913687    2.948334   -0.746656
      4          1           0       -2.958987    1.050440   -0.252711
      5          1           0       -4.110500    0.381533   -1.404971
      6          1           0       -4.852051    1.901043    1.143395
      7          1           0       -6.002229    1.232595   -0.008936
      8          1           0       -5.080795    2.733918   -1.807176
      9          1           0       -3.924082    3.406163   -0.648297
     10          1           0       -5.660243    3.682112   -0.427147
     11          6           0       -4.037351   -0.667935    0.476379
     12          6           0       -3.005333   -1.713687    0.052911
     13          6           0       -3.089438   -2.996326    0.880895
     14          1           0       -3.892625   -0.429524    1.539210
     15          1           0       -5.044138   -1.098432    0.386951
     16          1           0       -2.000896   -1.280587    0.143176
     17          1           0       -3.151074   -1.949034   -1.009156
     18          1           0       -4.079043   -3.454155    0.782536
     19          1           0       -2.922330   -2.781910    1.941415
     20          1           0       -2.342883   -3.730103    0.561387
     21          6           0        4.749164    1.863328    0.521582
     22          6           0        3.384102    2.026672    0.779350
     23          6           0        2.475789    1.011307    0.465427
     24          6           0        2.969321   -0.159580   -0.107931
     25          6           0        4.323507   -0.352277   -0.376885
     26          6           0        5.213692    0.676467   -0.054697
     27          1           0        5.447722    2.657285    0.768654
     28          1           0        3.020504    2.947329    1.226821
     29          1           0        1.413833    1.111331    0.654278
     30          1           0        4.656029   -1.281351   -0.823728
     31          1           0        6.273275    0.546842   -0.256006
     32          7           0        2.017326   -1.241585   -0.444642
     33          8           0        2.477399   -2.263583   -0.949112
     34          8           0        0.829106   -1.047173   -0.197711
 ---------------------------------------------------------------------

 SCF Done:  E(RHF) =  -669.535986223     A.U. after   15 cycles
 E2 =    -0.2090857232D+01 EUMP2 =    -0.67162684345535D+03

 The electronic state is 1-A.
 Alpha  occ. eigenvalues --  -20.60935 -20.60928 -15.85983 -11.31304 -11.27871
 Alpha  occ. eigenvalues --  -11.27863 -11.27604 -11.26876 -11.26866 -11.21133
 Alpha  occ. eigenvalues --  -11.20749 -11.20703 -11.20480 -11.20189 -11.19878
 Alpha  occ. eigenvalues --   -1.60000  -1.39557  -1.19472  -1.08875  -1.07621
 Alpha  occ. eigenvalues --   -1.04870  -1.02678  -0.95718  -0.95181  -0.86270
 Alpha  occ. eigenvalues --   -0.86208  -0.82555  -0.78782  -0.77616  -0.77341
 Alpha  occ. eigenvalues --   -0.72207  -0.71317  -0.70582  -0.65131  -0.64873
 Alpha  occ. eigenvalues --   -0.64261  -0.62219  -0.60076  -0.58578  -0.56741
 Alpha  occ. eigenvalues --   -0.55373  -0.54496  -0.53200  -0.52962  -0.51874
 Alpha  occ. eigenvalues --   -0.51599  -0.49174  -0.48962  -0.48951  -0.47078
 Alpha  occ. eigenvalues --   -0.45823  -0.44975  -0.44910  -0.44756  -0.42945
 Alpha  occ. eigenvalues --   -0.37450  -0.36471
 Alpha virt. eigenvalues --    0.04932   0.11184   0.16433   0.21258   0.23549
 Alpha virt. eigenvalues --    0.25146   0.26975   0.27390   0.27895   0.28628
 Alpha virt. eigenvalues --    0.28857   0.30906   0.32073   0.32309   0.32748

 Mulliken charges:
               1
     1  C   -0.296669
     2  C   -0.298925
     3  C   -0.474685
     4  H    0.148340
     5  H    0.149585
     6  H    0.149570
     7  H    0.151414
     8  H    0.155344
     9  H    0.152165
    10  H    0.158166
    11  C   -0.297788
    12  C   -0.308592
    13  C   -0.474856
    14  H    0.145419
    15  H    0.145862
    16  H    0.178116
    17  H    0.149507
    18  H    0.148592
    19  H    0.150536
    20  H    0.166168
    21  C   -0.170627
    22  C   -0.218461
    23  C   -0.170437
    24  C    0.157381
    25  C   -0.170502
    26  C   -0.218555
    27  H    0.226043
    28  H    0.223818
    29  H    0.274891
    30  H    0.275935
    31  H    0.223864
    32  N    0.496523
    33  O   -0.458986
    34  O   -0.468155
 Sum of Mulliken charges =  -0.00000

 Dipole moment (field-independent basis, Debye):
    X=              3.6711    Y=              3.7520    Z=              1.1325  Tot=              5.3700
 Quadrupole moment (field-independent basis, Debye-Ang):
   XX=            -72.8541   YY=            -95.9864   ZZ=            -95.1687
   XY=              8.9433   XZ=              2.3458   YZ=              1.5116

 Normal termination of Gaussian 16 at Wed May  5 23:23:35 2021.
