 Gaussian 16, Revision A.03,
 Gaussian 16:  EM64L-G16RevA.03 25-Dec-2016

 -------------
 #p 6-31g* mp2
 -------------

 ------------------------------------------------------
 Input file generated by CHIRIPA (05-May-2021 14:51:11)
 ------------------------------------------------------
 Symbolic Z-matrix:
 Charge =  0 Multiplicity = 1

                         Standard orientation:
 ---------------------------------------------------------------------
 Center     Atomic      Atomic             Coordinates (Angstroms)
 Number     Number       Type             X           Y           Z
 ---------------------------------------------------------------------
      1          6           0       -3.172879   -0.015452    0.116854
      2          6           0       -4.495752   -0.572188   -0.410439
      3          6           0       -4.649288   -2.072001   -0.155912
      4          1           0       -2.340872   -0.555939   -0.354933
      5          1           0       -3.103263   -0.214304    1.195282
      6          1           0       -4.563472   -0.371121   -1.487287
      7          1           0       -5.324703   -0.030183    0.062516
      8          1           0       -4.607788   -2.286935    0.916786
      9          1           0       -3.842231   -2.629810   -0.641822
     10          1           0       -5.601906   -2.449083   -0.540865
     11          6           0       -3.004708    1.482697   -0.130118
     12          6           0       -1.681835    2.039433    0.397174
     13          6           0       -1.528299    3.539246    0.142648
     14          1           0       -3.074324    1.681549   -1.208546
     15          1           0       -3.836715    2.023184    0.341669
     16          1           0       -0.852884    1.497428   -0.075780
     17          1           0       -1.614115    1.838366    1.474023
     18          1           0       -2.335356    4.097055    0.628558
     19          1           0       -1.569799    3.754180   -0.930051
     20          1           0       -0.575681    3.916328    0.527600
     21          6           0        2.459510   -1.042443   -0.296788
     22          6           0        1.650124   -1.872458    0.700184
     23          6           0        0.394177   -2.483724    0.078294
     24          1           0        1.822887   -0.243641   -0.701230
     25          1           0        2.742436   -1.677622   -1.147609
     26          1           0        1.369988   -1.236258    1.549531
     27          1           0        2.288803   -2.669259    1.102442
     28          1           0        0.658388   -3.140778   -0.756614
     29          1           0       -0.265647   -1.699636   -0.306985
     30          1           0       -0.169379   -3.072878    0.808474
     31          6           0        3.718077   -0.424802    0.310053
     32          6           0        4.527464    0.405213   -0.686920
     33          6           0        5.783411    1.016479   -0.065030
     34          1           0        3.435152    0.210377    1.160873
     35          1           0        4.354700   -1.223604    0.714494
     36          1           0        3.888784    1.202014   -1.089178
     37          1           0        4.807599   -0.230987   -1.536267
     38          1           0        6.443235    0.232391    0.320250
     39          1           0        5.519198    1.673533    0.769879
     40          1           0        6.346966    1.605633   -0.795210
 ---------------------------------------------------------------------

 SCF Done:  E(RHF) =  -470.733305550     A.U. after   11 cycles
 E2 =    -0.1583085124D+01 EUMP2 =    -0.47231639067418D+03

 The electronic state is 1-A.
 Alpha  occ. eigenvalues --  -11.21667 -11.21604 -11.21592 -11.21588 -11.21419
 Alpha  occ. eigenvalues --  -11.21411 -11.21351 -11.21347 -11.21121 -11.21072
 Alpha  occ. eigenvalues --  -11.21041 -11.21039  -1.08457  -1.08424  -1.03548
 Alpha  occ. eigenvalues --   -1.03523  -0.96006  -0.95963  -0.87027  -0.86976
 Alpha  occ. eigenvalues --   -0.79629  -0.79576  -0.78304  -0.78205  -0.65163
 Alpha  occ. eigenvalues --   -0.64991  -0.60953  -0.60917  -0.59372  -0.59331
 Alpha  occ. eigenvalues --   -0.57647  -0.57553  -0.55389  -0.55170  -0.52693
 Alpha  occ. eigenvalues --   -0.52665  -0.52479  -0.52347  -0.50051  -0.49825
 Alpha  occ. eigenvalues --   -0.47947  -0.47908  -0.46722  -0.46636  -0.45947
 Alpha  occ. eigenvalues --   -0.45758  -0.45736  -0.45399  -0.43801  -0.43780
 Alpha virt. eigenvalues --    0.20320   0.23093   0.23973   0.24121   0.25545
 Alpha virt. eigenvalues --    0.26759   0.27216   0.27491   0.27865   0.29341
 Alpha virt. eigenvalues --    0.30877   0.31595   0.31725   0.31847   0.32119

 Mulliken charges:
               1
     1  C   -0.305819
     2  C   -0.299066
     3  C   -0.476034
     4  H    0.157418
     5  H    0.149482
     6  H    0.151739
     7  H    0.151813
     8  H    0.155028
     9  H    0.156259
    10  H    0.160076
    11  C   -0.297835
    12  C   -0.301270
    13  C   -0.475668
    14  H    0.149448
    15  H    0.149903
    16  H    0.151816
    17  H    0.152102
    18  H    0.155595
    19  H    0.155374
    20  H    0.160074
    21  C   -0.299536
    22  C   -0.299125
    23  C   -0.482106
    24  H    0.149931
    25  H    0.149498
    26  H    0.152616
    27  H    0.151848
    28  H    0.154671
    29  H    0.160687
    30  H    0.160823
    31  C   -0.298278
    32  C   -0.299693
    33  C   -0.475706
    34  H    0.149762
    35  H    0.149721
    36  H    0.151916
    37  H    0.151874
    38  H    0.155187
    39  H    0.155215
    40  H    0.160259
 Sum of Mulliken charges =  -0.00000

 Dipole moment (field-independent basis, Debye):
    X=             -0.0126    Y=             -0.0031    Z=              0.0079  Tot=              0.0152
 Quadrupole moment (field-independent basis, Debye-Ang):
   XX=            -85.2596   YY=            -85.4682   ZZ=            -83.9985
   XY=             -1.2937   XZ=             -0.7932   YZ=              0.3638

 Normal termination of Gaussian 16 at Wed May  5 16:45:28 2021.
