 Gaussian 16, Revision A.03,
 Gaussian 16:  EM64L-G16RevA.03 25-Dec-2016

 -------------
 #p 6-31g* mp2
 -------------

 ------------------------------------------------------
 Input file generated by CHIRIPA (05-May-2021 14:53:12)
 ------------------------------------------------------
 Symbolic Z-matrix:
 Charge =  0 Multiplicity = 1

                         Standard orientation:
 ---------------------------------------------------------------------
 Center     Atomic      Atomic             Coordinates (Angstroms)
 Number     Number       Type             X           Y           Z
 ---------------------------------------------------------------------
      1          6           0       -3.695884    0.844408    0.138503
      2          6           0       -2.535076    1.144422   -0.810444
      3          6           0       -1.427733    1.965340   -0.148869
      4          1           0       -4.111438    1.791085    0.510071
      5          1           0       -3.312976    0.305309    1.016085
      6          1           0       -2.920280    1.681579   -1.686627
      7          1           0       -2.122360    0.196925   -1.179945
      8          1           0       -1.015960    1.432002    0.714029
      9          1           0       -1.818413    2.925091    0.204468
     10          1           0       -0.607970    2.168331   -0.845032
     11          6           0       -4.810767    0.024456   -0.508368
     12          6           0       -5.971575   -0.275558    0.440580
     13          6           0       -7.078917   -1.096476   -0.220995
     14          1           0       -5.193675    0.563555   -1.385949
     15          1           0       -4.395213   -0.922221   -0.879935
     16          1           0       -6.384291    0.671939    0.810080
     17          1           0       -5.586371   -0.812715    1.316763
     18          1           0       -6.688238   -2.056227   -0.574332
     19          1           0       -7.490691   -0.563138   -1.083894
     20          1           0       -7.898681   -1.299467    0.475168
     21          6           0        5.536131    0.660347   -0.539688
     22          6           0        5.153253   -0.593085   -1.028392
     23          6           0        3.929231   -1.156702   -0.656029
     24          6           0        3.108945   -0.436052    0.210621
     25          6           0        3.462339    0.814769    0.714454
     26          6           0        4.690942    1.359043    0.328644
     27          1           0        6.488759    1.090665   -0.834172
     28          1           0        5.807622   -1.137969   -1.702890
     29          1           0        3.608046   -2.125308   -1.019432
     30          1           0        2.788790    1.334037    1.385357
     31          1           0        4.985693    2.332659    0.709743
     32          7           0        1.810702   -1.022489    0.611943
     33          8           0        1.105962   -0.367417    1.376703
     34          8           0        1.522463   -2.126106    0.154139
 ---------------------------------------------------------------------

 SCF Done:  E(RHF) =  -669.536267150     A.U. after   15 cycles
 E2 =    -0.2090888111D+01 EUMP2 =    -0.67162715526029D+03

 The electronic state is 1-A.
 Alpha  occ. eigenvalues --  -20.60932 -20.60924 -15.85962 -11.31268 -11.27832
 Alpha  occ. eigenvalues --  -11.27824 -11.27570 -11.26838 -11.26827 -11.20929
 Alpha  occ. eigenvalues --  -11.20646 -11.20608 -11.20500 -11.20455 -11.19983
 Alpha  occ. eigenvalues --   -1.59989  -1.39546  -1.19436  -1.08844  -1.07596
 Alpha  occ. eigenvalues --   -1.04831  -1.02703  -0.95690  -0.95155  -0.86232
 Alpha  occ. eigenvalues --   -0.86179  -0.82524  -0.78786  -0.77579  -0.77400
 Alpha  occ. eigenvalues --   -0.72193  -0.71301  -0.70546  -0.65094  -0.64835
 Alpha  occ. eigenvalues --   -0.64213  -0.62178  -0.60078  -0.58554  -0.56777
 Alpha  occ. eigenvalues --   -0.55339  -0.54418  -0.53163  -0.52923  -0.51885
 Alpha  occ. eigenvalues --   -0.51586  -0.49121  -0.48951  -0.48899  -0.47104
 Alpha  occ. eigenvalues --   -0.45836  -0.45021  -0.44929  -0.44720  -0.42974
 Alpha  occ. eigenvalues --   -0.37415  -0.36432
 Alpha virt. eigenvalues --    0.04925   0.11220   0.16396   0.21329   0.23714
 Alpha virt. eigenvalues --    0.25130   0.27223   0.27489   0.28048   0.28360
 Alpha virt. eigenvalues --    0.28942   0.30890   0.32051   0.32469   0.32682

 Mulliken charges:
               1
     1  C   -0.299230
     2  C   -0.298020
     3  C   -0.484618
     4  H    0.145685
     5  H    0.156796
     6  H    0.145843
     7  H    0.156417
     8  H    0.179286
     9  H    0.147636
    10  H    0.150670
    11  C   -0.298252
    12  C   -0.299400
    13  C   -0.475378
    14  H    0.146405
    15  H    0.151723
    16  H    0.149950
    17  H    0.153590
    18  H    0.155538
    19  H    0.153457
    20  H    0.158465
    21  C   -0.170586
    22  C   -0.218611
    23  C   -0.170836
    24  C    0.158221
    25  C   -0.170426
    26  C   -0.218636
    27  H    0.225913
    28  H    0.223699
    29  H    0.275679
    30  H    0.276284
    31  H    0.223888
    32  N    0.489693
    33  O   -0.461209
    34  O   -0.459635
 Sum of Mulliken charges =  -0.00000

 Dipole moment (field-independent basis, Debye):
    X=              4.8021    Y=              1.9300    Z=             -1.3051  Tot=              5.3375
 Quadrupole moment (field-independent basis, Debye-Ang):
   XX=            -68.0384   YY=            -93.5919   ZZ=            -94.4959
   XY=              3.1113   XZ=             -4.6117   YZ=              3.4441

 Normal termination of Gaussian 16 at Thu May  6 12:01:01 2021.
