 Gaussian 16, Revision A.03,
 Gaussian 16:  EM64L-G16RevA.03 25-Dec-2016

 -------------
 #p 6-31g* mp2
 -------------

 ------------------------------------------------------
 Input file generated by CHIRIPA (05-May-2021 14:57:26)
 ------------------------------------------------------
 Symbolic Z-matrix:
 Charge =  0 Multiplicity = 1

                         Standard orientation:
 ---------------------------------------------------------------------
 Center     Atomic      Atomic             Coordinates (Angstroms)
 Number     Number       Type             X           Y           Z
 ---------------------------------------------------------------------
      1          6           0        2.198325    1.159570    0.724820
      2          6           0        3.232326    1.954698    0.219713
      3          6           0        4.449055    1.380271   -0.159961
      4          6           0        4.598170    0.001289   -0.020445
      5          6           0        3.586825   -0.817599    0.479449
      6          6           0        2.378556   -0.221606    0.852850
      7          1           0        1.256427    1.614175    1.017323
      8          1           0        3.095173    3.027604    0.119178
      9          1           0        5.266183    1.972289   -0.553959
     10          1           0        3.753226   -1.884315    0.568015
     11          1           0        1.577281   -0.841581    1.244812
     12          7           0        5.881788   -0.618246   -0.419068
     13          8           0        5.988101   -1.835502   -0.286316
     14          8           0        6.757269    0.125148   -0.856714
     15          6           0       -1.893787   -0.216021    0.327642
     16          6           0       -2.653994   -1.390127    0.318733
     17          6           0       -4.035912   -1.339667    0.113055
     18          6           0       -4.627611   -0.092508   -0.081303
     19          6           0       -3.897353    1.094926   -0.077914
     20          6           0       -2.516794    1.020579    0.129638
     21          1           0       -0.820807   -0.264497    0.488145
     22          1           0       -2.172843   -2.351883    0.472235
     23          1           0       -4.648400   -2.233054    0.101318
     24          1           0       -4.405269    2.038932   -0.233775
     25          1           0       -1.928918    1.934037    0.136049
     26          7           0       -6.089867   -0.026444   -0.300038
     27          8           0       -6.587278    1.084733   -0.468868
     28          8           0       -6.710883   -1.087092   -0.298510
 ---------------------------------------------------------------------

 SCF Done:  E(RHF) =  -868.335999514     A.U. after   16 cycles
 E2 =    -0.2600367745D+01 EUMP2 =    -0.87093636725943D+03

 The electronic state is 1-A.
 Alpha  occ. eigenvalues --  -20.61456 -20.61449 -20.61302 -20.61296 -15.86517
 Alpha  occ. eigenvalues --  -15.86361 -11.32078 -11.31880 -11.28707 -11.28641
 Alpha  occ. eigenvalues --  -11.28578 -11.28479 -11.28446 -11.28364 -11.27869
 Alpha  occ. eigenvalues --  -11.27713 -11.27608 -11.27537  -1.60526  -1.60374
 Alpha  occ. eigenvalues --   -1.40074  -1.39923  -1.20291  -1.20083  -1.09679
 Alpha  occ. eigenvalues --   -1.09476  -1.05723  -1.05507  -0.96475  -0.96276
 Alpha  occ. eigenvalues --   -0.87138  -0.86918  -0.83291  -0.83105  -0.78286
 Alpha  occ. eigenvalues --   -0.78099  -0.72736  -0.72579  -0.71851  -0.71698
 Alpha  occ. eigenvalues --   -0.71579  -0.71168  -0.65961  -0.65789  -0.65751
 Alpha  occ. eigenvalues --   -0.65509  -0.63067  -0.62849  -0.56308  -0.56112
 Alpha  occ. eigenvalues --   -0.54025  -0.53829  -0.53818  -0.53618  -0.49509
 Alpha  occ. eigenvalues --   -0.49473  -0.49350  -0.49321  -0.45435  -0.45293
 Alpha  occ. eigenvalues --   -0.38316  -0.38102  -0.37308  -0.37096
 Alpha virt. eigenvalues --    0.04252   0.04436   0.10203   0.10542   0.15662
 Alpha virt. eigenvalues --    0.15855   0.17352   0.22262   0.24004   0.25118
 Alpha virt. eigenvalues --    0.27612   0.29007   0.30222   0.30499   0.33170

 Mulliken charges:
               1
     1  C   -0.171892
     2  C   -0.217705
     3  C   -0.169151
     4  C    0.159458
     5  C   -0.169053
     6  C   -0.221245
     7  H    0.219598
     8  H    0.226098
     9  H    0.278967
    10  H    0.277887
    11  H    0.217271
    12  N    0.487941
    13  O   -0.458499
    14  O   -0.457604
    15  C   -0.173563
    16  C   -0.219326
    17  C   -0.169435
    18  C    0.159191
    19  C   -0.169465
    20  C   -0.219540
    21  H    0.220713
    22  H    0.224128
    23  H    0.278226
    24  H    0.277425
    25  H    0.218837
    26  N    0.487887
    27  O   -0.458893
    28  O   -0.458258
 Sum of Mulliken charges =  -0.00000

 Dipole moment (field-independent basis, Debye):
    X=              0.7245    Y=              1.9373    Z=              2.0794  Tot=              2.9329
 Quadrupole moment (field-independent basis, Debye-Ang):
   XX=           -192.0798   YY=            -95.5486   ZZ=           -106.3940
   XY=             13.0983   XZ=              1.9656   YZ=             -1.9616

 Normal termination of Gaussian 16 at Thu May  6 16:26:00 2021.
