 Gaussian 16, Revision A.03,
 Gaussian 16:  EM64L-G16RevA.03 25-Dec-2016

 -------------
 #p 6-31g* mp2
 -------------

 ------------------------------------------------------
 Input file generated by CHIRIPA (05-May-2021 14:55:25)
 ------------------------------------------------------
 Symbolic Z-matrix:
 Charge =  0 Multiplicity = 1

                         Standard orientation:
 ---------------------------------------------------------------------
 Center     Atomic      Atomic             Coordinates (Angstroms)
 Number     Number       Type             X           Y           Z
 ---------------------------------------------------------------------
      1          6           0       -3.989090   -1.881460    1.223324
      2          6           0       -4.520260   -1.506890   -0.015255
      3          6           0       -3.914844   -0.499231   -0.771987
      4          6           0       -2.774372    0.115517   -0.257498
      5          6           0       -2.221284   -0.235386    0.973052
      6          6           0       -2.843317   -1.245634    1.712661
      7          1           0       -4.465846   -2.665239    1.804521
      8          1           0       -5.409981   -1.998948   -0.397773
      9          1           0       -4.304996   -0.189582   -1.733921
     10          1           0       -1.333304    0.273387    1.328100
     11          1           0       -2.428596   -1.534468    2.674236
     12          7           0       -2.124649    1.183651   -1.049552
     13          8           0       -1.120788    1.709824   -0.574113
     14          8           0       -2.631560    1.474456   -2.130807
     15          6           0        4.270899   -0.415837    0.187257
     16          6           0        4.223413   -1.466492   -0.922631
     17          6           0        5.395632   -2.446160   -0.859806
     18          1           0        5.217361    0.137795    0.119088
     19          1           0        4.274676   -0.922492    1.162286
     20          1           0        4.218328   -0.957968   -1.895253
     21          1           0        3.276869   -2.017559   -0.851930
     22          1           0        5.401045   -2.979618    0.096225
     23          1           0        6.347852   -1.914006   -0.953026
     24          1           0        5.341881   -3.188508   -1.662233
     25          6           0        3.105624    0.570779    0.137754
     26          6           0        3.153109    1.621435    1.247643
     27          6           0        1.980890    2.601103    1.184817
     28          1           0        3.101845    1.077434   -0.837275
     29          1           0        2.159162    0.017147    0.205923
     30          1           0        4.099652    2.172501    1.176942
     31          1           0        3.158194    1.112909    2.220264
     32          1           0        1.028670    2.068949    1.278037
     33          1           0        1.975478    3.134560    0.228786
     34          1           0        2.034641    3.343451    1.987244
 ---------------------------------------------------------------------

 SCF Done:  E(RHF) =  -669.535613777     A.U. after   15 cycles
 E2 =    -0.2091368228D+01 EUMP2 =    -0.67162698200559D+03

 The electronic state is 1-A.
 Alpha  occ. eigenvalues --  -20.60853 -20.60846 -15.85893 -11.31261 -11.27840
 Alpha  occ. eigenvalues --  -11.27823 -11.27570 -11.26847 -11.26836 -11.21276
 Alpha  occ. eigenvalues --  -11.20984 -11.20975 -11.20837 -11.20774 -11.20079
 Alpha  occ. eigenvalues --   -1.59921  -1.39476  -1.19433  -1.08828  -1.07937
 Alpha  occ. eigenvalues --   -1.04838  -1.03003  -0.95670  -0.95423  -0.86436
 Alpha  occ. eigenvalues --   -0.86236  -0.82498  -0.79078  -0.77746  -0.77515
 Alpha  occ. eigenvalues --   -0.72118  -0.71237  -0.70543  -0.65090  -0.64845
 Alpha  occ. eigenvalues --   -0.64580  -0.62191  -0.60411  -0.58828  -0.57025
 Alpha  occ. eigenvalues --   -0.55338  -0.54717  -0.53165  -0.52931  -0.52138
 Alpha  occ. eigenvalues --   -0.51815  -0.49395  -0.48873  -0.48847  -0.47349
 Alpha  occ. eigenvalues --   -0.46121  -0.45259  -0.45197  -0.44859  -0.43269
 Alpha  occ. eigenvalues --   -0.37412  -0.36440
 Alpha virt. eigenvalues --    0.04986   0.11207   0.16481   0.20550   0.23050
 Alpha virt. eigenvalues --    0.24100   0.26113   0.27443   0.27611   0.28204
 Alpha virt. eigenvalues --    0.29197   0.30385   0.31547   0.32183   0.32420

 Mulliken charges:
               1
     1  C   -0.170479
     2  C   -0.218651
     3  C   -0.170560
     4  C    0.157372
     5  C   -0.171696
     6  C   -0.219693
     7  H    0.225885
     8  H    0.223737
     9  H    0.275841
    10  H    0.278287
    11  H    0.223920
    12  N    0.492337
    13  O   -0.464584
    14  O   -0.459865
    15  C   -0.297945
    16  C   -0.298940
    17  C   -0.475314
    18  H    0.149175
    19  H    0.145747
    20  H    0.153895
    21  H    0.149955
    22  H    0.153243
    23  H    0.155197
    24  H    0.159241
    25  C   -0.295733
    26  C   -0.301063
    27  C   -0.477253
    28  H    0.154940
    29  H    0.147132
    30  H    0.149903
    31  H    0.144731
    32  H    0.163909
    33  H    0.163997
    34  H    0.153329
 Sum of Mulliken charges =  -0.00000

 Dipole moment (field-independent basis, Debye):
    X=             -2.4640    Y=             -3.6812    Z=              2.6609  Tot=              5.1675
 Quadrupole moment (field-independent basis, Debye-Ang):
   XX=            -80.8654   YY=            -96.5520   ZZ=            -93.8813
   XY=             12.0336   XZ=             -5.0503   YZ=              0.9343

 Normal termination of Gaussian 16 at Thu May  6 11:04:44 2021.
