 Gaussian 16, Revision A.03,
 Gaussian 16:  EM64L-G16RevA.03 25-Dec-2016

 -------------
 #p 6-31g* mp2
 -------------

 ------------------------------------------------------
 Input file generated by CHIRIPA (05-May-2021 14:53:12)
 ------------------------------------------------------
 Symbolic Z-matrix:
 Charge =  0 Multiplicity = 1

                         Standard orientation:
 ---------------------------------------------------------------------
 Center     Atomic      Atomic             Coordinates (Angstroms)
 Number     Number       Type             X           Y           Z
 ---------------------------------------------------------------------
      1          6           0        2.814565   -0.416947   -0.142664
      2          6           0        3.704795   -1.635376   -0.389456
      3          6           0        2.939340   -2.955598   -0.295179
      4          1           0        2.351685   -0.503991    0.849864
      5          1           0        1.992727   -0.418252   -0.872031
      6          1           0        4.525492   -1.631022    0.339279
      7          1           0        4.165759   -1.545327   -1.381433
      8          1           0        2.130959   -2.985736   -1.032887
      9          1           0        2.492735   -3.071918    0.697602
     10          1           0        3.594831   -3.813431   -0.474938
     11          6           0        3.565437    0.910329   -0.233540
     12          6           0        2.675207    2.128758    0.013252
     13          6           0        3.440662    3.448980   -0.081025
     14          1           0        4.387274    0.911634    0.495827
     15          1           0        4.028316    0.997373   -1.226067
     16          1           0        2.214242    2.038709    1.005229
     17          1           0        1.854510    2.124404   -0.715483
     18          1           0        3.887267    3.565300   -1.073806
     19          1           0        4.249043    3.479118    0.656683
     20          1           0        2.785170    4.306813    0.098734
     21          6           0       -0.717254   -1.871243    0.777918
     22          6           0       -1.786716   -2.256345   -0.037230
     23          6           0       -2.775898   -1.334736   -0.393181
     24          6           0       -2.663782   -0.030455    0.085956
     25          6           0       -1.610410    0.383701    0.899695
     26          6           0       -0.632663   -0.554770    1.242959
     27          1           0        0.046726   -2.593721    1.049502
     28          1           0       -1.854985   -3.278056   -0.399850
     29          1           0       -3.614569   -1.605983   -1.022842
     30          1           0       -1.569485    1.409360    1.245769
     31          1           0        0.196771   -0.252876    1.876161
     32          7           0       -3.704932    0.954138   -0.284158
     33          8           0       -3.583254    2.097160    0.150965
     34          8           0       -4.622950    0.564196   -1.002368
 ---------------------------------------------------------------------

 SCF Done:  E(RHF) =  -669.534323800     A.U. after   15 cycles
 E2 =    -0.2093573462D+01 EUMP2 =    -0.67162789726118D+03

 The electronic state is 1-A.
 Alpha  occ. eigenvalues --  -20.60709 -20.60703 -15.85761 -11.31103 -11.27671
 Alpha  occ. eigenvalues --  -11.27652 -11.27350 -11.26680 -11.26641 -11.22464
 Alpha  occ. eigenvalues --  -11.22204 -11.22195 -11.22187 -11.22016 -11.21477
 Alpha  occ. eigenvalues --   -1.59785  -1.39339  -1.19273  -1.09195  -1.08660
 Alpha  occ. eigenvalues --   -1.04674  -1.04277  -0.96737  -0.95506  -0.87758
 Alpha  occ. eigenvalues --   -0.86078  -0.82343  -0.80357  -0.79016  -0.77385
 Alpha  occ. eigenvalues --   -0.71980  -0.71109  -0.70375  -0.65858  -0.64919
 Alpha  occ. eigenvalues --   -0.64661  -0.62035  -0.61670  -0.60110  -0.58368
 Alpha  occ. eigenvalues --   -0.56069  -0.55155  -0.53427  -0.53166  -0.52983
 Alpha  occ. eigenvalues --   -0.52754  -0.50678  -0.48738  -0.48737  -0.48652
 Alpha  occ. eigenvalues --   -0.47383  -0.46523  -0.46408  -0.44750  -0.44513
 Alpha  occ. eigenvalues --   -0.37194  -0.36250
 Alpha virt. eigenvalues --    0.05112   0.11317   0.16513   0.19458   0.22615
 Alpha virt. eigenvalues --    0.23156   0.24847   0.25917   0.26507   0.28604
 Alpha virt. eigenvalues --    0.29316   0.30723   0.31048   0.31485   0.31711

 Mulliken charges:
               1
     1  C   -0.299477
     2  C   -0.299518
     3  C   -0.479102
     4  H    0.138532
     5  H    0.156768
     6  H    0.153819
     7  H    0.156400
     8  H    0.156800
     9  H    0.145648
    10  H    0.165380
    11  C   -0.298910
    12  C   -0.300056
    13  C   -0.476267
    14  H    0.150041
    15  H    0.152896
    16  H    0.144216
    17  H    0.156494
    18  H    0.157411
    19  H    0.155354
    20  H    0.163571
    21  C   -0.171688
    22  C   -0.221275
    23  C   -0.171220
    24  C    0.158016
    25  C   -0.172880
    26  C   -0.216439
    27  H    0.231143
    28  H    0.223366
    29  H    0.275087
    30  H    0.275316
    31  H    0.224051
    32  N    0.488029
    33  O   -0.460699
    34  O   -0.460810
 Sum of Mulliken charges =  -0.00000

 Dipole moment (field-independent basis, Debye):
    X=              3.8492    Y=             -3.4060    Z=              1.1624  Tot=              5.2695
 Quadrupole moment (field-independent basis, Debye-Ang):
   XX=           -113.5584   YY=            -93.2617   ZZ=            -92.7472
   XY=             10.7821   XZ=             -1.8998   YZ=              1.8331

 Normal termination of Gaussian 16 at Wed May  5 18:32:23 2021.
