 Gaussian 16, Revision A.03,
 Gaussian 16:  EM64L-G16RevA.03 25-Dec-2016

 -------------
 #p 6-31g* mp2
 -------------

 ------------------------------------------------------
 Input file generated by CHIRIPA (05-May-2021 14:55:23)
 ------------------------------------------------------
 Symbolic Z-matrix:
 Charge =  0 Multiplicity = 1

                         Standard orientation:
 ---------------------------------------------------------------------
 Center     Atomic      Atomic             Coordinates (Angstroms)
 Number     Number       Type             X           Y           Z
 ---------------------------------------------------------------------
      1          6           0       -4.907280    2.007123   -0.358778
      2          6           0       -4.922394    0.923523   -1.243144
      3          6           0       -4.116163   -0.194577   -1.009920
      4          6           0       -3.303289   -0.195560    0.122565
      5          6           0       -3.266034    0.868578    1.022295
      6          6           0       -4.080605    1.976246    0.769131
      7          1           0       -5.536819    2.871638   -0.547697
      8          1           0       -5.563404    0.944748   -2.119899
      9          1           0       -4.108278   -1.047122   -1.678144
     10          1           0       -2.616555    0.818398    1.887787
     11          1           0       -4.066815    2.816353    1.457663
     12          7           0       -2.445353   -1.373720    0.380024
     13          8           0       -1.738064   -1.350083    1.384922
     14          8           0       -2.496438   -2.298491   -0.427953
     15          6           0        5.158030   -0.075086   -0.232096
     16          6           0        5.960180    1.188782    0.079641
     17          6           0        7.456616    1.019360   -0.184494
     18          1           0        5.546574   -0.906558    0.371753
     19          1           0        5.316700   -0.351622   -1.283640
     20          1           0        5.798949    1.463637    1.129915
     21          1           0        5.569556    2.017386   -0.524879
     22          1           0        7.636390    0.768024   -1.234786
     23          1           0        7.867085    0.211129    0.429410
     24          1           0        8.010953    1.934737    0.044978
     25          6           0        3.660368    0.078631    0.026955
     26          6           0        2.858219   -1.185237   -0.284781
     27          6           0        1.361781   -1.015816   -0.020647
     28          1           0        3.501699    0.355167    1.078500
     29          1           0        3.271824    0.910103   -0.576893
     30          1           0        3.248842   -2.013841    0.319738
     31          1           0        3.019449   -1.460093   -1.335055
     32          1           0        0.951312   -0.207585   -0.634550
     33          1           0        1.182009   -0.764479    1.029645
     34          1           0        0.807444   -1.931191   -0.250118
 ---------------------------------------------------------------------

 SCF Done:  E(RHF) =  -669.536001349     A.U. after   15 cycles
 E2 =    -0.2091435820D+01 EUMP2 =    -0.67162743716915D+03

 The electronic state is 1-A.
 Alpha  occ. eigenvalues --  -20.60863 -20.60837 -15.85871 -11.31228 -11.27794
 Alpha  occ. eigenvalues --  -11.27790 -11.27538 -11.26809 -11.26799 -11.21206
 Alpha  occ. eigenvalues --  -11.20854 -11.20745 -11.20709 -11.20622 -11.19690
 Alpha  occ. eigenvalues --   -1.59901  -1.39458  -1.19397  -1.08796  -1.07792
 Alpha  occ. eigenvalues --   -1.04799  -1.02804  -0.95640  -0.95224  -0.86246
 Alpha  occ. eigenvalues --   -0.86195  -0.82470  -0.78899  -0.77594  -0.77514
 Alpha  occ. eigenvalues --   -0.72099  -0.71202  -0.70508  -0.65054  -0.64804
 Alpha  occ. eigenvalues --   -0.64434  -0.62146  -0.60210  -0.58639  -0.56830
 Alpha  occ. eigenvalues --   -0.55305  -0.54531  -0.53133  -0.52892  -0.51877
 Alpha  occ. eigenvalues --   -0.51666  -0.49217  -0.48857  -0.48823  -0.47208
 Alpha  occ. eigenvalues --   -0.45969  -0.45193  -0.45074  -0.44711  -0.43017
 Alpha  occ. eigenvalues --   -0.37375  -0.36401
 Alpha virt. eigenvalues --    0.04991   0.11253   0.16471   0.21375   0.23450
 Alpha virt. eigenvalues --    0.25074   0.27225   0.27297   0.28034   0.28189
 Alpha virt. eigenvalues --    0.28857   0.30940   0.32049   0.32291   0.32584

 Mulliken charges:
               1
     1  C   -0.170717
     2  C   -0.218617
     3  C   -0.170924
     4  C    0.159311
     5  C   -0.170502
     6  C   -0.218617
     7  H    0.225719
     8  H    0.223549
     9  H    0.275688
    10  H    0.275664
    11  H    0.223590
    12  N    0.489187
    13  O   -0.457770
    14  O   -0.461042
    15  C   -0.297547
    16  C   -0.298971
    17  C   -0.475310
    18  H    0.149573
    19  H    0.148497
    20  H    0.151070
    21  H    0.150271
    22  H    0.154626
    23  H    0.155125
    24  H    0.158543
    25  C   -0.297207
    26  C   -0.301295
    27  C   -0.476641
    28  H    0.148244
    29  H    0.146194
    30  H    0.151750
    31  H    0.148318
    32  H    0.142066
    33  H    0.162226
    34  H    0.175948
 Sum of Mulliken charges =  -0.00000

 Dipole moment (field-independent basis, Debye):
    X=             -3.2728    Y=              4.0459    Z=             -0.8261  Tot=              5.2691
 Quadrupole moment (field-independent basis, Debye-Ang):
   XX=            -76.9669   YY=            -95.7914   ZZ=            -90.8938
   XY=            -12.8238   XZ=              4.8259   YZ=              2.4331

 Normal termination of Gaussian 16 at Thu May  6 12:36:11 2021.
