 Gaussian 16, Revision A.03,
 Gaussian 16:  EM64L-G16RevA.03 25-Dec-2016

 -------------
 #p 6-31g* mp2
 -------------

 ------------------------------------------------------
 Input file generated by CHIRIPA (05-May-2021 14:53:12)
 ------------------------------------------------------
 Symbolic Z-matrix:
 Charge =  0 Multiplicity = 1

                         Standard orientation:
 ---------------------------------------------------------------------
 Center     Atomic      Atomic             Coordinates (Angstroms)
 Number     Number       Type             X           Y           Z
 ---------------------------------------------------------------------
      1          6           0        3.662189    0.875136   -0.234707
      2          6           0        3.122794    2.141841    0.430496
      3          6           0        3.813001    3.411532   -0.068796
      4          1           0        4.742833    0.803486   -0.050261
      5          1           0        3.535712    0.958579   -1.323025
      6          1           0        3.248989    2.055441    1.517338
      7          1           0        2.043274    2.210384    0.244607
      8          1           0        3.676043    3.525093   -1.149050
      9          1           0        4.888609    3.369270    0.130912
     10          1           0        3.412076    4.305062    0.419797
     11          6           0        2.982052   -0.402450    0.254084
     12          6           0        3.521448   -1.669155   -0.411118
     13          6           0        2.831240   -2.938846    0.088174
     14          1           0        3.108529   -0.485893    1.342402
     15          1           0        1.901408   -0.330800    0.069639
     16          1           0        4.600968   -1.737698   -0.225230
     17          1           0        3.395252   -1.582755   -1.497960
     18          1           0        1.755633   -2.896584   -0.111535
     19          1           0        2.968199   -3.052407    1.168427
     20          1           0        3.232166   -3.832376   -0.400419
     21          6           0       -1.208728   -2.289829    0.098438
     22          6           0       -1.648397   -1.681060    1.278528
     23          6           0       -2.417280   -0.514362    1.231776
     24          6           0       -2.729466    0.018879   -0.017818
     25          6           0       -2.306290   -0.564270   -1.211195
     26          6           0       -1.538496   -1.730477   -1.140473
     27          1           0       -0.611865   -3.195957    0.144066
     28          1           0       -1.393809   -2.113235    2.242092
     29          1           0       -2.770785   -0.022440    2.129810
     30          1           0       -2.576030   -0.110014   -2.156875
     31          1           0       -1.198419   -2.201093   -2.058576
     32          7           0       -3.542871    1.253749   -0.080000
     33          8           0       -3.804438    1.703744   -1.193429
     34          8           0       -3.903449    1.748265    0.985868
 ---------------------------------------------------------------------

 SCF Done:  E(RHF) =  -669.535504762     A.U. after   15 cycles
 E2 =    -0.2091869699D+01 EUMP2 =    -0.67162737446084D+03

 The electronic state is 1-A.
 Alpha  occ. eigenvalues --  -20.60809 -20.60804 -15.85863 -11.31246 -11.27816
 Alpha  occ. eigenvalues --  -11.27805 -11.27550 -11.26849 -11.26824 -11.22194
 Alpha  occ. eigenvalues --  -11.21933 -11.21777 -11.21750 -11.21637 -11.21143
 Alpha  occ. eigenvalues --   -1.59884  -1.39437  -1.19423  -1.08833  -1.08784
 Alpha  occ. eigenvalues --   -1.04824  -1.03932  -0.96401  -0.95645  -0.87424
 Alpha  occ. eigenvalues --   -0.86219  -0.82477  -0.80009  -0.78577  -0.77517
 Alpha  occ. eigenvalues --   -0.72080  -0.71208  -0.70552  -0.65434  -0.65073
 Alpha  occ. eigenvalues --   -0.64822  -0.62167  -0.61340  -0.59780  -0.58000
 Alpha  occ. eigenvalues --   -0.55845  -0.55212  -0.53171  -0.53092  -0.52912
 Alpha  occ. eigenvalues --   -0.52799  -0.50343  -0.48841  -0.48834  -0.48313
 Alpha  occ. eigenvalues --   -0.47028  -0.46127  -0.46024  -0.44838  -0.44163
 Alpha  occ. eigenvalues --   -0.37368  -0.36426
 Alpha virt. eigenvalues --    0.04974   0.11213   0.16345   0.20680   0.22638
 Alpha virt. eigenvalues --    0.24082   0.26000   0.26528   0.27263   0.27328
 Alpha virt. eigenvalues --    0.28815   0.30484   0.31182   0.31590   0.32268

 Mulliken charges:
               1
     1  C   -0.298447
     2  C   -0.300254
     3  C   -0.475992
     4  H    0.149828
     5  H    0.149671
     6  H    0.151590
     7  H    0.154327
     8  H    0.155795
     9  H    0.154653
    10  H    0.162528
    11  C   -0.301138
    12  C   -0.298682
    13  C   -0.479364
    14  H    0.148608
    15  H    0.153045
    16  H    0.154466
    17  H    0.151773
    18  H    0.146635
    19  H    0.156034
    20  H    0.161505
    21  C   -0.170079
    22  C   -0.219046
    23  C   -0.170971
    24  C    0.158646
    25  C   -0.171185
    26  C   -0.220350
    27  H    0.228745
    28  H    0.224429
    29  H    0.275922
    30  H    0.275768
    31  H    0.223995
    32  N    0.488027
    33  O   -0.460357
    34  O   -0.460124
 Sum of Mulliken charges =  -0.00000

 Dipole moment (field-independent basis, Debye):
    X=              2.8800    Y=             -4.2734    Z=              0.2380  Tot=              5.1587
 Quadrupole moment (field-independent basis, Debye-Ang):
   XX=           -110.7733   YY=            -96.6611   ZZ=            -89.2513
   XY=             11.6944   XZ=             -0.3205   YZ=              0.3563

 Normal termination of Gaussian 16 at Thu May  6 11:58:39 2021.
