 Gaussian 16, Revision A.03,
 Gaussian 16:  EM64L-G16RevA.03 25-Dec-2016

 -------------
 #p 6-31g* mp2
 -------------

 ------------------------------------------------------
 Input file generated by CHIRIPA (05-May-2021 14:57:25)
 ------------------------------------------------------
 Symbolic Z-matrix:
 Charge =  0 Multiplicity = 1

                         Standard orientation:
 ---------------------------------------------------------------------
 Center     Atomic      Atomic             Coordinates (Angstroms)
 Number     Number       Type             X           Y           Z
 ---------------------------------------------------------------------
      1          6           0        1.762510    2.486026    0.601044
      2          6           0        1.882942    1.471849    1.556795
      3          6           0        2.593809    0.303520    1.266582
      4          6           0        3.174141    0.182064    0.004935
      5          6           0        3.071869    1.174703   -0.968460
      6          6           0        2.356311    2.334483   -0.656317
      7          1           0        1.208469    3.390291    0.835006
      8          1           0        1.422832    1.586807    2.534102
      9          1           0        2.702677   -0.497338    1.987826
     10          1           0        3.541530    1.031328   -1.934007
     11          1           0        2.264421    3.120460   -1.400523
     12          7           0        3.929187   -1.050269   -0.313909
     13          8           0        4.431173   -1.132975   -1.432751
     14          8           0        4.004710   -1.910130    0.561061
     15          6           0       -1.145752   -2.020709    0.199248
     16          6           0       -2.466851   -2.480202    0.190004
     17          6           0       -3.529657   -1.583023    0.048365
     18          6           0       -3.233766   -0.227049   -0.082304
     19          6           0       -1.928204    0.261590   -0.076828
     20          6           0       -0.881112   -0.653689    0.066039
     21          1           0       -0.326243   -2.724689    0.309753
     22          1           0       -2.675354   -3.541290    0.293267
     23          1           0       -4.561832   -1.911540    0.037913
     24          1           0       -1.751761    1.325203   -0.181764
     25          1           0        0.143882   -0.293989    0.072873
     26          7           0       -4.350594    0.732336   -0.232900
     27          8           0       -4.063402    1.921995   -0.346333
     28          8           0       -5.492008    0.276475   -0.234652
 ---------------------------------------------------------------------

 SCF Done:  E(RHF) =  -868.337855115     A.U. after   16 cycles
 E2 =    -0.2602233838D+01 EUMP2 =    -0.87094008895280D+03

 The electronic state is 1-A.
 Alpha  occ. eigenvalues --  -20.61782 -20.61755 -20.60949 -20.60929 -15.86826
 Alpha  occ. eigenvalues --  -15.85989 -11.32318 -11.31258 -11.28829 -11.28809
 Alpha  occ. eigenvalues --  -11.28520 -11.27836 -11.27820 -11.27803 -11.27780
 Alpha  occ. eigenvalues --  -11.27429 -11.26767 -11.26609  -1.60850  -1.60018
 Alpha  occ. eigenvalues --   -1.40396  -1.39575  -1.20504  -1.19392  -1.09832
 Alpha  occ. eigenvalues --   -1.08795  -1.05869  -1.04771  -0.96645  -0.95656
 Alpha  occ. eigenvalues --   -0.87223  -0.86178  -0.83444  -0.82490  -0.78499
 Alpha  occ. eigenvalues --   -0.77577  -0.73023  -0.72220  -0.72186  -0.71483
 Alpha  occ. eigenvalues --   -0.71340  -0.70480  -0.66079  -0.65778  -0.65031
 Alpha  occ. eigenvalues --   -0.64815  -0.63156  -0.62197  -0.56271  -0.55328
 Alpha  occ. eigenvalues --   -0.54353  -0.53877  -0.53122  -0.52544  -0.49798
 Alpha  occ. eigenvalues --   -0.49781  -0.48975  -0.48946  -0.45771  -0.45003
 Alpha  occ. eigenvalues --   -0.38497  -0.37610  -0.37284  -0.36307
 Alpha virt. eigenvalues --    0.03978   0.04946   0.10114   0.11248   0.15434
 Alpha virt. eigenvalues --    0.16511   0.20488   0.21656   0.26500   0.26975
 Alpha virt. eigenvalues --    0.27627   0.28538   0.30297   0.31236   0.31763

 Mulliken charges:
               1
     1  C   -0.177252
     2  C   -0.219028
     3  C   -0.189013
     4  C    0.158785
     5  C   -0.172369
     6  C   -0.217715
     7  H    0.233604
     8  H    0.230546
     9  H    0.277686
    10  H    0.279924
    11  H    0.230410
    12  N    0.487652
    13  O   -0.455836
    14  O   -0.460750
    15  C   -0.176221
    16  C   -0.218091
    17  C   -0.172155
    18  C    0.159437
    19  C   -0.177074
    20  C   -0.225930
    21  H    0.231066
    22  H    0.224676
    23  H    0.275339
    24  H    0.268811
    25  H    0.238731
    26  N    0.488246
    27  O   -0.463926
    28  O   -0.459552
 Sum of Mulliken charges =  -0.00000

 Dipole moment (field-independent basis, Debye):
    X=              1.5916    Y=              1.0458    Z=              1.6317  Tot=              2.5079
 Quadrupole moment (field-independent basis, Debye-Ang):
   XX=           -145.7164   YY=            -98.3506   ZZ=           -101.4047
   XY=             27.2148   XZ=              0.1002   YZ=             -1.6714

 Normal termination of Gaussian 16 at Fri May  7 00:22:43 2021.
