 Gaussian 16, Revision A.03,
 Gaussian 16:  EM64L-G16RevA.03 25-Dec-2016

 -------------
 #p 6-31g* mp2
 -------------

 ------------------------------------------------------
 Input file generated by CHIRIPA (05-May-2021 14:57:27)
 ------------------------------------------------------
 Symbolic Z-matrix:
 Charge =  0 Multiplicity = 1

                         Standard orientation:
 ---------------------------------------------------------------------
 Center     Atomic      Atomic             Coordinates (Angstroms)
 Number     Number       Type             X           Y           Z
 ---------------------------------------------------------------------
      1          6           0        3.871342    2.494879    0.513886
      2          6           0        2.972351    1.713885    1.247633
      3          6           0        2.826361    0.351120    0.971759
      4          6           0        3.598671   -0.200438   -0.049325
      5          6           0        4.502832    0.551340   -0.798065
      6          6           0        4.632372    1.912141   -0.504825
      7          1           0        3.978361    3.552744    0.734936
      8          1           0        2.380023    2.163761    2.039343
      9          1           0        2.137870   -0.276744    1.524193
     10          1           0        5.079575    0.074583   -1.581319
     11          1           0        5.331324    2.516234   -1.076299
     12          7           0        3.452825   -1.642097   -0.350572
     13          8           0        4.144813   -2.104129   -1.255181
     14          8           0        2.649286   -2.282739    0.323623
     15          6           0       -1.295278   -0.696856    0.716475
     16          6           0       -1.500450   -0.099594   -0.531605
     17          6           0       -2.785679    0.270035   -0.939170
     18          6           0       -3.847715    0.026612   -0.069622
     19          6           0       -3.675505   -0.566648    1.180048
     20          6           0       -2.381545   -0.928069    1.566819
     21          1           0       -0.293490   -0.980805    1.025004
     22          1           0       -0.658712    0.081177   -1.194059
     23          1           0       -2.972935    0.734008   -1.899941
     24          1           0       -4.534314   -0.734123    1.818653
     25          1           0       -2.225185   -1.391743    2.536666
     26          7           0       -5.212950    0.413577   -0.490086
     27          8           0       -6.131954    0.188375    0.294359
     28          8           0       -5.338168    0.934755   -1.596129
 ---------------------------------------------------------------------

 SCF Done:  E(RHF) =  -868.338289954     A.U. after   16 cycles
 E2 =    -0.2599731414D+01 EUMP2 =    -0.87093802136845D+03

 The electronic state is 1-A.
 Alpha  occ. eigenvalues --  -20.61839 -20.61790 -20.60681 -20.60676 -15.86853
 Alpha  occ. eigenvalues --  -15.85734 -11.32175 -11.31069 -11.28796 -11.28647
 Alpha  occ. eigenvalues --  -11.28357 -11.27706 -11.27642 -11.27636 -11.27631
 Alpha  occ. eigenvalues --  -11.27329 -11.26634 -11.26618  -1.60880  -1.59758
 Alpha  occ. eigenvalues --   -1.40440  -1.39312  -1.20314  -1.19235  -1.09700
 Alpha  occ. eigenvalues --   -1.08629  -1.05703  -1.04634  -0.96554  -0.95470
 Alpha  occ. eigenvalues --   -0.87100  -0.86028  -0.83384  -0.82307  -0.78468
 Alpha  occ. eigenvalues --   -0.77363  -0.73068  -0.72205  -0.71952  -0.71417
 Alpha  occ. eigenvalues --   -0.71081  -0.70315  -0.65954  -0.65683  -0.64883
 Alpha  occ. eigenvalues --   -0.64632  -0.63062  -0.61984  -0.56169  -0.55119
 Alpha  occ. eigenvalues --   -0.54030  -0.53754  -0.52964  -0.52721  -0.49841
 Alpha  occ. eigenvalues --   -0.49805  -0.48709  -0.48707  -0.45846  -0.44725
 Alpha  occ. eigenvalues --   -0.38260  -0.37342  -0.37165  -0.36243
 Alpha virt. eigenvalues --    0.04031   0.05167   0.10275   0.11416   0.15594
 Alpha virt. eigenvalues --    0.16644   0.19528   0.21774   0.25216   0.26991
 Alpha virt. eigenvalues --    0.27412   0.28890   0.30293   0.30858   0.32549

 Mulliken charges:
               1
     1  C   -0.170502
     2  C   -0.217780
     3  C   -0.177627
     4  C    0.157764
     5  C   -0.170746
     6  C   -0.217696
     7  H    0.229593
     8  H    0.226592
     9  H    0.270662
    10  H    0.278158
    11  H    0.227258
    12  N    0.488529
    13  O   -0.454150
    14  O   -0.467562
    15  C   -0.177418
    16  C   -0.219702
    17  C   -0.171341
    18  C    0.158174
    19  C   -0.171025
    20  C   -0.220134
    21  H    0.234820
    22  H    0.223971
    23  H    0.274961
    24  H    0.275111
    25  H    0.223728
    26  N    0.488065
    27  O   -0.460784
    28  O   -0.460921
 Sum of Mulliken charges =  -0.00000

 Dipole moment (field-independent basis, Debye):
    X=              5.6434    Y=              3.8189    Z=              2.4603  Tot=              7.2446
 Quadrupole moment (field-independent basis, Debye-Ang):
   XX=           -135.1772   YY=           -107.2461   ZZ=            -99.2729
   XY=             25.3541   XZ=             -7.2435   YZ=             -2.2504

 Normal termination of Gaussian 16 at Wed May  5 18:03:24 2021.
