 Gaussian 16, Revision A.03,
 Gaussian 16:  EM64L-G16RevA.03 25-Dec-2016

 -------------
 #p 6-31g* mp2
 -------------

 ------------------------------------------------------
 Input file generated by CHIRIPA (05-May-2021 14:53:13)
 ------------------------------------------------------
 Symbolic Z-matrix:
 Charge =  0 Multiplicity = 1

                         Standard orientation:
 ---------------------------------------------------------------------
 Center     Atomic      Atomic             Coordinates (Angstroms)
 Number     Number       Type             X           Y           Z
 ---------------------------------------------------------------------
      1          6           0        3.397370   -0.244759   -0.364104
      2          6           0        2.341125   -1.287056    0.004607
      3          6           0        1.015781   -1.069702   -0.726155
      4          1           0        3.010324    0.757387   -0.134225
      5          1           0        3.567068   -0.272928   -1.449371
      6          1           0        2.174475   -1.257883    1.089039
      7          1           0        2.730805   -2.286850   -0.225998
      8          1           0        1.160855   -1.119643   -1.810157
      9          1           0        0.601364   -0.084829   -0.487648
     10          1           0        0.275136   -1.825891   -0.447797
     11          6           0        4.727844   -0.448739    0.358363
     12          6           0        5.784088    0.593558   -0.010348
     13          6           0        7.109432    0.376204    0.720414
     14          1           0        4.558145   -0.420570    1.443630
     15          1           0        5.114889   -1.450885    0.128484
     16          1           0        5.394408    1.593352    0.220257
     17          1           0        5.950738    0.564385   -1.094780
     18          1           0        7.523850   -0.608669    0.481907
     19          1           0        6.964358    0.426145    1.804416
     20          1           0        7.850077    1.132393    0.442056
     21          6           0       -4.235916   -1.987180    0.375276
     22          6           0       -3.180290   -1.851442   -0.532331
     23          6           0       -2.584309   -0.605137   -0.746992
     24          6           0       -3.071241    0.489201   -0.033821
     25          6           0       -4.121358    0.386069    0.877171
     26          6           0       -4.702259   -0.869962    1.075895
     27          1           0       -4.693031   -2.959117    0.535840
     28          1           0       -2.816061   -2.717352   -1.077840
     29          1           0       -1.765643   -0.471722   -1.443701
     30          1           0       -4.462706    1.267549    1.406221
     31          1           0       -5.521921   -0.972408    1.781376
     32          7           0       -2.448284    1.813755   -0.252636
     33          8           0       -2.895622    2.762420    0.388113
     34          8           0       -1.524469    1.878196   -1.060751
 ---------------------------------------------------------------------

 SCF Done:  E(RHF) =  -669.535452099     A.U. after   15 cycles
 E2 =    -0.2092260855D+01 EUMP2 =    -0.67162771295483D+03

 The electronic state is 1-A.
 Alpha  occ. eigenvalues --  -20.60853 -20.60848 -15.85878 -11.31150 -11.27757
 Alpha  occ. eigenvalues --  -11.27675 -11.27493 -11.26741 -11.26718 -11.21507
 Alpha  occ. eigenvalues --  -11.21361 -11.21179 -11.21102 -11.21002 -11.20874
 Alpha  occ. eigenvalues --   -1.59913  -1.39470  -1.19342  -1.08755  -1.08230
 Alpha  occ. eigenvalues --   -1.04738  -1.03374  -0.95863  -0.95580  -0.86897
 Alpha  occ. eigenvalues --   -0.86120  -0.82435  -0.79471  -0.78035  -0.77465
 Alpha  occ. eigenvalues --   -0.72102  -0.71227  -0.70457  -0.65003  -0.64863
 Alpha  occ. eigenvalues --   -0.64733  -0.62107  -0.60759  -0.59214  -0.57438
 Alpha  occ. eigenvalues --   -0.55273  -0.55094  -0.53161  -0.52920  -0.52407
 Alpha  occ. eigenvalues --   -0.52213  -0.49775  -0.48859  -0.48853  -0.47741
 Alpha  occ. eigenvalues --   -0.46462  -0.45580  -0.45493  -0.44820  -0.43639
 Alpha  occ. eigenvalues --   -0.37331  -0.36298
 Alpha virt. eigenvalues --    0.05005   0.11296   0.16416   0.21243   0.23088
 Alpha virt. eigenvalues --    0.24459   0.26421   0.26922   0.27555   0.28027
 Alpha virt. eigenvalues --    0.29066   0.29924   0.31590   0.31752   0.32425

 Mulliken charges:
               1
     1  C   -0.299492
     2  C   -0.299207
     3  C   -0.490541
     4  H    0.156465
     5  H    0.149600
     6  H    0.151974
     7  H    0.149102
     8  H    0.153549
     9  H    0.174494
    10  H    0.150388
    11  C   -0.298348
    12  C   -0.299856
    13  C   -0.475640
    14  H    0.149179
    15  H    0.147855
    16  H    0.154241
    17  H    0.151925
    18  H    0.154090
    19  H    0.154944
    20  H    0.160328
    21  C   -0.170188
    22  C   -0.222242
    23  C   -0.168925
    24  C    0.155468
    25  C   -0.170606
    26  C   -0.219176
    27  H    0.225511
    28  H    0.223670
    29  H    0.284995
    30  H    0.275299
    31  H    0.223203
    32  N    0.488138
    33  O   -0.459558
    34  O   -0.460638
 Sum of Mulliken charges =  -0.00000

 Dipole moment (field-independent basis, Debye):
    X=             -2.2164    Y=             -4.5262    Z=              0.7711  Tot=              5.0984
 Quadrupole moment (field-independent basis, Debye-Ang):
   XX=            -80.7952   YY=            -98.9222   ZZ=            -92.7612
   XY=             12.0733   XZ=             -5.4960   YZ=              2.5170

 Normal termination of Gaussian 16 at Thu May  6 15:21:14 2021.
