 Gaussian 16, Revision A.03,
 Gaussian 16:  EM64L-G16RevA.03 25-Dec-2016

 -------------
 #p 6-31g* mp2
 -------------

 ------------------------------------------------------
 Input file generated by CHIRIPA (05-May-2021 14:51:14)
 ------------------------------------------------------
 Symbolic Z-matrix:
 Charge =  0 Multiplicity = 1

                         Standard orientation:
 ---------------------------------------------------------------------
 Center     Atomic      Atomic             Coordinates (Angstroms)
 Number     Number       Type             X           Y           Z
 ---------------------------------------------------------------------
      1          6           0       -2.859301   -0.198961    0.221874
      2          6           0       -4.383716   -0.168802    0.336921
      3          6           0       -4.913323    1.180871    0.822405
      4          1           0       -2.419350    0.038807    1.200063
      5          1           0       -2.534852    0.592766   -0.467543
      6          1           0       -4.705291   -0.961244    1.024846
      7          1           0       -4.820089   -0.406858   -0.641610
      8          1           0       -4.620954    1.979855    0.133387
      9          1           0       -4.505503    1.422319    1.809312
     10          1           0       -6.005217    1.180236    0.897412
     11          6           0       -2.314752   -1.541630   -0.262309
     12          6           0       -0.790338   -1.571790   -0.377356
     13          6           0       -0.260731   -2.921462   -0.862840
     14          1           0       -2.639202   -2.333357    0.427108
     15          1           0       -2.754704   -1.779399   -1.240498
     16          1           0       -0.353964   -1.333734    0.601175
     17          1           0       -0.468762   -0.779348   -1.065281
     18          1           0       -0.668550   -3.162911   -1.849747
     19          1           0       -0.553100   -3.720447   -0.173822
     20          1           0        0.831164   -2.920828   -0.937847
     21          6           0        1.930866    1.095137   -0.299675
     22          6           0        1.687982    2.600855   -0.191015
     23          6           0        0.371324    3.035294   -0.835584
     24          1           0        1.926395    0.804969   -1.359263
     25          1           0        1.095737    0.560929    0.174220
     26          1           0        2.524002    3.132084   -0.663753
     27          1           0        1.693221    2.887502    0.868429
     28          1           0       -0.475703    2.531604   -0.358674
     29          1           0        0.359799    2.777576   -1.899562
     30          1           0        0.217815    4.115269   -0.746424
     31          6           0        3.243188    0.645455    0.340110
     32          6           0        3.486071   -0.860263    0.231449
     33          6           0        4.802729   -1.294703    0.876019
     34          1           0        4.078317    1.179663   -0.133784
     35          1           0        3.247658    0.935622    1.399699
     36          1           0        3.480832   -1.146911   -0.827995
     37          1           0        2.650051   -1.391492    0.704188
     38          1           0        4.814254   -1.036985    1.939997
     39          1           0        5.649756   -0.791013    0.399109
     40          1           0        4.956238   -2.374677    0.786859
 ---------------------------------------------------------------------

 SCF Done:  E(RHF) =  -470.732046411     A.U. after   11 cycles
 E2 =    -0.1584984875D+01 EUMP2 =    -0.47231703128542D+03

 The electronic state is 1-A.
 Alpha  occ. eigenvalues --  -11.21620 -11.21597 -11.21544 -11.21538 -11.21424
 Alpha  occ. eigenvalues --  -11.21352 -11.21337 -11.21197 -11.21081 -11.21068
 Alpha  occ. eigenvalues --  -11.21038 -11.21027  -1.08475  -1.08350  -1.03532
 Alpha  occ. eigenvalues --   -1.03499  -0.95992  -0.95931  -0.87034  -0.86927
 Alpha  occ. eigenvalues --   -0.79714  -0.79523  -0.78511  -0.77921  -0.65092
 Alpha  occ. eigenvalues --   -0.65004  -0.60939  -0.60890  -0.59382  -0.59298
 Alpha  occ. eigenvalues --   -0.57688  -0.57475  -0.55281  -0.55222  -0.52705
 Alpha  occ. eigenvalues --   -0.52614  -0.52540  -0.52251  -0.49932  -0.49893
 Alpha  occ. eigenvalues --   -0.48164  -0.47752  -0.46666  -0.46654  -0.46256
 Alpha  occ. eigenvalues --   -0.45843  -0.45538  -0.44922  -0.43770  -0.43733
 Alpha virt. eigenvalues --    0.21210   0.22291   0.23544   0.24265   0.25252
 Alpha virt. eigenvalues --    0.25884   0.26602   0.27682   0.28778   0.29695
 Alpha virt. eigenvalues --    0.30426   0.30978   0.31680   0.31791   0.32247

 Mulliken charges:
               1
     1  C   -0.302494
     2  C   -0.299301
     3  C   -0.475918
     4  H    0.148585
     5  H    0.153282
     6  H    0.152040
     7  H    0.152177
     8  H    0.155563
     9  H    0.154987
    10  H    0.160387
    11  C   -0.297384
    12  C   -0.304647
    13  C   -0.478623
    14  H    0.149166
    15  H    0.149648
    16  H    0.151166
    17  H    0.158748
    18  H    0.154819
    19  H    0.154508
    20  H    0.163820
    21  C   -0.306136
    22  C   -0.298542
    23  C   -0.480178
    24  H    0.147641
    25  H    0.161753
    26  H    0.151232
    27  H    0.151344
    28  H    0.159149
    29  H    0.154145
    30  H    0.160258
    31  C   -0.297726
    32  C   -0.303309
    33  C   -0.475555
    34  H    0.149035
    35  H    0.148939
    36  H    0.151831
    37  H    0.155023
    38  H    0.155093
    39  H    0.155320
    40  H    0.160157
 Sum of Mulliken charges =  -0.00000

 Dipole moment (field-independent basis, Debye):
    X=             -0.0274    Y=             -0.0189    Z=             -0.0035  Tot=              0.0334
 Quadrupole moment (field-independent basis, Debye-Ang):
   XX=            -85.7988   YY=            -85.8880   ZZ=            -83.3329
   XY=              0.8731   XZ=             -0.5272   YZ=             -0.5125

 Normal termination of Gaussian 16 at Thu May  6 02:25:07 2021.
