 Gaussian 16, Revision A.03,
 Gaussian 16:  EM64L-G16RevA.03 25-Dec-2016

 -------------
 #p 6-31g* mp2
 -------------

 ------------------------------------------------------
 Input file generated by CHIRIPA (05-May-2021 14:51:10)
 ------------------------------------------------------
 Symbolic Z-matrix:
 Charge =  0 Multiplicity = 1

                         Standard orientation:
 ---------------------------------------------------------------------
 Center     Atomic      Atomic             Coordinates (Angstroms)
 Number     Number       Type             X           Y           Z
 ---------------------------------------------------------------------
      1          6           0        4.015619   -0.069989    0.081717
      2          6           0        4.636752   -1.042373   -0.921602
      3          6           0        5.685493   -1.956496   -0.287320
      4          1           0        4.810815    0.539430    0.532514
      5          1           0        3.557760   -0.641846    0.900704
      6          1           0        5.092097   -0.468894   -1.739158
      7          1           0        3.839964   -1.649416   -1.370203
      8          1           0        5.241092   -2.553643    0.515503
      9          1           0        6.500340   -1.366413    0.144452
     10          1           0        6.116562   -2.643418   -1.022288
     11          6           0        2.965329    0.850524   -0.537374
     12          6           0        2.344196    1.822908    0.465945
     13          6           0        1.295455    2.737032   -0.168337
     14          1           0        3.423188    1.422381   -1.356361
     15          1           0        2.170134    0.241106   -0.988171
     16          1           0        3.140985    2.429951    0.914547
     17          1           0        1.888851    1.249429    1.283502
     18          1           0        0.480608    2.146948   -0.600108
     19          1           0        1.739856    3.334178   -0.971160
     20          1           0        0.864386    3.423953    0.566632
     21          6           0       -2.826088   -0.063465    0.415509
     22          6           0       -1.843307   -1.026870    1.081827
     23          6           0       -0.518812   -0.358354    1.451410
     24          1           0       -2.362014    0.357781   -0.486783
     25          1           0       -3.016790    0.780968    1.092237
     26          1           0       -1.655586   -1.869932    0.404610
     27          1           0       -2.309849   -1.446017    1.982532
     28          1           0       -0.686546    0.470954    2.146186
     29          1           0       -0.028566    0.044631    0.559299
     30          1           0        0.168803   -1.065070    1.926381
     31          6           0       -4.154859   -0.717070    0.040147
     32          6           0       -5.137641    0.246334   -0.626170
     33          6           0       -6.462137   -0.422181   -0.995754
     34          1           0       -3.964158   -1.561503   -0.636580
     35          1           0       -4.618934   -1.138317    0.942439
     36          1           0       -4.671101    0.665483   -1.526876
     37          1           0       -5.325362    1.089397    0.051047
     38          1           0       -6.952381   -0.825166   -0.103642
     39          1           0       -6.294402   -1.251490   -1.690529
     40          1           0       -7.149752    0.284536   -1.470725
 ---------------------------------------------------------------------

 SCF Done:  E(RHF) =  -470.732065823     A.U. after   11 cycles
 E2 =    -0.1584077864D+01 EUMP2 =    -0.47231614368681D+03

 The electronic state is 1-A.
 Alpha  occ. eigenvalues --  -11.21637 -11.21615 -11.21575 -11.21444 -11.21438
 Alpha  occ. eigenvalues --  -11.21377 -11.21360 -11.21302 -11.21100 -11.21082
 Alpha  occ. eigenvalues --  -11.21052 -11.21004  -1.08474  -1.08372  -1.03611
 Alpha  occ. eigenvalues --   -1.03438  -0.96049  -0.95910  -0.87057  -0.86944
 Alpha  occ. eigenvalues --   -0.79680  -0.79503  -0.78280  -0.78189  -0.65211
 Alpha  occ. eigenvalues --   -0.64950  -0.61204  -0.60720  -0.59397  -0.59294
 Alpha  occ. eigenvalues --   -0.57618  -0.57534  -0.55355  -0.55171  -0.52734
 Alpha  occ. eigenvalues --   -0.52616  -0.52424  -0.52337  -0.49973  -0.49858
 Alpha  occ. eigenvalues --   -0.48069  -0.47722  -0.46666  -0.46558  -0.45892
 Alpha  occ. eigenvalues --   -0.45772  -0.45635  -0.45575  -0.43802  -0.43727
 Alpha virt. eigenvalues --    0.20907   0.23003   0.23758   0.24977   0.25628
 Alpha virt. eigenvalues --    0.26281   0.27047   0.27451   0.28320   0.29482
 Alpha virt. eigenvalues --    0.30179   0.31226   0.31407   0.31758   0.32122

 Mulliken charges:
               1
     1  C   -0.298257
     2  C   -0.299636
     3  C   -0.475662
     4  H    0.149646
     5  H    0.149910
     6  H    0.151812
     7  H    0.151746
     8  H    0.155097
     9  H    0.155161
    10  H    0.160109
    11  C   -0.299179
    12  C   -0.308394
    13  C   -0.476382
    14  H    0.149458
    15  H    0.148827
    16  H    0.152301
    17  H    0.162566
    18  H    0.154882
    19  H    0.154866
    20  H    0.160170
    21  C   -0.298691
    22  C   -0.300701
    23  C   -0.482083
    24  H    0.149425
    25  H    0.149974
    26  H    0.151626
    27  H    0.151956
    28  H    0.155764
    29  H    0.163797
    30  H    0.159423
    31  C   -0.298310
    32  C   -0.299679
    33  C   -0.475736
    34  H    0.149501
    35  H    0.149816
    36  H    0.152077
    37  H    0.152066
    38  H    0.155184
    39  H    0.155182
    40  H    0.160369
 Sum of Mulliken charges =  -0.00000

 Dipole moment (field-independent basis, Debye):
    X=             -0.0239    Y=              0.0017    Z=              0.0290  Tot=              0.0376
 Quadrupole moment (field-independent basis, Debye-Ang):
   XX=            -85.8064   YY=            -85.0040   ZZ=            -84.0953
   XY=              0.5944   XZ=             -1.0377   YZ=              0.2491

 Normal termination of Gaussian 16 at Wed May  5 23:03:37 2021.
