 Gaussian 16, Revision A.03,
 Gaussian 16:  EM64L-G16RevA.03 25-Dec-2016

 -------------
 #p 6-31g* mp2
 -------------

 ------------------------------------------------------
 Input file generated by CHIRIPA (05-May-2021 14:51:14)
 ------------------------------------------------------
 Symbolic Z-matrix:
 Charge =  0 Multiplicity = 1

                         Standard orientation:
 ---------------------------------------------------------------------
 Center     Atomic      Atomic             Coordinates (Angstroms)
 Number     Number       Type             X           Y           Z
 ---------------------------------------------------------------------
      1          6           0       -3.576337    0.309617    0.495818
      2          6           0       -2.158572   -0.262873    0.482384
      3          6           0       -1.133333    0.682520    1.109211
      4          1           0       -3.583001    1.268103   -0.041029
      5          1           0       -3.865431    0.530120    1.532736
      6          1           0       -1.872759   -0.483521   -0.554072
      7          1           0       -2.155322   -1.220201    1.019161
      8          1           0       -1.391341    0.893985    2.151956
      9          1           0       -1.107173    1.634851    0.569784
     10          1           0       -0.126673    0.253461    1.089104
     11          6           0       -4.612569   -0.623928   -0.127436
     12          6           0       -6.030335   -0.051437   -0.114002
     13          6           0       -7.055573   -0.996830   -0.740830
     14          1           0       -4.323475   -0.844431   -1.164354
     15          1           0       -4.605905   -1.582414    0.409411
     16          1           0       -6.033585    0.905890   -0.650779
     17          1           0       -6.316148    0.169211    0.922454
     18          1           0       -7.081734   -1.949161   -0.201402
     19          1           0       -6.797566   -1.208296   -1.783574
     20          1           0       -8.062234   -0.567772   -0.720722
     21          6           0        4.020088    0.911063   -0.086597
     22          6           0        2.664622    1.450918   -0.544041
     23          6           0        2.531013    2.960648   -0.342405
     24          1           0        4.165550    1.154980    0.974671
     25          1           0        4.817767    1.427608   -0.638217
     26          1           0        1.869682    0.932528    0.007284
     27          1           0        2.522286    1.205521   -1.604294
     28          1           0        3.303235    3.494382   -0.905790
     29          1           0        2.646923    3.219838    0.714945
     30          1           0        1.554532    3.325377   -0.676045
     31          6           0        4.168819   -0.596753   -0.281784
     32          6           0        5.524286   -1.136607    0.175659
     33          6           0        5.657893   -2.646338   -0.025977
     34          1           0        3.371140   -1.113297    0.269836
     35          1           0        4.023357   -0.840669   -1.343053
     36          1           0        5.666621   -0.891210    1.235912
     37          1           0        6.319225   -0.618217   -0.375666
     38          1           0        5.541983   -2.905527   -1.083326
     39          1           0        4.885671   -3.180071    0.537409
     40          1           0        6.634375   -3.011067    0.307663
 ---------------------------------------------------------------------

 SCF Done:  E(RHF) =  -470.733190003     A.U. after   11 cycles
 E2 =    -0.1582523519D+01 EUMP2 =    -0.47231571352107D+03

 The electronic state is 1-A.
 Alpha  occ. eigenvalues --  -11.21622 -11.21610 -11.21589 -11.21512 -11.21419
 Alpha  occ. eigenvalues --  -11.21381 -11.21359 -11.21316 -11.21099 -11.21077
 Alpha  occ. eigenvalues --  -11.21062 -11.21021  -1.08446  -1.08398  -1.03557
 Alpha  occ. eigenvalues --   -1.03485  -0.96009  -0.95938  -0.87024  -0.86960
 Alpha  occ. eigenvalues --   -0.79645  -0.79527  -0.78259  -0.78210  -0.65084
 Alpha  occ. eigenvalues --   -0.65031  -0.60992  -0.60878  -0.59439  -0.59245
 Alpha  occ. eigenvalues --   -0.57630  -0.57540  -0.55308  -0.55208  -0.52743
 Alpha  occ. eigenvalues --   -0.52623  -0.52450  -0.52347  -0.49945  -0.49876
 Alpha  occ. eigenvalues --   -0.47995  -0.47815  -0.46668  -0.46551  -0.45799
 Alpha  occ. eigenvalues --   -0.45754  -0.45725  -0.45671  -0.43786  -0.43715
 Alpha virt. eigenvalues --    0.21594   0.23024   0.23627   0.24821   0.26012
 Alpha virt. eigenvalues --    0.26577   0.27119   0.27192   0.27836   0.28970
 Alpha virt. eigenvalues --    0.30392   0.31123   0.31700   0.31851   0.32441

 Mulliken charges:
               1
     1  C   -0.298607
     2  C   -0.299525
     3  C   -0.480302
     4  H    0.149721
     5  H    0.149558
     6  H    0.152556
     7  H    0.151814
     8  H    0.155251
     9  H    0.156234
    10  H    0.163996
    11  C   -0.298297
    12  C   -0.299661
    13  C   -0.475713
    14  H    0.149618
    15  H    0.149660
    16  H    0.151972
    17  H    0.151934
    18  H    0.155186
    19  H    0.155213
    20  H    0.160284
    21  C   -0.297838
    22  C   -0.307320
    23  C   -0.475080
    24  H    0.149475
    25  H    0.149313
    26  H    0.160127
    27  H    0.151216
    28  H    0.154762
    29  H    0.155295
    30  H    0.159877
    31  C   -0.298123
    32  C   -0.299610
    33  C   -0.475696
    34  H    0.148649
    35  H    0.149643
    36  H    0.151947
    37  H    0.151983
    38  H    0.155146
    39  H    0.155129
    40  H    0.160217
 Sum of Mulliken charges =  -0.00000

 Dipole moment (field-independent basis, Debye):
    X=             -0.0284    Y=             -0.0016    Z=              0.0087  Tot=              0.0298
 Quadrupole moment (field-independent basis, Debye-Ang):
   XX=            -85.5108   YY=            -86.1233   ZZ=            -83.2344
   XY=             -0.1065   XZ=             -0.8289   YZ=             -0.8687

 Normal termination of Gaussian 16 at Wed May  5 15:23:50 2021.
