 Gaussian 16, Revision A.03,
 Gaussian 16:  EM64L-G16RevA.03 25-Dec-2016

 -------------
 #p 6-31g* mp2
 -------------

 ------------------------------------------------------
 Input file generated by CHIRIPA (05-May-2021 14:57:21)
 ------------------------------------------------------
 Symbolic Z-matrix:
 Charge =  0 Multiplicity = 1

                         Standard orientation:
 ---------------------------------------------------------------------
 Center     Atomic      Atomic             Coordinates (Angstroms)
 Number     Number       Type             X           Y           Z
 ---------------------------------------------------------------------
      1          6           0       -3.204604    2.569951    0.525585
      2          6           0       -2.299710    1.659060    1.080532
      3          6           0       -2.399049    0.294611    0.792505
      4          6           0       -3.420038   -0.126155   -0.058275
      5          6           0       -4.336852    0.756797   -0.626727
      6          6           0       -4.218500    2.116711   -0.324774
      7          1           0       -3.120050    3.628126    0.754740
      8          1           0       -1.511305    2.008202    1.741260
      9          1           0       -1.711963   -0.432267    1.208412
     10          1           0       -5.112230    0.378731   -1.281917
     11          1           0       -4.922662    2.821846   -0.757191
     12          7           0       -3.535268   -1.568235   -0.370568
     13          8           0       -4.443663   -1.913582   -1.123025
     14          8           0       -2.715009   -2.325884    0.143027
     15          6           0        2.451744   -2.365526    0.626638
     16          6           0        1.710631   -1.203800    0.866776
     17          6           0        2.226672    0.050428    0.527420
     18          6           0        3.492822    0.106392   -0.053118
     19          6           0        4.255551   -1.032955   -0.304954
     20          6           0        3.719603   -2.276553    0.042570
     21          1           0        2.043138   -3.335711    0.893431
     22          1           0        0.725721   -1.269875    1.320244
     23          1           0        1.674406    0.965776    0.702224
     24          1           0        5.234484   -0.935237   -0.758343
     25          1           0        4.297412   -3.177089   -0.145089
     26          7           0        4.049669    1.428559   -0.416702
     27          8           0        5.167575    1.450974   -0.927016
     28          8           0        3.357676    2.417425   -0.184481
 ---------------------------------------------------------------------

 SCF Done:  E(RHF) =  -868.337977283     A.U. after   16 cycles
 E2 =    -0.2599489010D+01 EUMP2 =    -0.87093746629299D+03

 The electronic state is 1-A.
 Alpha  occ. eigenvalues --  -20.61366 -20.61329 -20.60931 -20.60913 -15.86403
 Alpha  occ. eigenvalues --  -15.85978 -11.31716 -11.31277 -11.28388 -11.28215
 Alpha  occ. eigenvalues --  -11.27927 -11.27909 -11.27812 -11.27491 -11.27296
 Alpha  occ. eigenvalues --  -11.27196 -11.26870 -11.26775  -1.60419  -1.60000
 Alpha  occ. eigenvalues --   -1.39980  -1.39557  -1.19866  -1.19436  -1.09250
 Alpha  occ. eigenvalues --   -1.08820  -1.05279  -1.04848  -0.96108  -0.95673
 Alpha  occ. eigenvalues --   -0.86669  -0.86230  -0.82957  -0.82528  -0.78041
 Alpha  occ. eigenvalues --   -0.77595  -0.72627  -0.72199  -0.71734  -0.71320
 Alpha  occ. eigenvalues --   -0.70969  -0.70505  -0.65522  -0.65314  -0.65087
 Alpha  occ. eigenvalues --   -0.64826  -0.62715  -0.62147  -0.55727  -0.55271
 Alpha  occ. eigenvalues --   -0.53576  -0.53425  -0.53147  -0.52890  -0.49395
 Alpha  occ. eigenvalues --   -0.49362  -0.48961  -0.48944  -0.45397  -0.44979
 Alpha  occ. eigenvalues --   -0.37794  -0.37361  -0.36880  -0.36440
 Alpha virt. eigenvalues --    0.04511   0.04964   0.10767   0.11225   0.16014
 Alpha virt. eigenvalues --    0.16472   0.18475   0.22258   0.24725   0.26262
 Alpha virt. eigenvalues --    0.28283   0.29167   0.30369   0.31248   0.32426

 Mulliken charges:
               1
     1  C   -0.168982
     2  C   -0.220387
     3  C   -0.175263
     4  C    0.159626
     5  C   -0.169436
     6  C   -0.217951
     7  H    0.230027
     8  H    0.223773
     9  H    0.270961
    10  H    0.277271
    11  H    0.226378
    12  N    0.488091
    13  O   -0.456776
    14  O   -0.466763
    15  C   -0.170007
    16  C   -0.218979
    17  C   -0.172059
    18  C    0.158610
    19  C   -0.170513
    20  C   -0.218607
    21  H    0.232367
    22  H    0.224248
    23  H    0.268067
    24  H    0.275903
    25  H    0.225049
    26  N    0.488491
    27  O   -0.459310
    28  O   -0.463827
 Sum of Mulliken charges =  -0.00000

 Dipole moment (field-independent basis, Debye):
    X=             -1.6916    Y=              0.4096    Z=              2.2698  Tot=              2.8602
 Quadrupole moment (field-independent basis, Debye-Ang):
   XX=           -114.1104   YY=           -106.3236   ZZ=           -104.2010
   XY=            -38.1252   XZ=              2.0141   YZ=              0.2074

 Normal termination of Gaussian 16 at Wed May  5 19:17:27 2021.
