 Gaussian 16, Revision A.03,
 Gaussian 16:  EM64L-G16RevA.03 25-Dec-2016

 -------------
 #p 6-31g* mp2
 -------------

 ------------------------------------------------------
 Input file generated by CHIRIPA (05-May-2021 14:57:23)
 ------------------------------------------------------
 Symbolic Z-matrix:
 Charge =  0 Multiplicity = 1

                         Standard orientation:
 ---------------------------------------------------------------------
 Center     Atomic      Atomic             Coordinates (Angstroms)
 Number     Number       Type             X           Y           Z
 ---------------------------------------------------------------------
      1          6           0        3.273228    1.840988    1.120187
      2          6           0        3.803440    0.598423    1.482719
      3          6           0        3.465155   -0.553973    0.767110
      4          6           0        2.589886   -0.426780   -0.310394
      5          6           0        2.045052    0.797006   -0.696133
      6          6           0        2.397271    1.936146    0.033833
      7          1           0        3.541429    2.731048    1.681665
      8          1           0        4.483954    0.521527    2.325946
      9          1           0        3.861004   -1.528465    1.026119
     10          1           0        1.369148    0.842099   -1.541437
     11          1           0        1.983969    2.899823   -0.249984
     12          7           0        2.224383   -1.639753   -1.075577
     13          8           0        1.451188   -1.501050   -2.020864
     14          8           0        2.718017   -2.706216   -0.715551
     15          6           0       -3.441813   -1.955871    1.171606
     16          6           0       -2.303874   -1.326427    1.686788
     17          6           0       -1.856111   -0.116767    1.147547
     18          6           0       -2.573588    0.437886    0.088833
     19          6           0       -3.710900   -0.164976   -0.446301
     20          6           0       -4.140463   -1.374163    0.108579
     21          1           0       -3.782577   -2.895380    1.596575
     22          1           0       -1.759314   -1.775885    2.512311
     23          1           0       -0.978293    0.391942    1.527110
     24          1           0       -4.232894    0.307349   -1.269617
     25          1           0       -5.024531   -1.860753   -0.293539
     26          7           0       -2.109196    1.718249   -0.490316
     27          8           0       -2.758897    2.186398   -1.422712
     28          8           0       -1.104297    2.229403   -0.000890
 ---------------------------------------------------------------------

 SCF Done:  E(RHF) =  -868.340156152     A.U. after   16 cycles
 E2 =    -0.2600075696D+01 EUMP2 =    -0.87094023184834D+03

 The electronic state is 1-A.
 Alpha  occ. eigenvalues --  -20.61174 -20.61120 -20.60532 -20.60516 -15.86168
 Alpha  occ. eigenvalues --  -15.85568 -11.31195 -11.30734 -11.27739 -11.27722
 Alpha  occ. eigenvalues --  -11.27418 -11.27317 -11.27126 -11.26931 -11.26683
 Alpha  occ. eigenvalues --  -11.26667 -11.26328 -11.26033  -1.60215  -1.59608
 Alpha  occ. eigenvalues --   -1.39780  -1.39165  -1.19337  -1.18874  -1.08800
 Alpha  occ. eigenvalues --   -1.08310  -1.04699  -1.04196  -0.95694  -0.95175
 Alpha  occ. eigenvalues --   -0.86117  -0.85618  -0.82559  -0.81974  -0.77635
 Alpha  occ. eigenvalues --   -0.77054  -0.72421  -0.71791  -0.71517  -0.70936
 Alpha  occ. eigenvalues --   -0.70457  -0.69962  -0.65008  -0.64712  -0.64495
 Alpha  occ. eigenvalues --   -0.64164  -0.62061  -0.61520  -0.55219  -0.54733
 Alpha  occ. eigenvalues --   -0.53026  -0.52823  -0.52578  -0.52254  -0.49180
 Alpha  occ. eigenvalues --   -0.49131  -0.48555  -0.48525  -0.45262  -0.44610
 Alpha  occ. eigenvalues --   -0.37289  -0.36890  -0.36272  -0.35746
 Alpha virt. eigenvalues --    0.04820   0.05468   0.11313   0.11901   0.16373
 Alpha virt. eigenvalues --    0.17033   0.21482   0.22063   0.27386   0.27981
 Alpha virt. eigenvalues --    0.28400   0.28814   0.31039   0.31593   0.32461

 Mulliken charges:
               1
     1  C   -0.174971
     2  C   -0.220096
     3  C   -0.175811
     4  C    0.153484
     5  C   -0.169815
     6  C   -0.211012
     7  H    0.224990
     8  H    0.220252
     9  H    0.271726
    10  H    0.278678
    11  H    0.237876
    12  N    0.487985
    13  O   -0.460442
    14  O   -0.464375
    15  C   -0.168210
    16  C   -0.217042
    17  C   -0.171336
    18  C    0.159189
    19  C   -0.168760
    20  C   -0.217591
    21  H    0.227056
    22  H    0.223971
    23  H    0.274186
    24  H    0.275547
    25  H    0.224452
    26  N    0.489582
    27  O   -0.457160
    28  O   -0.472357
 Sum of Mulliken charges =  -0.00000

 Dipole moment (field-independent basis, Debye):
    X=             -0.6512    Y=             -0.1009    Z=              4.6279  Tot=              4.6746
 Quadrupole moment (field-independent basis, Debye-Ang):
   XX=            -86.1920   YY=           -111.7391   ZZ=           -103.2243
   XY=             20.8311   XZ=              5.8749   YZ=             -4.1045

 Normal termination of Gaussian 16 at Thu May  6 01:52:02 2021.
