 Gaussian 16, Revision A.03,
 Gaussian 16:  EM64L-G16RevA.03 25-Dec-2016

 -------------
 #p 6-31g* mp2
 -------------

 ------------------------------------------------------
 Input file generated by CHIRIPA (05-May-2021 14:53:11)
 ------------------------------------------------------
 Symbolic Z-matrix:
 Charge =  0 Multiplicity = 1

                         Standard orientation:
 ---------------------------------------------------------------------
 Center     Atomic      Atomic             Coordinates (Angstroms)
 Number     Number       Type             X           Y           Z
 ---------------------------------------------------------------------
      1          6           0       -3.742752    0.044256   -0.327676
      2          6           0       -3.326295   -1.421841   -0.450589
      3          6           0       -4.457382   -2.317186   -0.957336
      4          1           0       -4.603359    0.118686    0.351118
      5          1           0       -4.085545    0.404208   -1.307637
      6          1           0       -2.983086   -1.778523    0.529004
      7          1           0       -2.466459   -1.492768   -1.129019
      8          1           0       -4.795422   -1.988735   -1.945491
      9          1           0       -5.314984   -2.276113   -0.278048
     10          1           0       -4.137903   -3.360900   -1.037670
     11          6           0       -2.622700    0.951868    0.177747
     12          6           0       -3.039158    2.417965    0.300660
     13          6           0       -1.908071    3.313310    0.807407
     14          1           0       -2.279908    0.591916    1.157708
     15          1           0       -1.762094    0.877437   -0.501047
     16          1           0       -3.898993    2.488892    0.979090
     17          1           0       -3.382366    2.774647   -0.678933
     18          1           0       -1.050469    3.272237    0.128118
     19          1           0       -1.570031    2.984859    1.795562
     20          1           0       -2.227550    4.357024    0.887741
     21          6           0        0.961383   -1.583674    1.675027
     22          6           0        2.187889   -1.075353    2.115271
     23          6           0        3.040897   -0.411710    1.228420
     24          6           0        2.633948   -0.273625   -0.097708
     25          6           0        1.418220   -0.769022   -0.566618
     26          6           0        0.581133   -1.429159    0.337844
     27          1           0        0.304930   -2.097847    2.370794
     28          1           0        2.485795   -1.193885    3.153176
     29          1           0        3.995949   -0.008430    1.542520
     30          1           0        1.148636   -0.635405   -1.607238
     31          1           0       -0.370807   -1.822905   -0.006856
     32          7           0        3.528562    0.427089   -1.045899
     33          8           0        3.146922    0.535690   -2.209167
     34          8           0        4.594460    0.854437   -0.607869
 ---------------------------------------------------------------------

 SCF Done:  E(RHF) =  -669.535233234     A.U. after   15 cycles
 E2 =    -0.2092670537D+01 EUMP2 =    -0.67162790377123D+03

 The electronic state is 1-A.
 Alpha  occ. eigenvalues --  -20.60725 -20.60720 -15.85776 -11.31125 -11.27676
 Alpha  occ. eigenvalues --  -11.27663 -11.27401 -11.26708 -11.26601 -11.22699
 Alpha  occ. eigenvalues --  -11.22109 -11.21995 -11.21926 -11.21883 -11.21302
 Alpha  occ. eigenvalues --   -1.59801  -1.39355  -1.19281  -1.09121  -1.08678
 Alpha  occ. eigenvalues --   -1.04679  -1.04170  -0.96567  -0.95523  -0.87593
 Alpha  occ. eigenvalues --   -0.86081  -0.82363  -0.80315  -0.78925  -0.77386
 Alpha  occ. eigenvalues --   -0.71995  -0.71123  -0.70397  -0.65751  -0.64929
 Alpha  occ. eigenvalues --   -0.64687  -0.62051  -0.61558  -0.59965  -0.58195
 Alpha  occ. eigenvalues --   -0.55833  -0.55187  -0.53326  -0.53103  -0.52919
 Alpha  occ. eigenvalues --   -0.52726  -0.50515  -0.48789  -0.48752  -0.48522
 Alpha  occ. eigenvalues --   -0.47348  -0.46399  -0.46340  -0.44764  -0.44414
 Alpha  occ. eigenvalues --   -0.37255  -0.36246
 Alpha virt. eigenvalues --    0.05095   0.11325   0.16542   0.20209   0.22660
 Alpha virt. eigenvalues --    0.23782   0.24833   0.25710   0.27433   0.28462
 Alpha virt. eigenvalues --    0.29478   0.30049   0.30882   0.31440   0.31830

 Mulliken charges:
               1
     1  C   -0.297944
     2  C   -0.304954
     3  C   -0.474914
     4  H    0.152057
     5  H    0.153336
     6  H    0.146145
     7  H    0.147075
     8  H    0.159428
     9  H    0.158245
    10  H    0.160381
    11  C   -0.299355
    12  C   -0.300465
    13  C   -0.476129
    14  H    0.147096
    15  H    0.149913
    16  H    0.151906
    17  H    0.153975
    18  H    0.158974
    19  H    0.154199
    20  H    0.162020
    21  C   -0.174626
    22  C   -0.218069
    23  C   -0.171611
    24  C    0.158975
    25  C   -0.175139
    26  C   -0.220413
    27  H    0.225000
    28  H    0.222936
    29  H    0.275233
    30  H    0.274286
    31  H    0.235836
    32  N    0.488056
    33  O   -0.460908
    34  O   -0.460544
 Sum of Mulliken charges =  -0.00000

 Dipole moment (field-independent basis, Debye):
    X=             -3.3327    Y=             -2.3857    Z=              3.3175  Tot=              5.2730
 Quadrupole moment (field-independent basis, Debye-Ang):
   XX=           -109.4230   YY=            -94.4470   ZZ=            -92.2318
   XY=             -5.6208   XZ=             11.6499   YZ=             -0.5201

 Normal termination of Gaussian 16 at Wed May  5 15:25:12 2021.
