 Gaussian 16, Revision A.03,
 Gaussian 16:  EM64L-G16RevA.03 25-Dec-2016

 -------------
 #p 6-31g* mp2
 -------------

 ------------------------------------------------------
 Input file generated by CHIRIPA (05-May-2021 14:51:13)
 ------------------------------------------------------
 Symbolic Z-matrix:
 Charge =  0 Multiplicity = 1

                         Standard orientation:
 ---------------------------------------------------------------------
 Center     Atomic      Atomic             Coordinates (Angstroms)
 Number     Number       Type             X           Y           Z
 ---------------------------------------------------------------------
      1          6           0        2.399135   -0.482884    0.941408
      2          6           0        1.271260   -1.475858    0.658767
      3          6           0        0.594347   -1.980154    1.933627
      4          1           0        3.145796   -0.960817    1.590270
      5          1           0        1.995131    0.369525    1.504945
      6          1           0        1.676993   -2.325482    0.094731
      7          1           0        0.527293   -0.995569    0.010345
      8          1           0        0.163044   -1.146087    2.496576
      9          1           0        1.319277   -2.483556    2.581440
     10          1           0       -0.208784   -2.688748    1.708380
     11          6           0        3.085551    0.030276   -0.323198
     12          6           0        4.213425    1.023250   -0.040557
     13          6           0        4.890339    1.527546   -1.315417
     14          1           0        3.489555   -0.822133   -0.886735
     15          1           0        2.338890    0.508209   -0.972061
     16          1           0        4.957393    0.542961    0.607864
     17          1           0        3.807693    1.872874    0.523479
     18          1           0        4.165409    2.030948   -1.963231
     19          1           0        5.321642    0.693479   -1.878366
     20          1           0        5.693470    2.236139   -1.090171
     21          6           0       -2.276232   -0.372984   -0.392933
     22          6           0       -2.963079   -1.594480   -1.004630
     23          6           0       -2.017672   -2.785259   -1.166013
     24          1           0       -1.425045   -0.084214   -1.024628
     25          1           0       -1.859918   -0.647162    0.586303
     26          1           0       -3.379176   -1.317709   -1.981809
     27          1           0       -3.812846   -1.880258   -0.371508
     28          1           0       -1.611934   -3.089284   -0.195680
     29          1           0       -1.175800   -2.523539   -1.815130
     30          1           0       -2.529302   -3.647456   -1.605002
     31          6           0       -3.208454    0.825592   -0.225276
     32          6           0       -2.521606    2.047088    0.386420
     33          6           0       -3.467013    3.237867    0.547803
     34          1           0       -3.624769    1.099769   -1.204513
     35          1           0       -4.059641    0.536822    0.406419
     36          1           0       -1.671840    2.332866   -0.246702
     37          1           0       -2.105511    1.770318    1.363600
     38          1           0       -4.308887    2.976148    1.196921
     39          1           0       -3.872752    3.541892   -0.422530
     40          1           0       -2.955384    4.100064    0.986793
 ---------------------------------------------------------------------

 SCF Done:  E(RHF) =  -470.731486125     A.U. after   11 cycles
 E2 =    -0.1585262199D+01 EUMP2 =    -0.47231674832422D+03

 The electronic state is 1-A.
 Alpha  occ. eigenvalues --  -11.21665 -11.21625 -11.21574 -11.21431 -11.21397
 Alpha  occ. eigenvalues --  -11.21367 -11.21352 -11.21275 -11.21116 -11.21056
 Alpha  occ. eigenvalues --  -11.21051 -11.21047  -1.08506  -1.08344  -1.03612
 Alpha  occ. eigenvalues --   -1.03436  -0.96017  -0.95947  -0.87043  -0.86956
 Alpha  occ. eigenvalues --   -0.79707  -0.79503  -0.78445  -0.78041  -0.65129
 Alpha  occ. eigenvalues --   -0.64995  -0.61016  -0.60899  -0.59566  -0.59154
 Alpha  occ. eigenvalues --   -0.57737  -0.57438  -0.55363  -0.55192  -0.52716
 Alpha  occ. eigenvalues --   -0.52692  -0.52494  -0.52272  -0.49997  -0.49852
 Alpha  occ. eigenvalues --   -0.48054  -0.47820  -0.46751  -0.46610  -0.46077
 Alpha  occ. eigenvalues --   -0.45719  -0.45679  -0.45109  -0.43819  -0.43722
 Alpha virt. eigenvalues --    0.21047   0.23039   0.23472   0.24207   0.25172
 Alpha virt. eigenvalues --    0.26355   0.26781   0.27982   0.28813   0.29580
 Alpha virt. eigenvalues --    0.30136   0.31474   0.31508   0.31885   0.32308

 Mulliken charges:
               1
     1  C   -0.297696
     2  C   -0.307618
     3  C   -0.480787
     4  H    0.148946
     5  H    0.149069
     6  H    0.151022
     7  H    0.164259
     8  H    0.153865
     9  H    0.155769
    10  H    0.162051
    11  C   -0.298012
    12  C   -0.299581
    13  C   -0.475655
    14  H    0.149429
    15  H    0.148573
    16  H    0.151986
    17  H    0.151913
    18  H    0.154891
    19  H    0.155129
    20  H    0.160180
    21  C   -0.307082
    22  C   -0.298901
    23  C   -0.480950
    24  H    0.150032
    25  H    0.158330
    26  H    0.151764
    27  H    0.151758
    28  H    0.159929
    29  H    0.156462
    30  H    0.160033
    31  C   -0.296784
    32  C   -0.299782
    33  C   -0.475669
    34  H    0.149497
    35  H    0.149813
    36  H    0.151260
    37  H    0.151417
    38  H    0.155441
    39  H    0.155388
    40  H    0.160311
 Sum of Mulliken charges =  -0.00000

 Dipole moment (field-independent basis, Debye):
    X=             -0.0486    Y=             -0.0028    Z=             -0.0126  Tot=              0.0503
 Quadrupole moment (field-independent basis, Debye-Ang):
   XX=            -85.0278   YY=            -85.2332   ZZ=            -84.6950
   XY=             -0.1675   XZ=              0.3279   YZ=             -0.1138

 Normal termination of Gaussian 16 at Thu May  6 05:34:30 2021.
