 Gaussian 16, Revision A.03,
 Gaussian 16:  EM64L-G16RevA.03 25-Dec-2016

 -------------
 #p 6-31g* mp2
 -------------

 ------------------------------------------------------
 Input file generated by CHIRIPA (05-May-2021 14:57:22)
 ------------------------------------------------------
 Symbolic Z-matrix:
 Charge =  0 Multiplicity = 1

                         Standard orientation:
 ---------------------------------------------------------------------
 Center     Atomic      Atomic             Coordinates (Angstroms)
 Number     Number       Type             X           Y           Z
 ---------------------------------------------------------------------
      1          6           0        2.295841    2.152198    0.429318
      2          6           0        3.591963    1.955194    0.916944
      3          6           0        4.277555    0.766184    0.650926
      4          6           0        3.634022   -0.209010   -0.109437
      5          6           0        2.343404   -0.042428   -0.609282
      6          6           0        1.676790    1.154517   -0.330899
      7          1           0        1.770628    3.078931    0.640770
      8          1           0        4.075200    2.728266    1.507611
      9          1           0        5.281621    0.587467    1.016067
     10          1           0        1.887764   -0.831405   -1.195222
     11          1           0        0.670273    1.304766   -0.710892
     12          7           0        4.349782   -1.471962   -0.397604
     13          8           0        3.760815   -2.315624   -1.069905
     14          8           0        5.486210   -1.594287    0.054288
     15          6           0       -2.511095    2.250159   -0.482699
     16          6           0       -1.960224    1.465445    0.535773
     17          6           0       -2.508836    0.217550    0.846147
     18          6           0       -3.613212   -0.216593    0.114598
     19          6           0       -4.184653    0.542077   -0.905777
     20          6           0       -3.619598    1.786787   -1.198961
     21          1           0       -2.078534    3.218316   -0.717127
     22          1           0       -1.099351    1.822759    1.093689
     23          1           0       -2.102306   -0.410386    1.629631
     24          1           0       -5.042864    0.159063   -1.444471
     25          1           0       -4.049502    2.394064   -1.990442
     26          7           0       -4.202707   -1.535998    0.434078
     27          8           0       -5.175621   -1.895831   -0.225162
     28          8           0       -3.680677   -2.185331    1.337675
 ---------------------------------------------------------------------

 SCF Done:  E(RHF) =  -868.336376755     A.U. after   16 cycles
 E2 =    -0.2601152291D+01 EUMP2 =    -0.87093752904588D+03

 The electronic state is 1-A.
 Alpha  occ. eigenvalues --  -20.61279 -20.61273 -20.61072 -20.61065 -15.86340
 Alpha  occ. eigenvalues --  -15.86128 -11.31931 -11.31658 -11.28538 -11.28496
 Alpha  occ. eigenvalues --  -11.28386 -11.28224 -11.28215 -11.28107 -11.27651
 Alpha  occ. eigenvalues --  -11.27562 -11.27313 -11.27267  -1.60350  -1.60143
 Alpha  occ. eigenvalues --   -1.39896  -1.39691  -1.20147  -1.19851  -1.09520
 Alpha  occ. eigenvalues --   -1.09242  -1.05581  -1.05257  -0.96298  -0.96045
 Alpha  occ. eigenvalues --   -0.87019  -0.86636  -0.83116  -0.82855  -0.78132
 Alpha  occ. eigenvalues --   -0.77843  -0.72554  -0.72344  -0.71677  -0.71467
 Alpha  occ. eigenvalues --   -0.71261  -0.71013  -0.65834  -0.65756  -0.65494
 Alpha  occ. eigenvalues --   -0.65123  -0.62943  -0.62525  -0.56104  -0.55851
 Alpha  occ. eigenvalues --   -0.54013  -0.53743  -0.53530  -0.53207  -0.49332
 Alpha  occ. eigenvalues --   -0.49293  -0.49116  -0.49088  -0.45250  -0.45059
 Alpha  occ. eigenvalues --   -0.38180  -0.37895  -0.37225  -0.36777
 Alpha virt. eigenvalues --    0.04400   0.04654   0.10162   0.10832   0.15766
 Alpha virt. eigenvalues --    0.16157   0.19404   0.21763   0.25576   0.26962
 Alpha virt. eigenvalues --    0.27464   0.28877   0.29814   0.31150   0.31772

 Mulliken charges:
               1
     1  C   -0.176374
     2  C   -0.217412
     3  C   -0.170640
     4  C    0.159691
     5  C   -0.171961
     6  C   -0.225545
     7  H    0.219001
     8  H    0.224521
     9  H    0.277516
    10  H    0.279174
    11  H    0.227294
    12  N    0.487881
    13  O   -0.457685
    14  O   -0.459103
    15  C   -0.175348
    16  C   -0.226503
    17  C   -0.171511
    18  C    0.159259
    19  C   -0.169570
    20  C   -0.217586
    21  H    0.223768
    22  H    0.223249
    23  H    0.279951
    24  H    0.278852
    25  H    0.226359
    26  N    0.487937
    27  O   -0.457922
    28  O   -0.457295
 Sum of Mulliken charges =  -0.00000

 Dipole moment (field-independent basis, Debye):
    X=             -0.5690    Y=              8.8494    Z=             -0.1336  Tot=              8.8687
 Quadrupole moment (field-independent basis, Debye-Ang):
   XX=           -131.6932   YY=           -109.5563   ZZ=           -102.3075
   XY=              0.3906   XZ=             13.5908   YZ=              0.4527

 Normal termination of Gaussian 16 at Fri May  7 04:49:20 2021.
