 Gaussian 16, Revision A.03,
 Gaussian 16:  EM64L-G16RevA.03 25-Dec-2016

 -------------
 #p 6-31g* mp2
 -------------

 ------------------------------------------------------
 Input file generated by CHIRIPA (05-May-2021 14:53:18)
 ------------------------------------------------------
 Symbolic Z-matrix:
 Charge =  0 Multiplicity = 1

                         Standard orientation:
 ---------------------------------------------------------------------
 Center     Atomic      Atomic             Coordinates (Angstroms)
 Number     Number       Type             X           Y           Z
 ---------------------------------------------------------------------
      1          6           0       -2.742127   -0.751691   -0.134119
      2          6           0       -2.267224   -1.865600    0.799509
      3          6           0       -0.792339   -2.215725    0.599711
      4          1           0       -2.574460   -1.058515   -1.175604
      5          1           0       -2.126238    0.143167    0.031119
      6          1           0       -2.884726   -2.757655    0.633536
      7          1           0       -2.436219   -1.556168    1.838888
      8          1           0       -0.160266   -1.341240    0.785075
      9          1           0       -0.611322   -2.549553   -0.427125
     10          1           0       -0.473929   -3.014198    1.277145
     11          6           0       -4.214529   -0.390447    0.053671
     12          6           0       -4.689432    0.723462   -0.879956
     13          6           0       -6.164317    1.073587   -0.680159
     14          1           0       -4.830418   -1.285305   -0.111567
     15          1           0       -4.382196   -0.083623    1.095156
     16          1           0       -4.520437    0.414030   -1.919336
     17          1           0       -4.071930    1.615516   -0.713984
     18          1           0       -6.345334    1.407414    0.346677
     19          1           0       -6.796390    0.199101   -0.865523
     20          1           0       -6.482727    1.872060   -1.357593
     21          6           0        1.451873    2.322524    1.146532
     22          6           0        1.543736    1.073289    1.769020
     23          6           0        2.242401    0.026396    1.160391
     24          6           0        2.839794    0.264746   -0.076380
     25          6           0        2.766050    1.498148   -0.721803
     26          6           0        2.062246    2.530600   -0.094705
     27          1           0        0.907137    3.130167    1.626503
     28          1           0        1.070704    0.908823    2.732990
     29          1           0        2.329208   -0.950641    1.620046
     30          1           0        3.248055    1.631845   -1.682644
     31          1           0        1.992549    3.499733   -0.580471
     32          7           0        3.582160   -0.835908   -0.730484
     33          8           0        4.099630   -0.600381   -1.820159
     34          8           0        3.632499   -1.913286   -0.141112
 ---------------------------------------------------------------------

 SCF Done:  E(RHF) =  -669.534934977     A.U. after   15 cycles
 E2 =    -0.2092428136D+01 EUMP2 =    -0.67162736311271D+03

 The electronic state is 1-A.
 Alpha  occ. eigenvalues --  -20.60773 -20.60764 -15.85827 -11.31224 -11.27813
 Alpha  occ. eigenvalues --  -11.27798 -11.27574 -11.26837 -11.26821 -11.21843
 Alpha  occ. eigenvalues --  -11.21746 -11.21607 -11.21533 -11.21300 -11.21040
 Alpha  occ. eigenvalues --   -1.59845  -1.39398  -1.19424  -1.08802  -1.08620
 Alpha  occ. eigenvalues --   -1.04841  -1.03698  -0.96144  -0.95630  -0.87161
 Alpha  occ. eigenvalues --   -0.86218  -0.82464  -0.79770  -0.78434  -0.77498
 Alpha  occ. eigenvalues --   -0.72046  -0.71169  -0.70528  -0.65264  -0.65070
 Alpha  occ. eigenvalues --   -0.64826  -0.62190  -0.61104  -0.59509  -0.57761
 Alpha  occ. eigenvalues --   -0.55492  -0.55312  -0.53257  -0.52941  -0.52800
 Alpha  occ. eigenvalues --   -0.52465  -0.50065  -0.48808  -0.48796  -0.48073
 Alpha  occ. eigenvalues --   -0.46810  -0.45969  -0.45906  -0.44791  -0.43955
 Alpha  occ. eigenvalues --   -0.37401  -0.36353
 Alpha virt. eigenvalues --    0.05013   0.11181   0.16436   0.21215   0.22701
 Alpha virt. eigenvalues --    0.24169   0.26416   0.26942   0.27316   0.27858
 Alpha virt. eigenvalues --    0.28706   0.30614   0.31407   0.31672   0.31857

 Mulliken charges:
               1
     1  C   -0.298420
     2  C   -0.299005
     3  C   -0.482968
     4  H    0.151988
     5  H    0.147299
     6  H    0.153549
     7  H    0.147114
     8  H    0.155645
     9  H    0.160769
    10  H    0.160306
    11  C   -0.298159
    12  C   -0.299236
    13  C   -0.475678
    14  H    0.150941
    15  H    0.147579
    16  H    0.153371
    17  H    0.149143
    18  H    0.154261
    19  H    0.156373
    20  H    0.160282
    21  C   -0.170906
    22  C   -0.219078
    23  C   -0.172120
    24  C    0.159832
    25  C   -0.170770
    26  C   -0.218450
    27  H    0.225839
    28  H    0.224333
    29  H    0.278533
    30  H    0.275963
    31  H    0.223734
    32  N    0.488313
    33  O   -0.460622
    34  O   -0.459756
 Sum of Mulliken charges =  -0.00000

 Dipole moment (field-independent basis, Debye):
    X=             -2.5483    Y=              3.8637    Z=              2.2480  Tot=              5.1454
 Quadrupole moment (field-independent basis, Debye-Ang):
   XX=           -111.2496   YY=            -90.8395   ZZ=            -91.9901
   XY=             11.7428   XZ=              6.2164   YZ=             -1.7381

 Normal termination of Gaussian 16 at Thu May  6 06:02:04 2021.
