 Gaussian 16, Revision A.03,
 Gaussian 16:  EM64L-G16RevA.03 25-Dec-2016

 -------------
 #p 6-31g* mp2
 -------------

 ------------------------------------------------------
 Input file generated by CHIRIPA (05-May-2021 14:55:24)
 ------------------------------------------------------
 Symbolic Z-matrix:
 Charge =  0 Multiplicity = 1

                         Standard orientation:
 ---------------------------------------------------------------------
 Center     Atomic      Atomic             Coordinates (Angstroms)
 Number     Number       Type             X           Y           Z
 ---------------------------------------------------------------------
      1          6           0       -0.289332   -1.114444    0.324935
      2          6           0       -0.687756   -0.572898   -0.901648
      3          6           0       -2.006307   -0.151137   -1.096814
      4          6           0       -2.904242   -0.286183   -0.039097
      5          6           0       -2.537721   -0.821740    1.194650
      6          6           0       -1.213956   -1.236920    1.367332
      7          1           0        0.736975   -1.439522    0.467812
      8          1           0        0.028165   -0.476577   -1.712958
      9          1           0       -2.341612    0.271638   -2.036095
     10          1           0       -3.274086   -0.905069    1.984740
     11          1           0       -0.907350   -1.657122    2.320992
     12          7           0       -4.302893    0.156833   -0.233809
     13          8           0       -5.074811    0.027144    0.713798
     14          8           0       -4.600753    0.625368   -1.330345
     15          6           0        2.840686    0.920574    0.189901
     16          6           0        3.188005    2.405854    0.083613
     17          6           0        2.014175    3.315041    0.448713
     18          1           0        1.987669    0.702086   -0.467038
     19          1           0        2.510380    0.700818    1.214596
     20          1           0        3.518877    2.622460   -0.940214
     21          1           0        4.040416    2.620793    0.740737
     22          1           0        1.687114    3.127861    1.476621
     23          1           0        1.162612    3.129537   -0.213880
     24          1           0        2.284443    4.372377    0.365906
     25          6           0        4.004057   -0.001027   -0.171965
     26          6           0        3.656738   -1.486308   -0.065677
     27          6           0        4.830568   -2.395495   -0.430776
     28          1           0        4.334363    0.218728   -1.196660
     29          1           0        4.857074    0.217460    0.484974
     30          1           0        2.804326   -1.701247   -0.722800
     31          1           0        3.325866   -1.702914    0.958149
     32          1           0        5.682132   -2.209991    0.231816
     33          1           0        5.157629   -2.208315   -1.458685
     34          1           0        4.560300   -3.452830   -0.347970
 ---------------------------------------------------------------------

 SCF Done:  E(RHF) =  -669.534157936     A.U. after   15 cycles
 E2 =    -0.2093862718D+01 EUMP2 =    -0.67162802065434D+03

 The electronic state is 1-A.
 Alpha  occ. eigenvalues --  -20.60694 -20.60689 -15.85750 -11.31087 -11.27690
 Alpha  occ. eigenvalues --  -11.27680 -11.27292 -11.26663 -11.26638 -11.22991
 Alpha  occ. eigenvalues --  -11.22446 -11.22366 -11.22302 -11.22104 -11.21590
 Alpha  occ. eigenvalues --   -1.59771  -1.39326  -1.19269  -1.09487  -1.08646
 Alpha  occ. eigenvalues --   -1.04680  -1.04474  -0.96875  -0.95496  -0.87895
 Alpha  occ. eigenvalues --   -0.86080  -0.82352  -0.80611  -0.79323  -0.77392
 Alpha  occ. eigenvalues --   -0.71968  -0.71096  -0.70345  -0.66140  -0.64909
 Alpha  occ. eigenvalues --   -0.64674  -0.62041  -0.61868  -0.60285  -0.58505
 Alpha  occ. eigenvalues --   -0.56144  -0.55200  -0.53535  -0.53359  -0.52945
 Alpha  occ. eigenvalues --   -0.52771  -0.50820  -0.48887  -0.48724  -0.48710
 Alpha  occ. eigenvalues --   -0.47649  -0.46732  -0.46715  -0.44738  -0.44731
 Alpha  occ. eigenvalues --   -0.37169  -0.36284
 Alpha virt. eigenvalues --    0.05146   0.11220   0.16594   0.19687   0.22583
 Alpha virt. eigenvalues --    0.23497   0.24309   0.25675   0.27131   0.28006
 Alpha virt. eigenvalues --    0.29879   0.30347   0.30772   0.31207   0.31658

 Mulliken charges:
               1
     1  C   -0.171510
     2  C   -0.224162
     3  C   -0.171469
     4  C    0.157479
     5  C   -0.170001
     6  C   -0.222942
     7  H    0.240482
     8  H    0.221581
     9  H    0.275104
    10  H    0.275194
    11  H    0.223015
    12  N    0.488134
    13  O   -0.460778
    14  O   -0.460912
    15  C   -0.304471
    16  C   -0.300265
    17  C   -0.475985
    18  H    0.148137
    19  H    0.148462
    20  H    0.152930
    21  H    0.153985
    22  H    0.156488
    23  H    0.156737
    24  H    0.163057
    25  C   -0.297129
    26  C   -0.307787
    27  C   -0.474576
    28  H    0.152317
    29  H    0.154189
    30  H    0.144865
    31  H    0.149410
    32  H    0.159405
    33  H    0.158637
    34  H    0.162381
 Sum of Mulliken charges =  -0.00000

 Dipole moment (field-independent basis, Debye):
    X=              5.1868    Y=             -1.4883    Z=              0.7133  Tot=              5.4430
 Quadrupole moment (field-independent basis, Debye-Ang):
   XX=           -123.4126   YY=            -94.4887   ZZ=            -89.6281
   XY=              4.0156   XZ=             -2.9411   YZ=             -1.7811

 Normal termination of Gaussian 16 at Thu May  6 20:53:04 2021.
