 Gaussian 16, Revision A.03,
 Gaussian 16:  EM64L-G16RevA.03 25-Dec-2016

 -------------
 #p 6-31g* mp2
 -------------

 ------------------------------------------------------
 Input file generated by CHIRIPA (05-May-2021 14:51:08)
 ------------------------------------------------------
 Symbolic Z-matrix:
 Charge =  0 Multiplicity = 1

                         Standard orientation:
 ---------------------------------------------------------------------
 Center     Atomic      Atomic             Coordinates (Angstroms)
 Number     Number       Type             X           Y           Z
 ---------------------------------------------------------------------
      1          6           0       -3.202448   -0.677506   -0.516801
      2          6           0       -4.195307   -1.324463    0.449461
      3          6           0       -4.447608   -2.799927    0.137782
      4          1           0       -3.581335   -0.777348   -1.543164
      5          1           0       -2.252669   -1.228779   -0.479220
      6          1           0       -5.142484   -0.771291    0.411090
      7          1           0       -3.814104   -1.222900    1.473661
      8          1           0       -3.515163   -3.370745    0.195352
      9          1           0       -4.851091   -2.916569   -0.873256
     10          1           0       -5.160303   -3.242558    0.840637
     11          6           0       -2.939909    0.797483   -0.218121
     12          6           0       -1.947050    1.444441   -1.184383
     13          6           0       -1.694749    2.919905   -0.872704
     14          1           0       -3.889688    1.348757   -0.255702
     15          1           0       -2.561022    0.897325    0.808242
     16          1           0       -2.328253    1.342878   -2.208583
     17          1           0       -0.999873    0.891268   -1.146012
     18          1           0       -1.291266    3.036547    0.138334
     19          1           0       -2.627194    3.490722   -0.930274
     20          1           0       -0.982054    3.362535   -1.575559
     21          6           0        2.723611    0.244171    0.975832
     22          6           0        1.263941    0.618252    0.716194
     23          6           0        0.582161    1.225507    1.942657
     24          1           0        2.770156   -0.466401    1.812413
     25          1           0        3.273145    1.140254    1.295900
     26          1           0        0.717634   -0.277986    0.395378
     27          1           0        1.220850    1.327869   -0.119990
     28          1           0        1.101670    2.134961    2.261411
     29          1           0        0.595595    0.519982    2.779708
     30          1           0       -0.460458    1.485526    1.734823
     31          6           0        3.418747   -0.364149   -0.240910
     32          6           0        4.878416   -0.738230    0.018728
     33          6           0        5.560196   -1.345484   -1.207735
     34          1           0        2.869212   -1.260231   -0.560977
     35          1           0        3.372201    0.346423   -1.077490
     36          1           0        4.921507   -1.447846    0.854912
     37          1           0        5.424722    0.158008    0.339543
     38          1           0        5.546761   -0.639960   -2.044787
     39          1           0        5.040686   -2.254938   -1.526490
     40          1           0        6.602816   -1.605503   -0.999901
 ---------------------------------------------------------------------

 SCF Done:  E(RHF) =  -470.731580348     A.U. after   11 cycles
 E2 =    -0.1585117701D+01 EUMP2 =    -0.47231669804923D+03

 The electronic state is 1-A.
 Alpha  occ. eigenvalues --  -11.21677 -11.21634 -11.21592 -11.21466 -11.21454
 Alpha  occ. eigenvalues --  -11.21394 -11.21382 -11.21315 -11.21126 -11.21095
 Alpha  occ. eigenvalues --  -11.21069 -11.21004  -1.08518  -1.08377  -1.03665
 Alpha  occ. eigenvalues --   -1.03430  -0.96063  -0.95934  -0.87065  -0.86968
 Alpha  occ. eigenvalues --   -0.79784  -0.79471  -0.78368  -0.78142  -0.65132
 Alpha  occ. eigenvalues --   -0.65116  -0.61219  -0.60929  -0.59359  -0.59203
 Alpha  occ. eigenvalues --   -0.57570  -0.57558  -0.55445  -0.55103  -0.52760
 Alpha  occ. eigenvalues --   -0.52643  -0.52461  -0.52378  -0.50013  -0.49870
 Alpha  occ. eigenvalues --   -0.48166  -0.47846  -0.46702  -0.46567  -0.46005
 Alpha  occ. eigenvalues --   -0.45762  -0.45728  -0.45375  -0.43750  -0.43746
 Alpha virt. eigenvalues --    0.20390   0.23132   0.23483   0.25187   0.25548
 Alpha virt. eigenvalues --    0.26259   0.26625   0.27650   0.28364   0.29339
 Alpha virt. eigenvalues --    0.30653   0.31206   0.31361   0.31870   0.32209

 Mulliken charges:
               1
     1  C   -0.298628
     2  C   -0.299755
     3  C   -0.475658
     4  H    0.149842
     5  H    0.149463
     6  H    0.152032
     7  H    0.152068
     8  H    0.154901
     9  H    0.155201
    10  H    0.160244
    11  C   -0.302935
    12  C   -0.307209
    13  C   -0.479595
    14  H    0.149585
    15  H    0.152745
    16  H    0.151824
    17  H    0.161534
    18  H    0.158898
    19  H    0.154959
    20  H    0.159268
    21  C   -0.297535
    22  C   -0.304135
    23  C   -0.483449
    24  H    0.149672
    25  H    0.149875
    26  H    0.152207
    27  H    0.155963
    28  H    0.155644
    29  H    0.155319
    30  H    0.167434
    31  C   -0.298426
    32  C   -0.299687
    33  C   -0.475746
    34  H    0.149365
    35  H    0.149759
    36  H    0.152003
    37  H    0.152063
    38  H    0.155274
    39  H    0.155233
    40  H    0.160382
 Sum of Mulliken charges =  -0.00000

 Dipole moment (field-independent basis, Debye):
    X=              0.0437    Y=             -0.0014    Z=              0.0088  Tot=              0.0446
 Quadrupole moment (field-independent basis, Debye-Ang):
   XX=            -84.6450   YY=            -85.2537   ZZ=            -85.0027
   XY=              0.1178   XZ=              0.8067   YZ=             -0.8619

 Normal termination of Gaussian 16 at Thu May  6 14:52:45 2021.
