 Gaussian 16, Revision A.03,
 Gaussian 16:  EM64L-G16RevA.03 25-Dec-2016

 -------------
 #p 6-31g* mp2
 -------------

 ------------------------------------------------------
 Input file generated by CHIRIPA (05-May-2021 14:53:14)
 ------------------------------------------------------
 Symbolic Z-matrix:
 Charge =  0 Multiplicity = 1

                         Standard orientation:
 ---------------------------------------------------------------------
 Center     Atomic      Atomic             Coordinates (Angstroms)
 Number     Number       Type             X           Y           Z
 ---------------------------------------------------------------------
      1          6           0        2.301953   -1.005851    0.126958
      2          6           0        1.990563   -1.938693    1.297781
      3          6           0        0.827084   -2.886574    1.005150
      4          1           0        1.403961   -0.421967   -0.117241
      5          1           0        2.533823   -1.609042   -0.761745
      6          1           0        1.760701   -1.333924    2.184367
      7          1           0        2.889458   -2.520287    1.539345
      8          1           0        1.050789   -3.514433    0.136617
      9          1           0       -0.084380   -2.321330    0.785303
     10          1           0        0.621567   -3.544384    1.855390
     11          6           0        3.462733   -0.052227    0.404301
     12          6           0        3.774123    0.880615   -0.766523
     13          6           0        4.937602    1.828496   -0.473891
     14          1           0        3.230863    0.550965    1.293003
     15          1           0        4.360725   -0.636111    0.648500
     16          1           0        2.875228    1.462209   -1.008087
     17          1           0        4.003985    0.275846   -1.653108
     18          1           0        5.849066    1.263252   -0.254045
     19          1           0        4.713897    2.456356    0.394641
     20          1           0        5.143119    2.486306   -1.324132
     21          6           0       -2.097843    2.743083    0.748707
     22          6           0       -1.139577    2.297841   -0.167811
     23          6           0       -1.214980    1.008942   -0.704097
     24          6           0       -2.266717    0.188078   -0.299968
     25          6           0       -3.236795    0.602703    0.611255
     26          6           0       -3.141554    1.895588    1.134635
     27          1           0       -2.031562    3.745879    1.160294
     28          1           0       -0.327920    2.953842   -0.469342
     29          1           0       -0.486651    0.638677   -1.415335
     30          1           0       -4.034333   -0.074151    0.892715
     31          1           0       -3.887174    2.238688    1.846236
     32          7           0       -2.357044   -1.178532   -0.860878
     33          8           0       -3.293387   -1.882364   -0.488696
     34          8           0       -1.489789   -1.519971   -1.662080
 ---------------------------------------------------------------------

 SCF Done:  E(RHF) =  -669.535083167     A.U. after   15 cycles
 E2 =    -0.2093571640D+01 EUMP2 =    -0.67162865480723D+03

 The electronic state is 1-A.
 Alpha  occ. eigenvalues --  -20.60856 -20.60844 -15.85881 -11.31273 -11.27840
 Alpha  occ. eigenvalues --  -11.27827 -11.27581 -11.26860 -11.26849 -11.21872
 Alpha  occ. eigenvalues --  -11.21431 -11.21330 -11.21281 -11.21185 -11.20396
 Alpha  occ. eigenvalues --   -1.59923  -1.39474  -1.19450  -1.08839  -1.08383
 Alpha  occ. eigenvalues --   -1.04852  -1.03424  -0.95844  -0.95671  -0.86856
 Alpha  occ. eigenvalues --   -0.86246  -0.82500  -0.79524  -0.78186  -0.77524
 Alpha  occ. eigenvalues --   -0.72107  -0.71269  -0.70554  -0.65100  -0.65064
 Alpha  occ. eigenvalues --   -0.64821  -0.62195  -0.60831  -0.59257  -0.57445
 Alpha  occ. eigenvalues --   -0.55355  -0.55130  -0.53188  -0.52950  -0.52545
 Alpha  occ. eigenvalues --   -0.52224  -0.49793  -0.48869  -0.48868  -0.47820
 Alpha  occ. eigenvalues --   -0.46596  -0.45784  -0.45603  -0.44725  -0.43680
 Alpha  occ. eigenvalues --   -0.37424  -0.36426
 Alpha virt. eigenvalues --    0.04938   0.11102   0.16414   0.20293   0.23010
 Alpha virt. eigenvalues --    0.24296   0.25133   0.27078   0.27753   0.27998
 Alpha virt. eigenvalues --    0.29503   0.30533   0.31736   0.31797   0.32177

 Mulliken charges:
               1
     1  C   -0.300022
     2  C   -0.301149
     3  C   -0.471081
     4  H    0.146371
     5  H    0.154637
     6  H    0.148058
     7  H    0.150753
     8  H    0.162258
     9  H    0.154578
    10  H    0.157564
    11  C   -0.298131
    12  C   -0.297335
    13  C   -0.475577
    14  H    0.147022
    15  H    0.151196
    16  H    0.140517
    17  H    0.155479
    18  H    0.157617
    19  H    0.153316
    20  H    0.159583
    21  C   -0.170582
    22  C   -0.220084
    23  C   -0.171366
    24  C    0.155443
    25  C   -0.170913
    26  C   -0.218263
    27  H    0.226046
    28  H    0.224337
    29  H    0.278074
    30  H    0.276082
    31  H    0.223888
    32  N    0.488024
    33  O   -0.458900
    34  O   -0.457441
 Sum of Mulliken charges =  -0.00000

 Dipole moment (field-independent basis, Debye):
    X=              0.2408    Y=              4.6906    Z=              1.9167  Tot=              5.0729
 Quadrupole moment (field-independent basis, Debye-Ang):
   XX=            -93.1162   YY=            -93.2254   ZZ=            -95.0821
   XY=            -11.5149   XZ=             -7.6847   YZ=             -1.0863

 Normal termination of Gaussian 16 at Wed May  5 21:51:04 2021.
