 Gaussian 16, Revision A.03,
 Gaussian 16:  EM64L-G16RevA.03 25-Dec-2016

 -------------
 #p 6-31g* mp2
 -------------

 ------------------------------------------------------
 Input file generated by CHIRIPA (05-May-2021 14:51:09)
 ------------------------------------------------------
 Symbolic Z-matrix:
 Charge =  0 Multiplicity = 1

                         Standard orientation:
 ---------------------------------------------------------------------
 Center     Atomic      Atomic             Coordinates (Angstroms)
 Number     Number       Type             X           Y           Z
 ---------------------------------------------------------------------
      1          6           0        4.094635    0.267491   -0.545213
      2          6           0        4.854472   -0.936985    0.011447
      3          6           0        6.002853   -1.381786   -0.894736
      4          1           0        3.702490    0.017533   -1.540547
      5          1           0        4.796013    1.101543   -0.685999
      6          1           0        4.151608   -1.768079    0.152442
      7          1           0        5.244690   -0.684196    1.005651
      8          1           0        6.726121   -0.570517   -1.026371
      9          1           0        5.626828   -1.660560   -1.884428
     10          1           0        6.532418   -2.244080   -0.477759
     11          6           0        2.943626    0.723955    0.349520
     12          6           0        2.183790    1.928431   -0.207140
     13          6           0        1.035408    2.373232    0.699042
     14          1           0        2.242248   -0.110097    0.490306
     15          1           0        3.335771    0.973913    1.344853
     16          1           0        1.793571    1.675642   -1.201345
     17          1           0        2.886654    2.759525   -0.348136
     18          1           0        1.411434    2.652006    1.688734
     19          1           0        0.312140    1.561964    0.830677
     20          1           0        0.505844    3.235526    0.282065
     21          6           0       -3.046096   -0.686956    0.666266
     22          6           0       -1.605005   -0.910487    0.206615
     23          6           0       -0.670698   -1.292420    1.355088
     24          1           0       -3.062104    0.101205    1.431441
     25          1           0       -3.414809   -1.601258    1.151545
     26          1           0       -1.239587    0.003501   -0.278886
     27          1           0       -1.592451   -1.698073   -0.557693
     28          1           0       -1.008395   -2.216475    1.835383
     29          1           0       -0.653526   -0.505234    2.115775
     30          1           0        0.354313   -1.447477    1.004132
     31          6           0       -3.992166   -0.304490   -0.470572
     32          6           0       -5.433256   -0.080959   -0.010921
     33          6           0       -6.367563    0.300974   -1.159394
     34          1           0       -3.623452    0.609812   -0.955851
     35          1           0       -3.976158   -1.092651   -1.235747
     36          1           0       -5.445810    0.706627    0.753387
     37          1           0       -5.798675   -0.994947    0.474579
     38          1           0       -6.384735   -0.486212   -1.920081
     39          1           0       -6.029866    1.225029   -1.639689
     40          1           0       -7.392574    0.456030   -0.808439
 ---------------------------------------------------------------------

 SCF Done:  E(RHF) =  -470.732471106     A.U. after   11 cycles
 E2 =    -0.1583963301D+01 EUMP2 =    -0.47231643440682D+03

 The electronic state is 1-A.
 Alpha  occ. eigenvalues --  -11.21657 -11.21613 -11.21594 -11.21583 -11.21433
 Alpha  occ. eigenvalues --  -11.21374 -11.21372 -11.21307 -11.21121 -11.21080
 Alpha  occ. eigenvalues --  -11.21063 -11.21017  -1.08475  -1.08402  -1.03607
 Alpha  occ. eigenvalues --   -1.03483  -0.96035  -0.95952  -0.87040  -0.86981
 Alpha  occ. eigenvalues --   -0.79638  -0.79576  -0.78274  -0.78227  -0.65219
 Alpha  occ. eigenvalues --   -0.64971  -0.61245  -0.60704  -0.59444  -0.59265
 Alpha  occ. eigenvalues --   -0.57649  -0.57556  -0.55480  -0.55092  -0.52775
 Alpha  occ. eigenvalues --   -0.52650  -0.52499  -0.52298  -0.49971  -0.49909
 Alpha  occ. eigenvalues --   -0.47954  -0.47854  -0.46685  -0.46580  -0.45817
 Alpha  occ. eigenvalues --   -0.45754  -0.45729  -0.45654  -0.43784  -0.43758
 Alpha virt. eigenvalues --    0.20471   0.22996   0.23699   0.24856   0.25881
 Alpha virt. eigenvalues --    0.26480   0.27006   0.27574   0.27846   0.29382
 Alpha virt. eigenvalues --    0.30820   0.31410   0.31624   0.31753   0.32135

 Mulliken charges:
               1
     1  C   -0.297828
     2  C   -0.299519
     3  C   -0.475678
     4  H    0.149420
     5  H    0.149487
     6  H    0.151297
     7  H    0.152091
     8  H    0.155216
     9  H    0.155141
    10  H    0.160239
    11  C   -0.305942
    12  C   -0.298919
    13  C   -0.484824
    14  H    0.157054
    15  H    0.149583
    16  H    0.151436
    17  H    0.151915
    18  H    0.154923
    19  H    0.165833
    20  H    0.159288
    21  C   -0.298201
    22  C   -0.304735
    23  C   -0.482668
    24  H    0.150094
    25  H    0.149829
    26  H    0.155024
    27  H    0.152335
    28  H    0.156475
    29  H    0.156636
    30  H    0.164598
    31  C   -0.298413
    32  C   -0.299726
    33  C   -0.475738
    34  H    0.149878
    35  H    0.149575
    36  H    0.152162
    37  H    0.151929
    38  H    0.155142
    39  H    0.155264
    40  H    0.160326
 Sum of Mulliken charges =  -0.00000

 Dipole moment (field-independent basis, Debye):
    X=             -0.0292    Y=             -0.0211    Z=              0.0163  Tot=              0.0395
 Quadrupole moment (field-independent basis, Debye-Ang):
   XX=            -85.7475   YY=            -83.7587   ZZ=            -85.3260
   XY=              1.1813   XZ=              0.2585   YZ=              0.4391

 Normal termination of Gaussian 16 at Wed May  5 22:59:40 2021.
