 Gaussian 16, Revision A.03,
 Gaussian 16:  EM64L-G16RevA.03 25-Dec-2016

 -------------
 #p 6-31g* mp2
 -------------

 ------------------------------------------------------
 Input file generated by CHIRIPA (05-May-2021 14:55:23)
 ------------------------------------------------------
 Symbolic Z-matrix:
 Charge =  0 Multiplicity = 1

                         Standard orientation:
 ---------------------------------------------------------------------
 Center     Atomic      Atomic             Coordinates (Angstroms)
 Number     Number       Type             X           Y           Z
 ---------------------------------------------------------------------
      1          6           0        2.587282    2.510747    0.296742
      2          6           0        3.901758    2.367249   -0.159418
      3          6           0        4.456134    1.096482   -0.339325
      4          6           0        3.664096   -0.014140   -0.052124
      5          6           0        2.351358    0.096162    0.403774
      6          6           0        1.817634    1.376745    0.576390
      7          1           0        2.164651    3.501721    0.433667
      8          1           0        4.501809    3.246153   -0.377390
      9          1           0        5.471028    0.956567   -0.691222
     10          1           0        1.777775   -0.798696    0.612695
     11          1           0        0.796509    1.485165    0.930781
     12          7           0        4.240057   -1.364639   -0.238724
     13          8           0        3.521522   -2.327291    0.021362
     14          8           0        5.399126   -1.434937   -0.641534
     15          6           0       -5.105488    0.027193   -0.429467
     16          6           0       -6.501835    0.020386    0.193554
     17          6           0       -7.565198    0.611678   -0.732420
     18          1           0       -4.832913    1.058659   -0.691624
     19          1           0       -5.128907   -0.538832   -1.370988
     20          1           0       -6.475472    0.585086    1.134316
     21          1           0       -6.771039   -1.011160    0.454434
     22          1           0       -7.620753    0.044263   -1.667062
     23          1           0       -7.323506    1.649579   -0.983316
     24          1           0       -8.555760    0.596944   -0.267200
     25          6           0       -4.031589   -0.560797    0.484174
     26          6           0       -2.635242   -0.553989   -0.138847
     27          6           0       -1.571879   -1.145281    0.787127
     28          1           0       -4.008171    0.005228    1.425695
     29          1           0       -4.304164   -1.592263    0.746331
     30          1           0       -2.366038    0.477556   -0.399726
     31          1           0       -2.661605   -1.118689   -1.079609
     32          1           0       -1.813571   -2.183182    1.038023
     33          1           0       -1.516324   -0.577867    1.721769
     34          1           0       -0.581317   -1.130548    0.321907
 ---------------------------------------------------------------------

 SCF Done:  E(RHF) =  -669.535470479     A.U. after   15 cycles
 E2 =    -0.2091226117D+01 EUMP2 =    -0.67162669659559D+03

 The electronic state is 1-A.
 Alpha  occ. eigenvalues --  -20.60732 -20.60727 -15.85784 -11.31143 -11.27719
 Alpha  occ. eigenvalues --  -11.27685 -11.27462 -11.26740 -11.26710 -11.22211
 Alpha  occ. eigenvalues --  -11.21919 -11.21862 -11.21848 -11.21753 -11.21339
 Alpha  occ. eigenvalues --   -1.59807  -1.39360  -1.19318  -1.08886  -1.08716
 Alpha  occ. eigenvalues --   -1.04723  -1.04011  -0.96475  -0.95551  -0.87496
 Alpha  occ. eigenvalues --   -0.86119  -0.82382  -0.80075  -0.78674  -0.77429
 Alpha  occ. eigenvalues --   -0.72003  -0.71130  -0.70441  -0.65518  -0.64973
 Alpha  occ. eigenvalues --   -0.64726  -0.62153  -0.61394  -0.59820  -0.58063
 Alpha  occ. eigenvalues --   -0.55754  -0.55230  -0.53241  -0.53045  -0.52913
 Alpha  occ. eigenvalues --   -0.52715  -0.50402  -0.48761  -0.48758  -0.48384
 Alpha  occ. eigenvalues --   -0.47098  -0.46222  -0.46134  -0.44767  -0.44261
 Alpha  occ. eigenvalues --   -0.37304  -0.36319
 Alpha virt. eigenvalues --    0.05085   0.11314   0.16555   0.19910   0.22636
 Alpha virt. eigenvalues --    0.23756   0.26041   0.26056   0.27074   0.27361
 Alpha virt. eigenvalues --    0.28800   0.30217   0.31360   0.31534   0.31693

 Mulliken charges:
               1
     1  C   -0.170969
     2  C   -0.218545
     3  C   -0.170851
     4  C    0.160401
     5  C   -0.178523
     6  C   -0.221170
     7  H    0.225331
     8  H    0.223273
     9  H    0.275456
    10  H    0.281709
    11  H    0.226265
    12  N    0.487933
    13  O   -0.460285
    14  O   -0.460603
    15  C   -0.298472
    16  C   -0.299976
    17  C   -0.475916
    18  H    0.148549
    19  H    0.151320
    20  H    0.151645
    21  H    0.153266
    22  H    0.156128
    23  H    0.154793
    24  H    0.161255
    25  C   -0.299032
    26  C   -0.299271
    27  C   -0.483504
    28  H    0.148496
    29  H    0.152493
    30  H    0.147736
    31  H    0.157092
    32  H    0.164072
    33  H    0.151537
    34  H    0.158367
 Sum of Mulliken charges =  -0.00000

 Dipole moment (field-independent basis, Debye):
    X=             -2.1960    Y=              4.6927    Z=              0.6356  Tot=              5.2199
 Quadrupole moment (field-independent basis, Debye-Ang):
   XX=           -106.2903   YY=            -93.6982   ZZ=            -95.3687
   XY=             20.4118   XZ=              0.6517   YZ=             -0.3888

 Normal termination of Gaussian 16 at Thu May  6 15:55:59 2021.
