 Gaussian 16, Revision A.03,
 Gaussian 16:  EM64L-G16RevA.03 25-Dec-2016

 -------------
 #p 6-31g* mp2
 -------------

 ------------------------------------------------------
 Input file generated by CHIRIPA (05-May-2021 14:57:26)
 ------------------------------------------------------
 Symbolic Z-matrix:
 Charge =  0 Multiplicity = 1

                         Standard orientation:
 ---------------------------------------------------------------------
 Center     Atomic      Atomic             Coordinates (Angstroms)
 Number     Number       Type             X           Y           Z
 ---------------------------------------------------------------------
      1          6           0        6.265463   -0.695413    0.600929
      2          6           0        5.685864    0.431172    1.193714
      3          6           0        4.386403    0.821510    0.856690
      4          6           0        3.692096    0.058813   -0.081138
      5          6           0        4.242156   -1.068594   -0.689148
      6          6           0        5.543032   -1.440387   -0.336956
      7          1           0        7.275465   -0.991433    0.868629
      8          1           0        6.244558    1.011621    1.922401
      9          1           0        3.913513    1.689295    1.300247
     10          1           0        3.660403   -1.627275   -1.412236
     11          1           0        5.990621   -2.315767   -0.798930
     12          7           0        2.315666    0.462230   -0.445959
     13          8           0        1.724935   -0.226542   -1.274975
     14          8           0        1.853613    1.459561    0.104018
     15          6           0       -2.800406    2.216331   -0.465425
     16          6           0       -4.060566    2.188428    0.140988
     17          6           0       -4.689746    0.970439    0.415187
     18          6           0       -4.027085   -0.205850    0.068038
     19          6           0       -2.771255   -0.210879   -0.537070
     20          6           0       -2.160899    1.018700   -0.801925
     21          1           0       -2.318955    3.166997   -0.674800
     22          1           0       -4.559574    3.116957    0.403418
     23          1           0       -5.665056    0.919869    0.883836
     24          1           0       -2.298676   -1.152992   -0.787091
     25          1           0       -1.182214    1.037334   -1.272960
     26          7           0       -4.683205   -1.501415    0.353374
     27          8           0       -4.078414   -2.523790    0.037756
     28          8           0       -5.789841   -1.469972    0.887235
 ---------------------------------------------------------------------

 SCF Done:  E(RHF) =  -868.341442934     A.U. after   16 cycles
 E2 =    -0.2598547979D+01 EUMP2 =    -0.87093999091287D+03

 The electronic state is 1-A.
 Alpha  occ. eigenvalues --  -20.61834 -20.61820 -20.59831 -20.59822 -15.86805
 Alpha  occ. eigenvalues --  -15.84867 -11.31826 -11.29973 -11.28352 -11.28339
 Alpha  occ. eigenvalues --  -11.28028 -11.27286 -11.27271 -11.26552 -11.26361
 Alpha  occ. eigenvalues --  -11.26120 -11.25557 -11.25153  -1.60867  -1.58909
 Alpha  occ. eigenvalues --   -1.40427  -1.38469  -1.19962  -1.18088  -1.09426
 Alpha  occ. eigenvalues --   -1.07529  -1.05310  -1.03417  -0.96319  -0.94419
 Alpha  occ. eigenvalues --   -0.86725  -0.84827  -0.83163  -0.81239  -0.78248
 Alpha  occ. eigenvalues --   -0.76322  -0.73039  -0.72143  -0.71095  -0.71066
 Alpha  occ. eigenvalues --   -0.70228  -0.69198  -0.65618  -0.65312  -0.63720
 Alpha  occ. eigenvalues --   -0.63369  -0.62660  -0.60747  -0.55828  -0.53937
 Alpha  occ. eigenvalues --   -0.53658  -0.53397  -0.51807  -0.51495  -0.49811
 Alpha  occ. eigenvalues --   -0.49753  -0.47863  -0.47818  -0.45902  -0.43933
 Alpha  occ. eigenvalues --   -0.37921  -0.36895  -0.36068  -0.35015
 Alpha virt. eigenvalues --    0.04267   0.06148   0.10766   0.12630   0.15838
 Alpha virt. eigenvalues --    0.17730   0.20935   0.22883   0.26875   0.27794
 Alpha virt. eigenvalues --    0.28948   0.29579   0.30542   0.32006   0.32513

 Mulliken charges:
               1
     1  C   -0.169434
     2  C   -0.218573
     3  C   -0.170186
     4  C    0.158271
     5  C   -0.169951
     6  C   -0.218518
     7  H    0.228085
     8  H    0.225357
     9  H    0.275625
    10  H    0.276633
    11  H    0.226012
    12  N    0.490016
    13  O   -0.465402
    14  O   -0.462522
    15  C   -0.172153
    16  C   -0.218981
    17  C   -0.174248
    18  C    0.157819
    19  C   -0.175203
    20  C   -0.222159
    21  H    0.225136
    22  H    0.218215
    23  H    0.270710
    24  H    0.276157
    25  H    0.248437
    26  N    0.488105
    27  O   -0.462618
    28  O   -0.464630
 Sum of Mulliken charges =  -0.00000

 Dipole moment (field-independent basis, Debye):
    X=              7.8838    Y=              3.1426    Z=              0.2184  Tot=              8.4899
 Quadrupole moment (field-independent basis, Debye-Ang):
   XX=            -86.0321   YY=           -103.7004   ZZ=           -103.6074
   XY=            -26.1503   XZ=              7.6038   YZ=              4.6481

 Normal termination of Gaussian 16 at Thu May  6 14:48:07 2021.
