 Gaussian 16, Revision A.03,
 Gaussian 16:  EM64L-G16RevA.03 25-Dec-2016

 -------------
 #p 6-31g* mp2
 -------------

 ------------------------------------------------------
 Input file generated by CHIRIPA (05-May-2021 14:57:26)
 ------------------------------------------------------
 Symbolic Z-matrix:
 Charge =  0 Multiplicity = 1

                         Standard orientation:
 ---------------------------------------------------------------------
 Center     Atomic      Atomic             Coordinates (Angstroms)
 Number     Number       Type             X           Y           Z
 ---------------------------------------------------------------------
      1          6           0        3.097645    2.334573   -0.579596
      2          6           0        1.896604    1.665746   -0.321348
      3          6           0        1.899036    0.313417    0.033266
      4          6           0        3.126154   -0.342195    0.120685
      5          6           0        4.339487    0.296560   -0.130521
      6          6           0        4.313111    1.649054   -0.483528
      7          1           0        3.086456    3.385158   -0.854444
      8          1           0        0.951167    2.195595   -0.395188
      9          1           0        0.983971   -0.228732    0.238569
     10          1           0        5.266236   -0.258310   -0.048828
     11          1           0        5.247400    2.165920   -0.683523
     12          7           0        3.141403   -1.773932    0.495248
     13          8           0        4.235760   -2.328993    0.565438
     14          8           0        2.058709   -2.313955    0.711547
     15          6           0       -2.625376    2.443044    0.751567
     16          6           0       -3.417805    1.588081    1.524623
     17          6           0       -3.700369    0.291238    1.085415
     18          6           0       -3.171812   -0.119687   -0.137310
     19          6           0       -2.379021    0.708611   -0.930213
     20          6           0       -2.109422    2.001359   -0.471228
     21          1           0       -2.410909    3.448872    1.100437
     22          1           0       -3.819842    1.928405    2.474671
     23          1           0       -4.310953   -0.391400    1.663869
     24          1           0       -1.992383    0.340965   -1.872957
     25          1           0       -1.493709    2.663159   -1.073692
     26          7           0       -3.464087   -1.490429   -0.612749
     27          8           0       -2.986496   -1.828483   -1.693611
     28          8           0       -4.165229   -2.200808    0.104467
 ---------------------------------------------------------------------

 SCF Done:  E(RHF) =  -868.336575196     A.U. after   16 cycles
 E2 =    -0.2600898506D+01 EUMP2 =    -0.87093747370160D+03

 The electronic state is 1-A.
 Alpha  occ. eigenvalues --  -20.61008 -20.61002 -20.60779 -20.60762 -15.86077
 Alpha  occ. eigenvalues --  -15.85833 -11.31741 -11.31345 -11.28421 -11.28309
 Alpha  occ. eigenvalues --  -11.28184 -11.27940 -11.27936 -11.27766 -11.27547
 Alpha  occ. eigenvalues --  -11.27351 -11.27035 -11.26985  -1.60075  -1.59847
 Alpha  occ. eigenvalues --   -1.39622  -1.39395  -1.19964  -1.19549  -1.09298
 Alpha  occ. eigenvalues --   -1.08927  -1.05421  -1.04973  -0.96073  -0.95728
 Alpha  occ. eigenvalues --   -0.86805  -0.86371  -0.82916  -0.82552  -0.77913
 Alpha  occ. eigenvalues --   -0.77561  -0.72288  -0.72046  -0.71402  -0.71174
 Alpha  occ. eigenvalues --   -0.71043  -0.70671  -0.65608  -0.65535  -0.65204
 Alpha  occ. eigenvalues --   -0.64928  -0.62788  -0.62273  -0.55896  -0.55509
 Alpha  occ. eigenvalues --   -0.53720  -0.53558  -0.53300  -0.53000  -0.49070
 Alpha  occ. eigenvalues --   -0.49024  -0.48820  -0.48792  -0.44962  -0.44767
 Alpha  occ. eigenvalues --   -0.37949  -0.37557  -0.37034  -0.36581
 Alpha virt. eigenvalues --    0.04637   0.04980   0.10458   0.11051   0.15963
 Alpha virt. eigenvalues --    0.16419   0.19563   0.21871   0.25322   0.27599
 Alpha virt. eigenvalues --    0.28036   0.28433   0.29640   0.31538   0.31814

 Mulliken charges:
               1
     1  C   -0.171658
     2  C   -0.221680
     3  C   -0.172867
     4  C    0.159396
     5  C   -0.170244
     6  C   -0.218433
     7  H    0.223324
     8  H    0.216853
     9  H    0.278266
    10  H    0.276746
    11  H    0.223785
    12  N    0.487870
    13  O   -0.460232
    14  O   -0.456848
    15  C   -0.171171
    16  C   -0.218019
    17  C   -0.167766
    18  C    0.159714
    19  C   -0.174555
    20  C   -0.226015
    21  H    0.225994
    22  H    0.226590
    23  H    0.279671
    24  H    0.278734
    25  H    0.218006
    26  N    0.488811
    27  O   -0.457450
    28  O   -0.456825
 Sum of Mulliken charges =  -0.00000

 Dipole moment (field-independent basis, Debye):
    X=              0.7484    Y=              9.6013    Z=              0.4603  Tot=              9.6414
 Quadrupole moment (field-independent basis, Debye-Ang):
   XX=           -104.5891   YY=           -110.7996   ZZ=           -103.1331
   XY=              0.9115   XZ=            -12.8755   YZ=             -0.4178

 Normal termination of Gaussian 16 at Wed May  5 18:02:00 2021.
