 Gaussian 16, Revision A.03,
 Gaussian 16:  EM64L-G16RevA.03 25-Dec-2016

 -------------
 #p 6-31g* mp2
 -------------

 ------------------------------------------------------
 Input file generated by CHIRIPA (05-May-2021 14:51:13)
 ------------------------------------------------------
 Symbolic Z-matrix:
 Charge =  0 Multiplicity = 1

                         Standard orientation:
 ---------------------------------------------------------------------
 Center     Atomic      Atomic             Coordinates (Angstroms)
 Number     Number       Type             X           Y           Z
 ---------------------------------------------------------------------
      1          6           0        3.899497   -0.568383    0.231636
      2          6           0        4.751628   -0.349944   -1.019021
      3          6           0        5.796536   -1.447644   -1.221539
      4          1           0        4.556227   -0.618173    1.110937
      5          1           0        3.398745   -1.543828    0.159874
      6          1           0        5.249536    0.625406   -0.945556
      7          1           0        4.092777   -0.300476   -1.895425
      8          1           0        5.313944   -2.425339   -1.320635
      9          1           0        6.477276   -1.494196   -0.365369
     10          1           0        6.394459   -1.271696   -2.121200
     11          6           0        2.850317    0.520781    0.447677
     12          6           0        1.998186    0.302342    1.698333
     13          6           0        0.953278    1.400043    1.900851
     14          1           0        3.351069    1.496226    0.519438
     15          1           0        2.193587    0.570571   -0.431625
     16          1           0        2.657037    0.252874    2.574737
     17          1           0        1.500278   -0.673008    1.624868
     18          1           0        0.272538    1.446594    1.044681
     19          1           0        1.435870    2.377737    1.999947
     20          1           0        0.355355    1.224094    2.800513
     21          6           0       -3.327450   -0.651632    0.013855
     22          6           0       -4.506542   -1.577555   -0.286801
     23          6           0       -4.397243   -2.924936    0.427632
     24          1           0       -2.393745   -1.149884   -0.280905
     25          1           0       -3.265692   -0.488511    1.098739
     26          1           0       -4.566899   -1.737770   -1.370915
     27          1           0       -5.437564   -1.076963    0.008532
     28          1           0       -4.359995   -2.783752    1.512657
     29          1           0       -3.484381   -3.448314    0.125373
     30          1           0       -5.250409   -3.571117    0.198684
     31          6           0       -3.422364    0.699234   -0.693168
     32          6           0       -2.243272    1.625157   -0.392512
     33          6           0       -2.352571    2.972538   -1.106944
     34          1           0       -3.484122    0.536113   -1.778051
     35          1           0       -4.356069    1.197486   -0.398408
     36          1           0       -1.312250    1.124565   -0.687845
     37          1           0       -2.182916    1.785372    0.691603
     38          1           0       -3.265433    3.495915   -0.804685
     39          1           0       -2.389819    2.831353   -2.191969
     40          1           0       -1.499405    3.618719   -0.877996
 ---------------------------------------------------------------------

 SCF Done:  E(RHF) =  -470.732618761     A.U. after   11 cycles
 E2 =    -0.1583121251D+01 EUMP2 =    -0.47231574001252D+03

 The electronic state is 1-A.
 Alpha  occ. eigenvalues --  -11.21628 -11.21625 -11.21594 -11.21533 -11.21433
 Alpha  occ. eigenvalues --  -11.21385 -11.21374 -11.21325 -11.21093 -11.21092
 Alpha  occ. eigenvalues --  -11.21066 -11.20882  -1.08469  -1.08395  -1.03581
 Alpha  occ. eigenvalues --   -1.03467  -0.96016  -0.95922  -0.87040  -0.86936
 Alpha  occ. eigenvalues --   -0.79739  -0.79468  -0.78318  -0.78176  -0.65101
 Alpha  occ. eigenvalues --   -0.65026  -0.60976  -0.60893  -0.59395  -0.59295
 Alpha  occ. eigenvalues --   -0.57707  -0.57469  -0.55291  -0.55218  -0.52710
 Alpha  occ. eigenvalues --   -0.52620  -0.52442  -0.52343  -0.49953  -0.49930
 Alpha  occ. eigenvalues --   -0.48105  -0.47707  -0.46681  -0.46586  -0.45900
 Alpha  occ. eigenvalues --   -0.45743  -0.45709  -0.45471  -0.43807  -0.43741
 Alpha virt. eigenvalues --    0.21689   0.23146   0.23638   0.24729   0.25965
 Alpha virt. eigenvalues --    0.26494   0.27135   0.27711   0.27966   0.29064
 Alpha virt. eigenvalues --    0.30616   0.31078   0.31654   0.31968   0.32062

 Mulliken charges:
               1
     1  C   -0.298221
     2  C   -0.299600
     3  C   -0.475681
     4  H    0.149771
     5  H    0.149337
     6  H    0.151949
     7  H    0.151697
     8  H    0.155103
     9  H    0.155219
    10  H    0.160195
    11  C   -0.298357
    12  C   -0.299135
    13  C   -0.485005
    14  H    0.149543
    15  H    0.148667
    16  H    0.151412
    17  H    0.151488
    18  H    0.168137
    19  H    0.153713
    20  H    0.158597
    21  C   -0.298392
    22  C   -0.299641
    23  C   -0.475695
    24  H    0.149006
    25  H    0.149930
    26  H    0.151924
    27  H    0.152081
    28  H    0.155292
    29  H    0.155044
    30  H    0.160355
    31  C   -0.297067
    32  C   -0.304615
    33  C   -0.476434
    34  H    0.149353
    35  H    0.149842
    36  H    0.151949
    37  H    0.156264
    38  H    0.155546
    39  H    0.155109
    40  H    0.161318
 Sum of Mulliken charges =  -0.00000

 Dipole moment (field-independent basis, Debye):
    X=             -0.0557    Y=              0.0168    Z=             -0.0133  Tot=              0.0597
 Quadrupole moment (field-independent basis, Debye-Ang):
   XX=            -84.7282   YY=            -85.8816   ZZ=            -84.2165
   XY=              0.6132   XZ=              0.1454   YZ=              0.8444

 Normal termination of Gaussian 16 at Thu May  6 05:33:36 2021.
