 Gaussian 16, Revision A.03,
 Gaussian 16:  EM64L-G16RevA.03 25-Dec-2016

 -------------
 #p 6-31g* mp2
 -------------

 ------------------------------------------------------
 Input file generated by CHIRIPA (05-May-2021 14:51:08)
 ------------------------------------------------------
 Symbolic Z-matrix:
 Charge =  0 Multiplicity = 1

                         Standard orientation:
 ---------------------------------------------------------------------
 Center     Atomic      Atomic             Coordinates (Angstroms)
 Number     Number       Type             X           Y           Z
 ---------------------------------------------------------------------
      1          6           0        2.927931    0.471000    0.552896
      2          6           0        3.947894   -0.472840   -0.084934
      3          6           0        4.717445   -1.296834    0.947838
      4          1           0        3.446335    1.144567    1.248964
      5          1           0        2.221112   -0.116814    1.154789
      6          1           0        4.651750    0.116439   -0.686561
      7          1           0        3.427030   -1.144110   -0.779709
      8          1           0        4.030797   -1.909203    1.541234
      9          1           0        5.262475   -0.641492    1.634911
     10          1           0        5.441121   -1.964642    0.470150
     11          6           0        2.150646    1.301542   -0.466788
     12          6           0        1.130683    2.245382    0.171043
     13          6           0        0.361132    3.069377   -0.861729
     14          1           0        2.857465    1.889357   -1.068681
     15          1           0        1.632242    0.627976   -1.162856
     16          1           0        1.651547    2.916653    0.865817
     17          1           0        0.426827    1.656104    0.772669
     18          1           0       -0.183898    2.414034   -1.548802
     19          1           0        1.047780    3.681746   -1.455125
     20          1           0       -0.362544    3.737185   -0.384042
     21          6           0       -2.871653   -0.247506    0.211790
     22          6           0       -4.397708   -0.333307    0.254004
     23          6           0       -5.048133    0.952233    0.765990
     24          1           0       -2.495530   -0.020436    1.218724
     25          1           0       -2.576303    0.594507   -0.429439
     26          1           0       -4.690072   -1.175761    0.893855
     27          1           0       -4.770229   -0.560388   -0.753110
     28          1           0       -4.785301    1.799128    0.123892
     29          1           0       -4.704689    1.180259    1.780214
     30          1           0       -6.139205    0.868936    0.787969
     31          6           0       -2.206924   -1.525036   -0.297898
     32          6           0       -0.680870   -1.439236   -0.340113
     33          6           0       -0.030444   -2.724775   -0.852098
     34          1           0       -2.502274   -2.367051    0.343330
     35          1           0       -2.583047   -1.752106   -1.304832
     36          1           0       -0.308348   -1.212154    0.667001
     37          1           0       -0.388505   -0.596782   -0.979964
     38          1           0       -0.373888   -2.952801   -1.866323
     39          1           0       -0.293275   -3.571671   -0.210001
     40          1           0        1.060629   -2.641479   -0.874077
 ---------------------------------------------------------------------

 SCF Done:  E(RHF) =  -470.732814849     A.U. after   11 cycles
 E2 =    -0.1585042101D+01 EUMP2 =    -0.47231785695057D+03

 The electronic state is 1-A.
 Alpha  occ. eigenvalues --  -11.21687 -11.21641 -11.21593 -11.21525 -11.21468
 Alpha  occ. eigenvalues --  -11.21407 -11.21346 -11.21275 -11.21171 -11.21092
 Alpha  occ. eigenvalues --  -11.21064 -11.21063  -1.08526  -1.08363  -1.03602
 Alpha  occ. eigenvalues --   -1.03498  -0.96053  -0.95942  -0.87070  -0.86959
 Alpha  occ. eigenvalues --   -0.79684  -0.79552  -0.78324  -0.78207  -0.65200
 Alpha  occ. eigenvalues --   -0.64995  -0.61075  -0.60836  -0.59398  -0.59316
 Alpha  occ. eigenvalues --   -0.57659  -0.57561  -0.55351  -0.55209  -0.52743
 Alpha  occ. eigenvalues --   -0.52651  -0.52470  -0.52375  -0.50057  -0.49849
 Alpha  occ. eigenvalues --   -0.48047  -0.47822  -0.46836  -0.46576  -0.46042
 Alpha  occ. eigenvalues --   -0.45964  -0.45489  -0.45315  -0.43842  -0.43745
 Alpha virt. eigenvalues --    0.19413   0.21681   0.23570   0.24325   0.24849
 Alpha virt. eigenvalues --    0.26177   0.26779   0.28195   0.28744   0.29421
 Alpha virt. eigenvalues --    0.30212   0.31327   0.31628   0.31798   0.32554

 Mulliken charges:
               1
     1  C   -0.300298
     2  C   -0.302555
     3  C   -0.475721
     4  H    0.149466
     5  H    0.151942
     6  H    0.152116
     7  H    0.153685
     8  H    0.155111
     9  H    0.155262
    10  H    0.160222
    11  C   -0.301209
    12  C   -0.302385
    13  C   -0.476547
    14  H    0.149090
    15  H    0.153556
    16  H    0.151675
    17  H    0.155546
    18  H    0.154339
    19  H    0.155098
    20  H    0.160419
    21  C   -0.300466
    22  C   -0.299680
    23  C   -0.475814
    24  H    0.149628
    25  H    0.151560
    26  H    0.152053
    27  H    0.152097
    28  H    0.155559
    29  H    0.155220
    30  H    0.160373
    31  C   -0.297843
    32  C   -0.306169
    33  C   -0.479877
    34  H    0.149698
    35  H    0.149797
    36  H    0.153468
    37  H    0.156999
    38  H    0.155700
    39  H    0.155896
    40  H    0.162991
 Sum of Mulliken charges =  -0.00000

 Dipole moment (field-independent basis, Debye):
    X=             -0.0349    Y=             -0.0180    Z=              0.0043  Tot=              0.0395
 Quadrupole moment (field-independent basis, Debye-Ang):
   XX=            -85.0896   YY=            -85.3390   ZZ=            -84.3651
   XY=              1.4465   XZ=             -0.0839   YZ=             -0.1636

 Normal termination of Gaussian 16 at Thu May  6 14:52:19 2021.
