 Gaussian 16, Revision A.03,
 Gaussian 16:  EM64L-G16RevA.03 25-Dec-2016

 -------------
 #p 6-31g* mp2
 -------------

 ------------------------------------------------------
 Input file generated by CHIRIPA (05-May-2021 14:53:14)
 ------------------------------------------------------
 Symbolic Z-matrix:
 Charge =  0 Multiplicity = 1

                         Standard orientation:
 ---------------------------------------------------------------------
 Center     Atomic      Atomic             Coordinates (Angstroms)
 Number     Number       Type             X           Y           Z
 ---------------------------------------------------------------------
      1          6           0        4.120670   -0.464763    0.079425
      2          6           0        3.220799   -1.672546    0.343012
      3          6           0        3.999293   -2.986930    0.407321
      4          1           0        4.662526   -0.618168   -0.863869
      5          1           0        4.881065   -0.403304    0.870258
      6          1           0        2.461471   -1.730904   -0.447324
      7          1           0        2.680879   -1.516161    1.285692
      8          1           0        4.745778   -2.953781    1.207484
      9          1           0        4.525124   -3.169744   -0.535379
     10          1           0        3.336624   -3.837174    0.596573
     11          6           0        3.356943    0.856583    0.012385
     12          6           0        4.256814    2.064367   -0.251202
     13          6           0        3.478320    3.378751   -0.315510
     14          1           0        2.596548    0.795125   -0.778448
     15          1           0        2.815087    1.009988    0.955679
     16          1           0        4.796734    1.907982   -1.193882
     17          1           0        5.016142    2.122724    0.539135
     18          1           0        2.952489    3.561564    0.627189
     19          1           0        2.731835    3.345602   -1.115674
     20          1           0        4.140989    4.228994   -0.504763
     21          6           0       -0.816860   -1.500627   -0.386306
     22          6           0       -2.068565   -2.093675   -0.581374
     23          6           0       -3.241024   -1.356587   -0.390095
     24          6           0       -3.124357   -0.022777   -0.001984
     25          6           0       -1.891886    0.596409    0.200286
     26          6           0       -0.732664   -0.159842    0.003215
     27          1           0        0.088793   -2.080658   -0.537146
     28          1           0       -2.136984   -3.134757   -0.883883
     29          1           0       -4.222964   -1.790717   -0.534123
     30          1           0       -1.855629    1.636208    0.501820
     31          1           0        0.238073    0.303346    0.155440
     32          7           0       -4.358581    0.767689    0.203580
     33          8           0       -4.228826    1.941092    0.545526
     34          8           0       -5.432350    0.198886    0.018865
 ---------------------------------------------------------------------

 SCF Done:  E(RHF) =  -669.535415066     A.U. after   15 cycles
 E2 =    -0.2092378989D+01 EUMP2 =    -0.67162779405530D+03

 The electronic state is 1-A.
 Alpha  occ. eigenvalues --  -20.60670 -20.60665 -15.85721 -11.31057 -11.27627
 Alpha  occ. eigenvalues --  -11.27606 -11.27306 -11.26632 -11.26544 -11.22939
 Alpha  occ. eigenvalues --  -11.22588 -11.22478 -11.22451 -11.22138 -11.21793
 Alpha  occ. eigenvalues --   -1.59746  -1.39300  -1.19219  -1.09550  -1.08614
 Alpha  occ. eigenvalues --   -1.04616  -1.04560  -0.96980  -0.95461  -0.87995
 Alpha  occ. eigenvalues --   -0.86017  -0.82299  -0.80657  -0.79422  -0.77339
 Alpha  occ. eigenvalues --   -0.71940  -0.71069  -0.70340  -0.66166  -0.64866
 Alpha  occ. eigenvalues --   -0.64613  -0.61972  -0.61946  -0.60375  -0.58621
 Alpha  occ. eigenvalues --   -0.56251  -0.55122  -0.53654  -0.53424  -0.52952
 Alpha  occ. eigenvalues --   -0.52681  -0.50910  -0.48944  -0.48698  -0.48690
 Alpha  occ. eigenvalues --   -0.47675  -0.46864  -0.46825  -0.44831  -0.44713
 Alpha  occ. eigenvalues --   -0.37195  -0.36224
 Alpha virt. eigenvalues --    0.05179   0.11381   0.16671   0.19682   0.22444
 Alpha virt. eigenvalues --    0.22942   0.25011   0.25201   0.26467   0.28054
 Alpha virt. eigenvalues --    0.29267   0.30571   0.30657   0.31169   0.31753

 Mulliken charges:
               1
     1  C   -0.296986
     2  C   -0.308101
     3  C   -0.475977
     4  H    0.153462
     5  H    0.154670
     6  H    0.144540
     7  H    0.154338
     8  H    0.160348
     9  H    0.158314
    10  H    0.160098
    11  C   -0.306497
    12  C   -0.299325
    13  C   -0.477596
    14  H    0.147461
    15  H    0.148936
    16  H    0.154880
    17  H    0.155233
    18  H    0.155563
    19  H    0.155666
    20  H    0.164745
    21  C   -0.177468
    22  C   -0.219107
    23  C   -0.171253
    24  C    0.158598
    25  C   -0.172923
    26  C   -0.228732
    27  H    0.232236
    28  H    0.222934
    29  H    0.274940
    30  H    0.275488
    31  H    0.235168
    32  N    0.488032
    33  O   -0.460771
    34  O   -0.460913
 Sum of Mulliken charges =  -0.00000

 Dipole moment (field-independent basis, Debye):
    X=              4.7277    Y=             -2.7370    Z=             -0.6955  Tot=              5.5069
 Quadrupole moment (field-independent basis, Debye-Ang):
   XX=           -119.7170   YY=            -92.2764   ZZ=            -94.2565
   XY=             11.7049   XZ=              3.2180   YZ=              1.2559

 Normal termination of Gaussian 16 at Thu May  6 05:51:06 2021.
