 Gaussian 16, Revision A.03,
 Gaussian 16:  EM64L-G16RevA.03 25-Dec-2016

 -------------
 #p 6-31g* mp2
 -------------

 ------------------------------------------------------
 Input file generated by CHIRIPA (05-May-2021 14:57:26)
 ------------------------------------------------------
 Symbolic Z-matrix:
 Charge =  0 Multiplicity = 1

                         Standard orientation:
 ---------------------------------------------------------------------
 Center     Atomic      Atomic             Coordinates (Angstroms)
 Number     Number       Type             X           Y           Z
 ---------------------------------------------------------------------
      1          6           0       -1.502918    2.330522    1.178543
      2          6           0       -0.900198    1.074642    1.305096
      3          6           0       -1.470365   -0.050527    0.702227
      4          6           0       -2.648932    0.117173   -0.023132
      5          6           0       -3.273337    1.355152   -0.167414
      6          6           0       -2.685479    2.466529    0.443987
      7          1           0       -1.053127    3.199224    1.650180
      8          1           0        0.018227    0.966040    1.874961
      9          1           0       -1.024848   -1.034510    0.784146
     10          1           0       -4.188525    1.432037   -0.741816
     11          1           0       -3.155769    3.440633    0.344022
     12          7           0       -3.261907   -1.066693   -0.665879
     13          8           0       -4.300515   -0.892461   -1.299576
     14          8           0       -2.692141   -2.146423   -0.523796
     15          6           0        1.656179   -1.957431    1.609609
     16          6           0        2.347547   -0.819037    2.036916
     17          6           0        2.846039    0.099269    1.108064
     18          6           0        2.634115   -0.153242   -0.246417
     19          6           0        1.949305   -1.278180   -0.703403
     20          6           0        1.459611   -2.182972    0.243222
     21          1           0        1.272355   -2.665545    2.338067
     22          1           0        2.501690   -0.641308    3.097433
     23          1           0        3.384816    0.988757    1.411296
     24          1           0        1.811315   -1.428256   -1.767290
     25          1           0        0.923057   -3.066206   -0.091521
     26          7           0        3.157189    0.811775   -1.239158
     27          8           0        2.957256    0.566438   -2.426791
     28          8           0        3.757204    1.795218   -0.810838
 ---------------------------------------------------------------------

 SCF Done:  E(RHF) =  -868.337390362     A.U. after   16 cycles
 E2 =    -0.2604134437D+01 EUMP2 =    -0.87094152479867D+03

 The electronic state is 1-A.
 Alpha  occ. eigenvalues --  -20.61335 -20.61308 -20.61024 -20.60978 -15.86381
 Alpha  occ. eigenvalues --  -15.86045 -11.31929 -11.31187 -11.28565 -11.28407
 Alpha  occ. eigenvalues --  -11.28248 -11.27752 -11.27648 -11.27629 -11.27454
 Alpha  occ. eigenvalues --  -11.27379 -11.26724 -11.26620  -1.60395  -1.60073
 Alpha  occ. eigenvalues --   -1.39943  -1.39637  -1.20151  -1.19348  -1.09496
 Alpha  occ. eigenvalues --   -1.08791  -1.05548  -1.04720  -0.96283  -0.95660
 Alpha  occ. eigenvalues --   -0.86912  -0.86135  -0.83087  -0.82505  -0.78109
 Alpha  occ. eigenvalues --   -0.77588  -0.72593  -0.72279  -0.71721  -0.71389
 Alpha  occ. eigenvalues --   -0.71176  -0.70493  -0.65753  -0.65468  -0.65006
 Alpha  occ. eigenvalues --   -0.64755  -0.62824  -0.62191  -0.55984  -0.55343
 Alpha  occ. eigenvalues --   -0.53786  -0.53556  -0.52964  -0.52854  -0.49368
 Alpha  occ. eigenvalues --   -0.49339  -0.49041  -0.48997  -0.45308  -0.45091
 Alpha  occ. eigenvalues --   -0.38167  -0.37433  -0.37045  -0.36243
 Alpha virt. eigenvalues --    0.04304   0.04994   0.10303   0.11344   0.15760
 Alpha virt. eigenvalues --    0.16464   0.20632   0.21895   0.26448   0.27585
 Alpha virt. eigenvalues --    0.27868   0.28710   0.30497   0.31333   0.31935

 Mulliken charges:
               1
     1  C   -0.170376
     2  C   -0.224500
     3  C   -0.176047
     4  C    0.157871
     5  C   -0.170172
     6  C   -0.218378
     7  H    0.226241
     8  H    0.224670
     9  H    0.275559
    10  H    0.275380
    11  H    0.224089
    12  N    0.488823
    13  O   -0.458081
    14  O   -0.468736
    15  C   -0.178946
    16  C   -0.226754
    17  C   -0.177279
    18  C    0.163380
    19  C   -0.166753
    20  C   -0.228912
    21  H    0.232291
    22  H    0.225691
    23  H    0.276388
    24  H    0.282611
    25  H    0.240551
    26  N    0.488065
    27  O   -0.455511
    28  O   -0.461163
 Sum of Mulliken charges =  -0.00000

 Dipole moment (field-independent basis, Debye):
    X=              0.5447    Y=              0.6670    Z=              5.5535  Tot=              5.6198
 Quadrupole moment (field-independent basis, Debye-Ang):
   XX=           -123.4902   YY=            -99.9110   ZZ=           -104.1997
   XY=            -21.3312   XZ=              6.5399   YZ=              1.6932

 Normal termination of Gaussian 16 at Thu May  6 16:30:22 2021.
