 Gaussian 16, Revision A.03,
 Gaussian 16:  EM64L-G16RevA.03 25-Dec-2016

 -------------
 #p 6-31g* mp2
 -------------

 ------------------------------------------------------
 Input file generated by CHIRIPA (05-May-2021 14:55:20)
 ------------------------------------------------------
 Symbolic Z-matrix:
 Charge =  0 Multiplicity = 1

                         Standard orientation:
 ---------------------------------------------------------------------
 Center     Atomic      Atomic             Coordinates (Angstroms)
 Number     Number       Type             X           Y           Z
 ---------------------------------------------------------------------
      1          6           0       -5.247292   -0.111589   -0.643006
      2          6           0       -4.873889    0.566103    0.522252
      3          6           0       -3.542825    0.562992    0.949811
      4          6           0       -2.606999   -0.131133    0.184496
      5          6           0       -2.947902   -0.815808   -0.980963
      6          6           0       -4.284803   -0.799169   -1.389578
      7          1           0       -6.283562   -0.103918   -0.967786
      8          1           0       -5.619232    1.100926    1.104037
      9          1           0       -3.226284    1.079279    1.847958
     10          1           0       -2.182372   -1.340105   -1.539975
     11          1           0       -4.571914   -1.326350   -2.294947
     12          7           0       -1.194771   -0.141587    0.627106
     13          8           0       -0.389333   -0.760578   -0.064817
     14          8           0       -0.920045    0.469407    1.657566
     15          6           0        3.744115    0.818650   -0.523683
     16          6           0        2.985169    2.003705    0.074337
     17          6           0        3.213757    3.302935   -0.698672
     18          1           0        4.817646    1.051209   -0.543420
     19          1           0        3.434259    0.683686   -1.569230
     20          1           0        3.295346    2.135531    1.118860
     21          1           0        1.913338    1.768221    0.092830
     22          1           0        2.886892    3.195432   -1.737999
     23          1           0        4.276752    3.564828   -0.706140
     24          1           0        2.661973    4.137021   -0.254042
     25          6           0        3.525647   -0.487359    0.238120
     26          6           0        4.284593   -1.672415   -0.359901
     27          6           0        4.056005   -2.971644    0.413109
     28          1           0        3.835503   -0.352396    1.283667
     29          1           0        2.452115   -0.719918    0.257856
     30          1           0        5.356424   -1.436930   -0.378393
     31          1           0        3.974416   -1.804240   -1.404424
     32          1           0        2.993010   -3.233538    0.420576
     33          1           0        4.382869   -2.864141    1.452436
     34          1           0        4.607789   -3.805731   -0.031521
 ---------------------------------------------------------------------

 SCF Done:  E(RHF) =  -669.536875765     A.U. after   15 cycles
 E2 =    -0.2091688140D+01 EUMP2 =    -0.67162856390480D+03

 The electronic state is 1-A.
 Alpha  occ. eigenvalues --  -20.61157 -20.61143 -15.86157 -11.31413 -11.27964
 Alpha  occ. eigenvalues --  -11.27959 -11.27688 -11.26953 -11.26943 -11.20299
 Alpha  occ. eigenvalues --  -11.20164 -11.20029 -11.19980 -11.19906 -11.19572
 Alpha  occ. eigenvalues --   -1.60192  -1.39750  -1.19570  -1.08988  -1.06972
 Alpha  occ. eigenvalues --   -1.04955  -1.02237  -0.95839  -0.94696  -0.86358
 Alpha  occ. eigenvalues --   -0.85723  -0.82676  -0.78279  -0.77737  -0.76742
 Alpha  occ. eigenvalues --   -0.72368  -0.71497  -0.70677  -0.65226  -0.64958
 Alpha  occ. eigenvalues --   -0.63594  -0.62301  -0.59642  -0.58072  -0.56306
 Alpha  occ. eigenvalues --   -0.55462  -0.53990  -0.53290  -0.53045  -0.51459
 Alpha  occ. eigenvalues --   -0.51132  -0.49199  -0.49123  -0.48617  -0.46608
 Alpha  occ. eigenvalues --   -0.45291  -0.45176  -0.44330  -0.44051  -0.42432
 Alpha  occ. eigenvalues --   -0.37545  -0.36551
 Alpha virt. eigenvalues --    0.04773   0.11105   0.16291   0.21240   0.24288
 Alpha virt. eigenvalues --    0.25491   0.27172   0.27941   0.28231   0.28965
 Alpha virt. eigenvalues --    0.29358   0.30867   0.32349   0.32571   0.32942

 Mulliken charges:
               1
     1  C   -0.170281
     2  C   -0.218625
     3  C   -0.170334
     4  C    0.157769
     5  C   -0.170638
     6  C   -0.218562
     7  H    0.226468
     8  H    0.224281
     9  H    0.276236
    10  H    0.275842
    11  H    0.224252
    12  N    0.489771
    13  O   -0.461130
    14  O   -0.457494
    15  C   -0.295743
    16  C   -0.301401
    17  C   -0.475097
    18  H    0.142477
    19  H    0.145447
    20  H    0.150263
    21  H    0.164774
    22  H    0.151235
    23  H    0.151348
    24  H    0.156518
    25  C   -0.312845
    26  C   -0.297436
    27  C   -0.475493
    28  H    0.144560
    29  H    0.183398
    30  H    0.145750
    31  H    0.148290
    32  H    0.159601
    33  H    0.153004
    34  H    0.153795
 Sum of Mulliken charges =  -0.00000

 Dipole moment (field-independent basis, Debye):
    X=             -5.5026    Y=             -0.0214    Z=             -1.4554  Tot=              5.6919
 Quadrupole moment (field-independent basis, Debye-Ang):
   XX=            -70.1125   YY=            -95.6504   ZZ=            -92.4668
   XY=             -0.1992   XZ=              2.9684   YZ=              3.6244

 Normal termination of Gaussian 16 at Thu May  6 14:05:55 2021.
