 Gaussian 16, Revision A.03,
 Gaussian 16:  EM64L-G16RevA.03 25-Dec-2016

 -------------
 #p 6-31g* mp2
 -------------

 ------------------------------------------------------
 Input file generated by CHIRIPA (05-May-2021 14:55:25)
 ------------------------------------------------------
 Symbolic Z-matrix:
 Charge =  0 Multiplicity = 1

                         Standard orientation:
 ---------------------------------------------------------------------
 Center     Atomic      Atomic             Coordinates (Angstroms)
 Number     Number       Type             X           Y           Z
 ---------------------------------------------------------------------
      1          6           0       -1.948595    0.978735    2.327152
      2          6           0       -2.031478    1.644227    1.099646
      3          6           0       -2.151616    0.923306   -0.092155
      4          6           0       -2.185932   -0.468385   -0.019294
      5          6           0       -2.105482   -1.160312    1.188206
      6          6           0       -1.985796   -0.418947    2.367443
      7          1           0       -1.855444    1.546704    3.248091
      8          1           0       -2.002841    2.729606    1.065329
      9          1           0       -2.217659    1.413024   -1.056122
     10          1           0       -2.136707   -2.243104    1.190529
     11          1           0       -1.921625   -0.938448    3.319307
     12          7           0       -2.312877   -1.242413   -1.274349
     13          8           0       -2.340848   -2.467792   -1.183239
     14          8           0       -2.382003   -0.609062   -2.325408
     15          6           0        3.076644   -0.005149    0.303359
     16          6           0        4.147695   -0.961158   -0.222838
     17          6           0        4.749311   -1.837539    0.876165
     18          1           0        3.514455    0.632037    1.083910
     19          1           0        2.279994   -0.588013    0.786075
     20          1           0        4.941412   -0.376747   -0.705638
     21          1           0        3.707333   -1.596012   -1.002362
     22          1           0        3.973134   -2.445312    1.352361
     23          1           0        5.214224   -1.219119    1.650770
     24          1           0        5.512664   -2.513265    0.477981
     25          6           0        2.465781    0.877638   -0.783499
     26          6           0        1.394730    1.833646   -0.257302
     27          6           0        0.793113    2.710027   -1.356305
     28          1           0        3.262430    1.460501   -1.266215
     29          1           0        2.027969    0.240451   -1.564050
     30          1           0        1.835091    2.468500    0.522221
     31          1           0        0.601013    1.249236    0.225497
     32          1           0        0.328200    2.091608   -2.130911
     33          1           0        1.569291    3.317800   -1.832501
     34          1           0        0.029761    3.385752   -0.958122
 ---------------------------------------------------------------------

 SCF Done:  E(RHF) =  -669.533858152     A.U. after   15 cycles
 E2 =    -0.2094671031D+01 EUMP2 =    -0.67162852918357D+03

 The electronic state is 1-A.
 Alpha  occ. eigenvalues --  -20.60862 -20.60856 -15.85912 -11.31269 -11.27852
 Alpha  occ. eigenvalues --  -11.27783 -11.27570 -11.26861 -11.26802 -11.21594
 Alpha  occ. eigenvalues --  -11.21568 -11.21423 -11.21374 -11.21346 -11.21082
 Alpha  occ. eigenvalues --   -1.59936  -1.39489  -1.19463  -1.08845  -1.08464
 Alpha  occ. eigenvalues --   -1.04874  -1.03598  -0.96093  -0.95671  -0.87102
 Alpha  occ. eigenvalues --   -0.86242  -0.82508  -0.79672  -0.78273  -0.77557
 Alpha  occ. eigenvalues --   -0.72128  -0.71265  -0.70546  -0.65152  -0.65072
 Alpha  occ. eigenvalues --   -0.64836  -0.62227  -0.61033  -0.59481  -0.57710
 Alpha  occ. eigenvalues --   -0.55441  -0.55297  -0.53219  -0.52933  -0.52779
 Alpha  occ. eigenvalues --   -0.52489  -0.49991  -0.48887  -0.48884  -0.47971
 Alpha  occ. eigenvalues --   -0.46656  -0.45805  -0.45703  -0.44891  -0.43861
 Alpha  occ. eigenvalues --   -0.37444  -0.36323
 Alpha virt. eigenvalues --    0.04960   0.11109   0.16398   0.20563   0.22938
 Alpha virt. eigenvalues --    0.24095   0.26287   0.26530   0.27193   0.28072
 Alpha virt. eigenvalues --    0.29173   0.29734   0.31367   0.31813   0.32327

 Mulliken charges:
               1
     1  C   -0.169962
     2  C   -0.217535
     3  C   -0.173259
     4  C    0.159958
     5  C   -0.172126
     6  C   -0.218308
     7  H    0.226316
     8  H    0.224681
     9  H    0.278049
    10  H    0.275838
    11  H    0.224015
    12  N    0.488173
    13  O   -0.460123
    14  O   -0.460812
    15  C   -0.297963
    16  C   -0.300219
    17  C   -0.475572
    18  H    0.147237
    19  H    0.148625
    20  H    0.151985
    21  H    0.155461
    22  H    0.154442
    23  H    0.153622
    24  H    0.161219
    25  C   -0.298827
    26  C   -0.307487
    27  C   -0.480385
    28  H    0.149062
    29  H    0.154538
    30  H    0.147031
    31  H    0.163159
    32  H    0.163156
    33  H    0.158578
    34  H    0.147432
 Sum of Mulliken charges =  -0.00000

 Dipole moment (field-independent basis, Debye):
    X=              0.3994    Y=              2.6472    Z=              4.3949  Tot=              5.1461
 Quadrupole moment (field-independent basis, Debye-Ang):
   XX=            -97.4079   YY=            -94.2080   ZZ=            -94.3008
   XY=             -5.5861   XZ=            -10.1941   YZ=             -4.0190

 Normal termination of Gaussian 16 at Thu May  6 16:05:32 2021.
