 Gaussian 16, Revision A.03,
 Gaussian 16:  EM64L-G16RevA.03 25-Dec-2016

 -------------
 #p 6-31g* mp2
 -------------

 ------------------------------------------------------
 Input file generated by CHIRIPA (05-May-2021 14:57:23)
 ------------------------------------------------------
 Symbolic Z-matrix:
 Charge =  0 Multiplicity = 1

                         Standard orientation:
 ---------------------------------------------------------------------
 Center     Atomic      Atomic             Coordinates (Angstroms)
 Number     Number       Type             X           Y           Z
 ---------------------------------------------------------------------
      1          6           0        3.082303   -1.866890    0.583076
      2          6           0        2.513060   -1.163288    1.649578
      3          6           0        2.054164    0.145376    1.472485
      4          6           0        2.180722    0.722338    0.209795
      5          6           0        2.743245    0.047263   -0.872394
      6          6           0        3.195379   -1.260438   -0.672293
      7          1           0        3.436159   -2.883118    0.729582
      8          1           0        2.423958   -1.631745    2.625618
      9          1           0        1.609391    0.712970    2.280836
     10          1           0        2.818522    0.540812   -1.833727
     11          1           0        3.637033   -1.804465   -1.502366
     12          7           0        1.698488    2.107252    0.010136
     13          8           0        1.821420    2.593126   -1.112117
     14          8           0        1.206712    2.680649    0.979676
     15          6           0       -0.502830   -2.146746   -0.981817
     16          6           0       -0.560197   -0.877469   -1.566764
     17          6           0       -1.529666    0.046280   -1.165060
     18          6           0       -2.430096   -0.334314   -0.171245
     19          6           0       -2.398584   -1.591321    0.430611
     20          6           0       -1.420589   -2.499000    0.013249
     21          1           0        0.253589   -2.858095   -1.299953
     22          1           0        0.151256   -0.601162   -2.339768
     23          1           0       -1.596704    1.035625   -1.601089
     24          1           0       -3.121396   -1.837876    1.198836
     25          1           0       -1.378408   -3.484035    0.469290
     26          7           0       -3.460942    0.635111    0.262309
     27          8           0       -4.242739    0.275424    1.139838
     28          8           0       -3.467604    1.736277   -0.283609
 ---------------------------------------------------------------------

 SCF Done:  E(RHF) =  -868.335666198     A.U. after   16 cycles
 E2 =    -0.2605096634D+01 EUMP2 =    -0.87094076283234D+03

 The electronic state is 1-A.
 Alpha  occ. eigenvalues --  -20.61283 -20.61232 -20.60501 -20.60456 -15.86307
 Alpha  occ. eigenvalues --  -15.85541 -11.31801 -11.31056 -11.28459 -11.28356
 Alpha  occ. eigenvalues --  -11.28221 -11.27680 -11.27564 -11.27525 -11.27467
 Alpha  occ. eigenvalues --  -11.27429 -11.26768 -11.26685  -1.60330  -1.59554
 Alpha  occ. eigenvalues --   -1.39881  -1.39102  -1.20026  -1.19256  -1.09395
 Alpha  occ. eigenvalues --   -1.08637  -1.05464  -1.04689  -0.96203  -0.95437
 Alpha  occ. eigenvalues --   -0.86857  -0.86084  -0.83034  -0.82271  -0.78054
 Alpha  occ. eigenvalues --   -0.77282  -0.72522  -0.71761  -0.71667  -0.71155
 Alpha  occ. eigenvalues --   -0.70878  -0.70377  -0.65681  -0.65472  -0.64913
 Alpha  occ. eigenvalues --   -0.64729  -0.62805  -0.62022  -0.55966  -0.55231
 Alpha  occ. eigenvalues --   -0.54232  -0.53555  -0.52806  -0.52522  -0.49298
 Alpha  occ. eigenvalues --   -0.49270  -0.48536  -0.48498  -0.45255  -0.44474
 Alpha  occ. eigenvalues --   -0.38184  -0.37434  -0.36959  -0.35976
 Alpha virt. eigenvalues --    0.04430   0.05258   0.10397   0.11451   0.15903
 Alpha virt. eigenvalues --    0.16725   0.20211   0.21726   0.25901   0.26937
 Alpha virt. eigenvalues --    0.28197   0.28480   0.30011   0.30800   0.32253

 Mulliken charges:
               1
     1  C   -0.173482
     2  C   -0.216147
     3  C   -0.167586
     4  C    0.167035
     5  C   -0.178047
     6  C   -0.223399
     7  H    0.225170
     8  H    0.225465
     9  H    0.279755
    10  H    0.273342
    11  H    0.221910
    12  N    0.486712
    13  O   -0.463812
    14  O   -0.452908
    15  C   -0.164757
    16  C   -0.217522
    17  C   -0.176867
    18  C    0.159913
    19  C   -0.172512
    20  C   -0.220323
    21  H    0.218335
    22  H    0.220808
    23  H    0.284450
    24  H    0.274515
    25  H    0.219170
    26  N    0.488155
    27  O   -0.462999
    28  O   -0.454372
 Sum of Mulliken charges =  -0.00000

 Dipole moment (field-independent basis, Debye):
    X=              5.3246    Y=             -8.0130    Z=             -0.6451  Tot=              9.6424
 Quadrupole moment (field-independent basis, Debye-Ang):
   XX=           -115.6837   YY=           -108.5625   ZZ=            -97.6959
   XY=             -1.3103   XZ=              2.6266   YZ=             -1.7585

 Normal termination of Gaussian 16 at Wed May  5 17:51:43 2021.
