 Gaussian 16, Revision A.03,
 Gaussian 16:  EM64L-G16RevA.03 25-Dec-2016

 -------------
 #p 6-31g* mp2
 -------------

 ------------------------------------------------------
 Input file generated by CHIRIPA (05-May-2021 14:51:09)
 ------------------------------------------------------
 Symbolic Z-matrix:
 Charge =  0 Multiplicity = 1

                         Standard orientation:
 ---------------------------------------------------------------------
 Center     Atomic      Atomic             Coordinates (Angstroms)
 Number     Number       Type             X           Y           Z
 ---------------------------------------------------------------------
      1          6           0        3.788196    0.488776    0.149629
      2          6           0        3.293809    1.522301   -0.862988
      3          6           0        2.209842    2.437347   -0.292463
      4          1           0        2.937484   -0.116775    0.491010
      5          1           0        4.176196    1.010229    1.035596
      6          1           0        2.908127    0.999091   -1.747362
      7          1           0        4.145829    2.125337   -1.202141
      8          1           0        2.586679    2.985162    0.577304
      9          1           0        1.341945    1.852517    0.028986
     10          1           0        1.870873    3.168400   -1.033086
     11          6           0        4.872038   -0.433370   -0.405943
     12          6           0        5.366424   -1.466895    0.606674
     13          6           0        6.450392   -2.381942    0.036149
     14          1           0        4.484037   -0.954823   -1.291910
     15          1           0        5.722750    0.172181   -0.747324
     16          1           0        4.514404   -2.069931    0.945828
     17          1           0        5.752106   -0.943686    1.491048
     18          1           0        7.318289   -1.797112   -0.285300
     19          1           0        6.073554   -2.929756   -0.833618
     20          1           0        6.789360   -3.112994    0.776772
     21          6           0       -4.863952   -0.275081   -0.358932
     22          6           0       -5.908891   -1.179830    0.294915
     23          6           0       -6.970125   -1.666658   -0.692291
     24          1           0       -5.368616    0.588899   -0.812581
     25          1           0       -4.379168   -0.820662   -1.180346
     26          1           0       -6.390590   -0.633179    1.115740
     27          1           0       -5.401661   -2.041659    0.747227
     28          1           0       -6.507703   -2.235018   -1.505762
     29          1           0       -7.502252   -0.818535   -1.135154
     30          1           0       -7.706991   -2.311840   -0.203794
     31          6           0       -3.796281    0.219675    0.615246
     32          6           0       -2.751343    1.124425   -0.038601
     33          6           0       -1.690109    1.611252    0.948604
     34          1           0       -4.281065    0.765257    1.436660
     35          1           0       -3.291617   -0.644305    1.068896
     36          1           0       -3.258573    1.986253   -0.490913
     37          1           0       -2.269643    0.577773   -0.859426
     38          1           0       -1.157981    0.763129    1.391469
     39          1           0       -2.152530    2.179612    1.762075
     40          1           0       -0.953242    2.256434    0.460109
 ---------------------------------------------------------------------

 SCF Done:  E(RHF) =  -470.733137261     A.U. after   11 cycles
 E2 =    -0.1582254743D+01 EUMP2 =    -0.47231539200447D+03

 The electronic state is 1-A.
 Alpha  occ. eigenvalues --  -11.21605 -11.21600 -11.21597 -11.21577 -11.21406
 Alpha  occ. eigenvalues --  -11.21393 -11.21347 -11.21333 -11.21074 -11.21069
 Alpha  occ. eigenvalues --  -11.21033 -11.21001  -1.08432  -1.08414  -1.03543
 Alpha  occ. eigenvalues --   -1.03499  -0.96018  -0.95926  -0.87064  -0.86917
 Alpha  occ. eigenvalues --   -0.79643  -0.79529  -0.78246  -0.78225  -0.65073
 Alpha  occ. eigenvalues --   -0.65039  -0.60985  -0.60879  -0.59366  -0.59330
 Alpha  occ. eigenvalues --   -0.57659  -0.57514  -0.55349  -0.55178  -0.52841
 Alpha  occ. eigenvalues --   -0.52621  -0.52425  -0.52239  -0.49988  -0.49809
 Alpha  occ. eigenvalues --   -0.47958  -0.47834  -0.46664  -0.46560  -0.45786
 Alpha  occ. eigenvalues --   -0.45770  -0.45714  -0.45689  -0.43800  -0.43714
 Alpha virt. eigenvalues --    0.22266   0.23028   0.23617   0.24819   0.26463
 Alpha virt. eigenvalues --    0.26746   0.27002   0.27428   0.27673   0.28925
 Alpha virt. eigenvalues --    0.30769   0.31235   0.31683   0.31826   0.32001

 Mulliken charges:
               1
     1  C   -0.298332
     2  C   -0.299454
     3  C   -0.482128
     4  H    0.149569
     5  H    0.149624
     6  H    0.151605
     7  H    0.151727
     8  H    0.155233
     9  H    0.162612
    10  H    0.159305
    11  C   -0.298281
    12  C   -0.299620
    13  C   -0.475693
    14  H    0.149395
    15  H    0.149674
    16  H    0.151809
    17  H    0.151980
    18  H    0.155200
    19  H    0.155121
    20  H    0.160224
    21  C   -0.298254
    22  C   -0.299639
    23  C   -0.475699
    24  H    0.149696
    25  H    0.149408
    26  H    0.151971
    27  H    0.151883
    28  H    0.155140
    29  H    0.155204
    30  H    0.160258
    31  C   -0.298368
    32  C   -0.299579
    33  C   -0.481623
    34  H    0.149651
    35  H    0.149465
    36  H    0.152075
    37  H    0.151628
    38  H    0.154127
    39  H    0.155376
    40  H    0.167711
 Sum of Mulliken charges =  -0.00000

 Dipole moment (field-independent basis, Debye):
    X=             -0.0120    Y=              0.0125    Z=              0.0089  Tot=              0.0195
 Quadrupole moment (field-independent basis, Debye-Ang):
   XX=            -85.3404   YY=            -84.4057   ZZ=            -85.1006
   XY=              0.1674   XZ=             -0.1465   YZ=             -0.0340

 Normal termination of Gaussian 16 at Wed May  5 22:58:07 2021.
