 Gaussian 16, Revision A.03,
 Gaussian 16:  EM64L-G16RevA.03 25-Dec-2016

 -------------
 #p 6-31g* mp2
 -------------

 ------------------------------------------------------
 Input file generated by CHIRIPA (05-May-2021 14:57:27)
 ------------------------------------------------------
 Symbolic Z-matrix:
 Charge =  0 Multiplicity = 1

                         Standard orientation:
 ---------------------------------------------------------------------
 Center     Atomic      Atomic             Coordinates (Angstroms)
 Number     Number       Type             X           Y           Z
 ---------------------------------------------------------------------
      1          6           0       -4.879082    0.928096   -0.062172
      2          6           0       -4.591626   -0.017554    0.927594
      3          6           0       -3.375794   -0.707641    0.918554
      4          6           0       -2.466306   -0.425934   -0.099662
      5          6           0       -2.723531    0.510523   -1.099749
      6          6           0       -3.945763    1.188657   -1.070906
      7          1           0       -5.826055    1.459530   -0.047458
      8          1           0       -5.314567   -0.221953    1.712210
      9          1           0       -3.127512   -1.444777    1.672480
     10          1           0       -1.982985    0.692736   -1.869039
     11          1           0       -4.166307    1.922532   -1.840862
     12          7           0       -1.175772   -1.150171   -0.119714
     13          8           0       -0.391298   -0.883800   -1.027615
     14          8           0       -0.973162   -1.970486    0.772850
     15          6           0        2.339499    2.757132    0.591750
     16          6           0        2.280564    1.818874    1.627474
     17          6           0        2.467160    0.458496    1.364608
     18          6           0        2.711824    0.069659    0.048464
     19          6           0        2.776448    0.980367   -1.004971
     20          6           0        2.586818    2.335626   -0.718856
     21          1           0        2.193368    3.811918    0.804981
     22          1           0        2.088655    2.143343    2.646265
     23          1           0        2.426744   -0.289137    2.147443
     24          1           0        2.969453    0.626593   -2.010461
     25          1           0        2.633134    3.062059   -1.525202
     26          7           0        2.910971   -1.367803   -0.242126
     27          8           0        3.125085   -1.684762   -1.410172
     28          8           0        2.849179   -2.150307    0.703656
 ---------------------------------------------------------------------

 SCF Done:  E(RHF) =  -868.337161615     A.U. after   16 cycles
 E2 =    -0.2602098048D+01 EUMP2 =    -0.87093925966358D+03

 The electronic state is 1-A.
 Alpha  occ. eigenvalues --  -20.60791 -20.60785 -20.59167 -20.59133 -15.85813
 Alpha  occ. eigenvalues --  -15.84224 -11.31266 -11.29949 -11.27852 -11.27833
 Alpha  occ. eigenvalues --  -11.27605 -11.26885 -11.26867 -11.26586 -11.26581
 Alpha  occ. eigenvalues --  -11.26511 -11.25781 -11.25771  -1.59847  -1.58180
 Alpha  occ. eigenvalues --   -1.39400  -1.37744  -1.19447  -1.18187  -1.08828
 Alpha  occ. eigenvalues --   -1.07524  -1.04862  -1.03684  -0.95648  -0.94301
 Alpha  occ. eigenvalues --   -0.86255  -0.85063  -0.82480  -0.81164  -0.77515
 Alpha  occ. eigenvalues --   -0.76112  -0.72058  -0.71189  -0.70555  -0.70487
 Alpha  occ. eigenvalues --   -0.69397  -0.69356  -0.65097  -0.64864  -0.63868
 Alpha  occ. eigenvalues --   -0.63737  -0.62207  -0.61037  -0.55361  -0.54230
 Alpha  occ. eigenvalues --   -0.53192  -0.52955  -0.51972  -0.51810  -0.48822
 Alpha  occ. eigenvalues --   -0.48761  -0.47256  -0.47190  -0.44786  -0.43081
 Alpha  occ. eigenvalues --   -0.37443  -0.36474  -0.36140  -0.35309
 Alpha virt. eigenvalues --    0.05004   0.06528   0.11183   0.12340   0.16486
 Alpha virt. eigenvalues --    0.17890   0.21313   0.22280   0.27212   0.28145
 Alpha virt. eigenvalues --    0.28220   0.29244   0.30856   0.31766   0.32442

 Mulliken charges:
               1
     1  C   -0.171173
     2  C   -0.218754
     3  C   -0.171425
     4  C    0.158904
     5  C   -0.170637
     6  C   -0.218872
     7  H    0.225333
     8  H    0.223587
     9  H    0.276606
    10  H    0.274903
    11  H    0.222568
    12  N    0.488080
    13  O   -0.463339
    14  O   -0.453521
    15  C   -0.173971
    16  C   -0.220919
    17  C   -0.172873
    18  C    0.174283
    19  C   -0.165332
    20  C   -0.221394
    21  H    0.218839
    22  H    0.217866
    23  H    0.276188
    24  H    0.273967
    25  H    0.216997
    26  N    0.496066
    27  O   -0.463032
    28  O   -0.458945
 Sum of Mulliken charges =  -0.00000

 Dipole moment (field-independent basis, Debye):
    X=             -5.3989    Y=              7.1922    Z=              1.0425  Tot=              9.0533
 Quadrupole moment (field-independent basis, Debye-Ang):
   XX=            -87.7130   YY=           -106.6688   ZZ=            -97.1254
   XY=              9.5422   XZ=              0.8156   YZ=             -3.7920

 Normal termination of Gaussian 16 at Wed May  5 16:32:19 2021.
