 Gaussian 16, Revision A.03,
 Gaussian 16:  EM64L-G16RevA.03 25-Dec-2016

 -------------
 #p 6-31g* mp2
 -------------

 ------------------------------------------------------
 Input file generated by CHIRIPA (05-May-2021 14:57:22)
 ------------------------------------------------------
 Symbolic Z-matrix:
 Charge =  0 Multiplicity = 1

                         Standard orientation:
 ---------------------------------------------------------------------
 Center     Atomic      Atomic             Coordinates (Angstroms)
 Number     Number       Type             X           Y           Z
 ---------------------------------------------------------------------
      1          6           0        2.882127   -2.326224    0.318261
      2          6           0        3.099117   -1.514334    1.436417
      3          6           0        3.090283   -0.121589    1.315050
      4          6           0        2.860278    0.428119    0.054809
      5          6           0        2.640839   -0.354053   -1.078039
      6          6           0        2.654083   -1.744517   -0.933192
      7          1           0        2.890703   -3.407256    0.421662
      8          1           0        3.276479   -1.963334    2.409550
      9          1           0        3.255404    0.530538    2.164099
     10          1           0        2.466763    0.122633   -2.035058
     11          1           0        2.485265   -2.372569   -1.803305
     12          7           0        2.848592    1.901349   -0.086106
     13          8           0        2.643655    2.361073   -1.207396
     14          8           0        3.044590    2.568447    0.927404
     15          6           0       -4.386220    1.775090    0.369317
     16          6           0       -3.137990    1.980730   -0.227471
     17          6           0       -2.285377    0.901928   -0.480026
     18          6           0       -2.714868   -0.374837   -0.121281
     19          6           0       -3.952551   -0.611993    0.474695
     20          6           0       -4.788807    0.481665    0.717881
     21          1           0       -5.042196    2.618899    0.561869
     22          1           0       -2.822711    2.984120   -0.499231
     23          1           0       -1.313782    1.032654   -0.940821
     24          1           0       -4.239176   -1.623824    0.734428
     25          1           0       -5.757646    0.318977    1.181482
     26          7           0       -1.820904   -1.524781   -0.383690
     27          8           0       -2.222640   -2.639816   -0.058205
     28          8           0       -0.735406   -1.289295   -0.909882
 ---------------------------------------------------------------------

 SCF Done:  E(RHF) =  -868.339465635     A.U. after   16 cycles
 E2 =    -0.2599844342D+01 EUMP2 =    -0.87093930997792D+03

 The electronic state is 1-A.
 Alpha  occ. eigenvalues --  -20.61054 -20.61040 -20.60327 -20.60313 -15.86077
 Alpha  occ. eigenvalues --  -15.85356 -11.31224 -11.30299 -11.27791 -11.27721
 Alpha  occ. eigenvalues --  -11.27466 -11.26857 -11.26762 -11.26759 -11.26677
 Alpha  occ. eigenvalues --  -11.26436 -11.25813 -11.25644  -1.60122  -1.59410
 Alpha  occ. eigenvalues --   -1.39683  -1.38973  -1.19376  -1.18413  -1.08816
 Alpha  occ. eigenvalues --   -1.07891  -1.04737  -1.03754  -0.95688  -0.94802
 Alpha  occ. eigenvalues --   -0.86149  -0.85191  -0.82528  -0.81656  -0.77597
 Alpha  occ. eigenvalues --   -0.76758  -0.72332  -0.71588  -0.71430  -0.70729
 Alpha  occ. eigenvalues --   -0.70482  -0.69545  -0.65030  -0.64732  -0.64079
 Alpha  occ. eigenvalues --   -0.63784  -0.62081  -0.61144  -0.55254  -0.54286
 Alpha  occ. eigenvalues --   -0.53091  -0.52820  -0.52077  -0.51875  -0.49084
 Alpha  occ. eigenvalues --   -0.49050  -0.48362  -0.48304  -0.45128  -0.44472
 Alpha  occ. eigenvalues --   -0.37353  -0.36355  -0.36320  -0.35245
 Alpha virt. eigenvalues --    0.04912   0.05750   0.11321   0.12337   0.16455
 Alpha virt. eigenvalues --    0.17368   0.21481   0.22375   0.27390   0.28089
 Alpha virt. eigenvalues --    0.28445   0.29232   0.31014   0.31860   0.32448

 Mulliken charges:
               1
     1  C   -0.167853
     2  C   -0.219031
     3  C   -0.174115
     4  C    0.154619
     5  C   -0.164241
     6  C   -0.198386
     7  H    0.225332
     8  H    0.219577
     9  H    0.270407
    10  H    0.271219
    11  H    0.225469
    12  N    0.487013
    13  O   -0.466244
    14  O   -0.464115
    15  C   -0.170386
    16  C   -0.218648
    17  C   -0.171303
    18  C    0.157509
    19  C   -0.171450
    20  C   -0.218740
    21  H    0.226739
    22  H    0.228950
    23  H    0.278068
    24  H    0.274089
    25  H    0.223177
    26  N    0.491134
    27  O   -0.463052
    28  O   -0.465735
 Sum of Mulliken charges =  -0.00000

 Dipole moment (field-independent basis, Debye):
    X=             -3.2889    Y=             -1.3100    Z=              1.2791  Tot=              3.7642
 Quadrupole moment (field-independent basis, Debye-Ang):
   XX=            -86.6597   YY=           -111.1974   ZZ=           -100.3654
   XY=            -23.4864   XZ=             -1.6652   YZ=             -1.5955

 Normal termination of Gaussian 16 at Fri May  7 06:22:41 2021.
