 Gaussian 16, Revision A.03,
 Gaussian 16:  EM64L-G16RevA.03 25-Dec-2016

 -------------
 #p 6-31g* mp2
 -------------

 ------------------------------------------------------
 Input file generated by CHIRIPA (05-May-2021 14:53:14)
 ------------------------------------------------------
 Symbolic Z-matrix:
 Charge =  0 Multiplicity = 1

                         Standard orientation:
 ---------------------------------------------------------------------
 Center     Atomic      Atomic             Coordinates (Angstroms)
 Number     Number       Type             X           Y           Z
 ---------------------------------------------------------------------
      1          6           0        4.392468   -0.209701   -0.354230
      2          6           0        4.217889   -1.716973   -0.165448
      3          6           0        5.516774   -2.494164   -0.381467
      4          1           0        4.773971   -0.015065   -1.365921
      5          1           0        5.158901    0.153919    0.344165
      6          1           0        3.451025   -2.077406   -0.863032
      7          1           0        3.836576   -1.908029    0.845845
      8          1           0        6.285889   -2.162637    0.323624
      9          1           0        5.898147   -2.332976   -1.394963
     10          1           0        5.369154   -3.569570   -0.241572
     11          6           0        3.102704    0.580883   -0.141597
     12          6           0        3.277283    2.088154   -0.330379
     13          6           0        1.978398    2.865346   -0.114360
     14          1           0        2.336271    0.217263   -0.839992
     15          1           0        2.721202    0.386247    0.870094
     16          1           0        3.658596    2.279211   -1.341672
     17          1           0        4.044147    2.448587    0.367206
     18          1           0        1.597025    2.704158    0.899136
     19          1           0        1.209283    2.533819   -0.819450
     20          1           0        2.126018    3.940751   -0.254255
     21          6           0       -1.342402    0.290727    2.107469
     22          6           0       -2.199936   -0.813644    2.146438
     23          6           0       -3.082522   -1.064816    1.091684
     24          6           0       -3.081073   -0.187117    0.008665
     25          6           0       -2.238878    0.921648   -0.059466
     26          6           0       -1.364571    1.153328    1.006583
     27          1           0       -0.660004    0.478274    2.931214
     28          1           0       -2.184896   -1.485241    3.000121
     29          1           0       -3.757150   -1.912328    1.095994
     30          1           0       -2.276809    1.573323   -0.923929
     31          1           0       -0.699727    2.011779    0.973609
     32          7           0       -4.011044   -0.442704   -1.113934
     33          8           0       -3.990402    0.345582   -2.056704
     34          8           0       -4.742989   -1.426481   -1.029801
 ---------------------------------------------------------------------

 SCF Done:  E(RHF) =  -669.535256991     A.U. after   15 cycles
 E2 =    -0.2091548408D+01 EUMP2 =    -0.67162680539843D+03

 The electronic state is 1-A.
 Alpha  occ. eigenvalues --  -20.60716 -20.60711 -15.85768 -11.31116 -11.27676
 Alpha  occ. eigenvalues --  -11.27656 -11.27407 -11.26701 -11.26600 -11.22360
 Alpha  occ. eigenvalues --  -11.22148 -11.22020 -11.22006 -11.21856 -11.21398
 Alpha  occ. eigenvalues --   -1.59792  -1.39346  -1.19277  -1.09022  -1.08677
 Alpha  occ. eigenvalues --   -1.04676  -1.04154  -0.96631  -0.95519  -0.87665
 Alpha  occ. eigenvalues --   -0.86071  -0.82350  -0.80237  -0.78805  -0.77394
 Alpha  occ. eigenvalues --   -0.71987  -0.71115  -0.70395  -0.65651  -0.64927
 Alpha  occ. eigenvalues --   -0.64700  -0.62059  -0.61548  -0.59986  -0.58214
 Alpha  occ. eigenvalues --   -0.55932  -0.55187  -0.53345  -0.53240  -0.52999
 Alpha  occ. eigenvalues --   -0.52550  -0.50581  -0.48768  -0.48744  -0.48486
 Alpha  occ. eigenvalues --   -0.47249  -0.46351  -0.46250  -0.44756  -0.44385
 Alpha  occ. eigenvalues --   -0.37257  -0.36265
 Alpha virt. eigenvalues --    0.05117   0.11344   0.16582   0.20464   0.22488
 Alpha virt. eigenvalues --    0.23923   0.25538   0.25818   0.27046   0.27952
 Alpha virt. eigenvalues --    0.29142   0.30340   0.30838   0.31286   0.31936

 Mulliken charges:
               1
     1  C   -0.298901
     2  C   -0.299893
     3  C   -0.476062
     4  H    0.151829
     5  H    0.149643
     6  H    0.154235
     7  H    0.150131
     8  H    0.155089
     9  H    0.156565
    10  H    0.161459
    11  C   -0.298306
    12  C   -0.299733
    13  C   -0.479682
    14  H    0.153179
    15  H    0.144773
    16  H    0.156418
    17  H    0.153745
    18  H    0.146270
    19  H    0.155575
    20  H    0.165383
    21  C   -0.172871
    22  C   -0.218230
    23  C   -0.171602
    24  C    0.158975
    25  C   -0.174376
    26  C   -0.221448
    27  H    0.224468
    28  H    0.222929
    29  H    0.275204
    30  H    0.275178
    31  H    0.233440
    32  N    0.488017
    33  O   -0.460716
    34  O   -0.460684
 Sum of Mulliken charges =  -0.00000

 Dipole moment (field-independent basis, Debye):
    X=              3.4750    Y=              0.8983    Z=              3.8717  Tot=              5.2794
 Quadrupole moment (field-independent basis, Debye-Ang):
   XX=           -115.3649   YY=            -92.4247   ZZ=            -93.1686
   XY=             -1.0969   XZ=            -13.0806   YZ=             -3.0500

 Normal termination of Gaussian 16 at Thu May  6 08:57:06 2021.
