 Gaussian 16, Revision A.03,
 Gaussian 16:  EM64L-G16RevA.03 25-Dec-2016

 -------------
 #p 6-31g* mp2
 -------------

 ------------------------------------------------------
 Input file generated by CHIRIPA (05-May-2021 14:53:12)
 ------------------------------------------------------
 Symbolic Z-matrix:
 Charge =  0 Multiplicity = 1

                         Standard orientation:
 ---------------------------------------------------------------------
 Center     Atomic      Atomic             Coordinates (Angstroms)
 Number     Number       Type             X           Y           Z
 ---------------------------------------------------------------------
      1          6           0       -3.256887    0.819808   -0.404686
      2          6           0       -2.503295    1.733333    0.562555
      3          6           0       -2.012746    3.020579   -0.100885
      4          1           0       -2.601211    0.571269   -1.250418
      5          1           0       -4.112965    1.366989   -0.823159
      6          1           0       -1.649695    1.184138    0.980129
      7          1           0       -3.160778    1.979571    1.406178
      8          1           0       -2.855611    3.592524   -0.502206
      9          1           0       -1.335943    2.792572   -0.930676
     10          1           0       -1.476768    3.658807    0.608517
     11          6           0       -3.753576   -0.471107    0.243826
     12          6           0       -4.507169   -1.384632   -0.723416
     13          6           0       -4.997718   -2.671878   -0.059975
     14          1           0       -2.897499   -1.018288    0.662298
     15          1           0       -4.409253   -0.222568    1.089557
     16          1           0       -3.849686   -1.630870   -1.567039
     17          1           0       -5.360768   -0.835437   -1.140990
     18          1           0       -5.674521   -2.443871    0.769815
     19          1           0       -4.154853   -3.243823    0.341346
     20          1           0       -5.533696   -3.310106   -0.769378
     21          6           0        3.588594   -2.511572    0.033527
     22          6           0        4.259308   -1.519084   -0.688714
     23          6           0        3.797246   -0.199628   -0.679711
     24          6           0        2.656275    0.093430    0.065670
     25          6           0        1.966133   -0.873178    0.795508
     26          6           0        2.446161   -2.186026    0.772030
     27          1           0        3.954513   -3.533991    0.020911
     28          1           0        5.146789   -1.769014   -1.263132
     29          1           0        4.297172    0.588341   -1.229799
     30          1           0        1.084114   -0.593538    1.358769
     31          1           0        1.923251   -2.954749    1.333879
     32          7           0        2.157601    1.486782    0.082862
     33          8           0        1.150151    1.719218    0.747435
     34          8           0        2.783631    2.320071   -0.568561
 ---------------------------------------------------------------------

 SCF Done:  E(RHF) =  -669.535858347     A.U. after   15 cycles
 E2 =    -0.2091817412D+01 EUMP2 =    -0.67162767575936D+03

 The electronic state is 1-A.
 Alpha  occ. eigenvalues --  -20.60971 -20.60960 -15.85995 -11.31320 -11.27887
 Alpha  occ. eigenvalues --  -11.27877 -11.27616 -11.26889 -11.26879 -11.21372
 Alpha  occ. eigenvalues --  -11.21025 -11.20978 -11.20688 -11.20452 -11.19600
 Alpha  occ. eigenvalues --   -1.60026  -1.39583  -1.19488  -1.08891  -1.07855
 Alpha  occ. eigenvalues --   -1.04884  -1.02816  -0.95739  -0.95266  -0.86304
 Alpha  occ. eigenvalues --   -0.86276  -0.82568  -0.78963  -0.77682  -0.77532
 Alpha  occ. eigenvalues --   -0.72228  -0.71344  -0.70596  -0.65150  -0.64886
 Alpha  occ. eigenvalues --   -0.64490  -0.62233  -0.60197  -0.58730  -0.56845
 Alpha  occ. eigenvalues --   -0.55387  -0.54575  -0.53213  -0.52976  -0.51931
 Alpha  occ. eigenvalues --   -0.51707  -0.49337  -0.48977  -0.48892  -0.47246
 Alpha  occ. eigenvalues --   -0.46021  -0.45194  -0.45061  -0.44848  -0.43085
 Alpha  occ. eigenvalues --   -0.37465  -0.36486
 Alpha virt. eigenvalues --    0.04882   0.11164   0.16362   0.20909   0.23184
 Alpha virt. eigenvalues --    0.24764   0.26056   0.27432   0.27678   0.28679
 Alpha virt. eigenvalues --    0.28944   0.30580   0.31628   0.32159   0.33071

 Mulliken charges:
               1
     1  C   -0.298030
     2  C   -0.303608
     3  C   -0.467325
     4  H    0.147501
     5  H    0.147751
     6  H    0.161605
     7  H    0.145685
     8  H    0.144058
     9  H    0.157907
    10  H    0.168942
    11  C   -0.295729
    12  C   -0.299008
    13  C   -0.474806
    14  H    0.142216
    15  H    0.149269
    16  H    0.150490
    17  H    0.152646
    18  H    0.155332
    19  H    0.151434
    20  H    0.159227
    21  C   -0.170525
    22  C   -0.218553
    23  C   -0.170763
    24  C    0.157813
    25  C   -0.171319
    26  C   -0.218744
    27  H    0.226153
    28  H    0.223948
    29  H    0.275933
    30  H    0.276277
    31  H    0.224086
    32  N    0.491226
    33  O   -0.462280
    34  O   -0.458810
 Sum of Mulliken charges =  -0.00000

 Dipole moment (field-independent basis, Debye):
    X=              2.0508    Y=             -4.8058    Z=             -0.0398  Tot=              5.2252
 Quadrupole moment (field-independent basis, Debye-Ang):
   XX=            -83.0675   YY=            -96.5811   ZZ=            -93.6551
   XY=            -12.7432   XZ=             -2.8706   YZ=             -0.7669

 Normal termination of Gaussian 16 at Thu May  6 07:15:35 2021.
