 Gaussian 16, Revision A.03,
 Gaussian 16:  EM64L-G16RevA.03 25-Dec-2016

 -------------
 #p 6-31g* mp2
 -------------

 ------------------------------------------------------
 Input file generated by CHIRIPA (05-May-2021 14:55:19)
 ------------------------------------------------------
 Symbolic Z-matrix:
 Charge =  0 Multiplicity = 1

                         Standard orientation:
 ---------------------------------------------------------------------
 Center     Atomic      Atomic             Coordinates (Angstroms)
 Number     Number       Type             X           Y           Z
 ---------------------------------------------------------------------
      1          6           0       -2.600464    2.545573   -0.162387
      2          6           0       -1.792772    1.551809   -0.725050
      3          6           0       -2.203418    0.215439   -0.719312
      4          6           0       -3.433210   -0.093048   -0.139883
      5          6           0       -4.260322    0.874387    0.428664
      6          6           0       -3.829494    2.204291    0.411663
      7          1           0       -2.273625    3.581186   -0.171219
      8          1           0       -0.837803    1.813936   -1.171557
      9          1           0       -1.597886   -0.573908   -1.147891
     10          1           0       -5.207139    0.582348    0.866465
     11          1           0       -4.458829    2.973964    0.849370
     12          7           0       -3.878625   -1.504380   -0.127847
     13          8           0       -4.966417   -1.750207    0.388793
     14          8           0       -3.131517   -2.338033   -0.635280
     15          6           0        4.888640   -0.094988   -0.298596
     16          6           0        6.242072   -0.015022    0.408379
     17          6           0        7.408795    0.152244   -0.565570
     18          1           0        4.900818   -0.935297   -1.006182
     19          1           0        4.740796    0.814984   -0.896498
     20          1           0        6.386710   -0.924256    1.005864
     21          1           0        6.226606    0.825077    1.114502
     22          1           0        7.291629    1.068420   -1.153357
     23          1           0        7.452644   -0.690851   -1.262611
     24          1           0        8.366654    0.207205   -0.038934
     25          6           0        3.712448   -0.262278    0.661775
     26          6           0        2.359016   -0.342244   -0.045199
     27          6           0        1.192294   -0.509510    0.928749
     28          1           0        3.860293   -1.172251    1.259678
     29          1           0        3.700271    0.578031    1.369361
     30          1           0        2.374482   -1.182343   -0.751323
     31          1           0        2.214378    0.566990   -0.642686
     32          1           0        1.148446    0.333585    1.625791
     33          1           0        1.309459   -1.425687    1.516536
     34          1           0        0.234434   -0.564471    0.402114
 ---------------------------------------------------------------------

 SCF Done:  E(RHF) =  -669.534565842     A.U. after   15 cycles
 E2 =    -0.2092224794D+01 EUMP2 =    -0.67162679063590D+03

 The electronic state is 1-A.
 Alpha  occ. eigenvalues --  -20.60770 -20.60765 -15.85825 -11.31203 -11.27767
 Alpha  occ. eigenvalues --  -11.27764 -11.27510 -11.26791 -11.26780 -11.22048
 Alpha  occ. eigenvalues --  -11.21831 -11.21718 -11.21644 -11.21351 -11.21270
 Alpha  occ. eigenvalues --   -1.59845  -1.39399  -1.19382  -1.08769  -1.08743
 Alpha  occ. eigenvalues --   -1.04798  -1.03836  -0.96275  -0.95603  -0.87288
 Alpha  occ. eigenvalues --   -0.86182  -0.82438  -0.79906  -0.78555  -0.77487
 Alpha  occ. eigenvalues --   -0.72044  -0.71169  -0.70504  -0.65376  -0.65037
 Alpha  occ. eigenvalues --   -0.64792  -0.62209  -0.61227  -0.59639  -0.57897
 Alpha  occ. eigenvalues --   -0.55542  -0.55284  -0.53395  -0.52917  -0.52789
 Alpha  occ. eigenvalues --   -0.52525  -0.50194  -0.48803  -0.48798  -0.48216
 Alpha  occ. eigenvalues --   -0.46943  -0.46092  -0.46019  -0.44803  -0.44095
 Alpha  occ. eigenvalues --   -0.37357  -0.36319
 Alpha virt. eigenvalues --    0.05020   0.11198   0.16465   0.20370   0.22736
 Alpha virt. eigenvalues --    0.23960   0.25977   0.26586   0.27193   0.27920
 Alpha virt. eigenvalues --    0.29081   0.29643   0.31256   0.31589   0.31988

 Mulliken charges:
               1
     1  C   -0.171329
     2  C   -0.215429
     3  C   -0.172273
     4  C    0.157959
     5  C   -0.171326
     6  C   -0.218123
     7  H    0.225618
     8  H    0.225057
     9  H    0.276068
    10  H    0.275699
    11  H    0.223520
    12  N    0.488273
    13  O   -0.460309
    14  O   -0.460515
    15  C   -0.298375
    16  C   -0.299910
    17  C   -0.475846
    18  H    0.151024
    19  H    0.147614
    20  H    0.153274
    21  H    0.151622
    22  H    0.154542
    23  H    0.155994
    24  H    0.161043
    25  C   -0.298242
    26  C   -0.300934
    27  C   -0.479102
    28  H    0.152601
    29  H    0.149147
    30  H    0.154865
    31  H    0.143154
    32  H    0.154186
    33  H    0.161080
    34  H    0.159373
 Sum of Mulliken charges =  -0.00000

 Dipole moment (field-independent basis, Debye):
    X=              1.5964    Y=              4.9357    Z=              0.0082  Tot=              5.1874
 Quadrupole moment (field-independent basis, Debye-Ang):
   XX=           -102.7642   YY=            -94.7810   ZZ=            -94.6668
   XY=            -19.1332   XZ=             -1.7603   YZ=              0.1451

 Normal termination of Gaussian 16 at Thu May  6 12:23:49 2021.
