 Gaussian 16, Revision A.03,
 Gaussian 16:  EM64L-G16RevA.03 25-Dec-2016

 -------------
 #p 6-31g* mp2
 -------------

 ------------------------------------------------------
 Input file generated by CHIRIPA (05-May-2021 14:55:24)
 ------------------------------------------------------
 Symbolic Z-matrix:
 Charge =  0 Multiplicity = 1

                         Standard orientation:
 ---------------------------------------------------------------------
 Center     Atomic      Atomic             Coordinates (Angstroms)
 Number     Number       Type             X           Y           Z
 ---------------------------------------------------------------------
      1          6           0       -1.968293    1.945791    0.505946
      2          6           0       -2.894092    1.991639   -0.541582
      3          6           0       -3.753852    0.914622   -0.776941
      4          6           0       -3.660217   -0.197434    0.058434
      5          6           0       -2.748441   -0.273121    1.110207
      6          6           0       -1.898545    0.815550    1.327050
      7          1           0       -1.304242    2.786970    0.681587
      8          1           0       -2.950492    2.868102   -1.180861
      9          1           0       -4.479946    0.923639   -1.580760
     10          1           0       -2.715749   -1.160496    1.730622
     11          1           0       -1.180540    0.777168    2.141323
     12          7           0       -4.565185   -1.343793   -0.180929
     13          8           0       -4.462827   -2.311971    0.569264
     14          8           0       -5.359723   -1.252423   -1.114202
     15          6           0        3.749627   -0.042550   -0.287276
     16          6           0        2.962391    1.222942    0.054446
     17          6           0        1.474410    1.100613   -0.275316
     18          1           0        3.626578   -0.265913   -1.355879
     19          1           0        3.320233   -0.892399    0.261152
     20          1           0        3.394010    2.070402   -0.493397
     21          1           0        3.087485    1.443426    1.122320
     22          1           0        1.023019    0.273502    0.282120
     23          1           0        1.331286    0.904041   -1.342778
     24          1           0        0.930701    2.016381   -0.023104
     25          6           0        5.238705    0.064312    0.036692
     26          6           0        6.025941   -1.201181   -0.305029
     27          6           0        7.513922   -1.078852    0.024733
     28          1           0        5.668099    0.914160   -0.511737
     29          1           0        5.361754    0.287675    1.105296
     30          1           0        5.900847   -1.421665   -1.372903
     31          1           0        5.594322   -2.048641    0.242814
     32          1           0        7.657046   -0.882279    1.092194
     33          1           0        7.965313   -0.251741   -0.532704
     34          1           0        8.057631   -1.994618   -0.227480
 ---------------------------------------------------------------------

 SCF Done:  E(RHF) =  -669.534370415     A.U. after   15 cycles
 E2 =    -0.2092117012D+01 EUMP2 =    -0.67162648742682D+03

 The electronic state is 1-A.
 Alpha  occ. eigenvalues --  -20.60729 -20.60724 -15.85784 -11.31136 -11.27717
 Alpha  occ. eigenvalues --  -11.27712 -11.27449 -11.26723 -11.26711 -11.22211
 Alpha  occ. eigenvalues --  -11.21907 -11.21861 -11.21797 -11.21756 -11.21331
 Alpha  occ. eigenvalues --   -1.59805  -1.39359  -1.19320  -1.08891  -1.08714
 Alpha  occ. eigenvalues --   -1.04726  -1.04007  -0.96473  -0.95548  -0.87491
 Alpha  occ. eigenvalues --   -0.86117  -0.82389  -0.80074  -0.78676  -0.77430
 Alpha  occ. eigenvalues --   -0.72003  -0.71129  -0.70462  -0.65521  -0.64974
 Alpha  occ. eigenvalues --   -0.64734  -0.62083  -0.61395  -0.59887  -0.58079
 Alpha  occ. eigenvalues --   -0.55753  -0.55268  -0.53450  -0.52896  -0.52807
 Alpha  occ. eigenvalues --   -0.52728  -0.50384  -0.48761  -0.48757  -0.48381
 Alpha  occ. eigenvalues --   -0.47099  -0.46222  -0.46136  -0.44768  -0.44272
 Alpha  occ. eigenvalues --   -0.37219  -0.36310
 Alpha virt. eigenvalues --    0.05086   0.11295   0.16487   0.20425   0.22616
 Alpha virt. eigenvalues --    0.24061   0.26116   0.26470   0.26846   0.27368
 Alpha virt. eigenvalues --    0.28691   0.30079   0.31103   0.31610   0.32534

 Mulliken charges:
               1
     1  C   -0.165621
     2  C   -0.220132
     3  C   -0.170758
     4  C    0.158504
     5  C   -0.172516
     6  C   -0.215767
     7  H    0.225186
     8  H    0.223175
     9  H    0.275414
    10  H    0.275211
    11  H    0.223355
    12  N    0.488123
    13  O   -0.460715
    14  O   -0.460638
    15  C   -0.298852
    16  C   -0.300590
    17  C   -0.473550
    18  H    0.151560
    19  H    0.150054
    20  H    0.152506
    21  H    0.149419
    22  H    0.156740
    23  H    0.159706
    24  H    0.147836
    25  C   -0.298446
    26  C   -0.300037
    27  C   -0.475931
    28  H    0.149876
    29  H    0.149280
    30  H    0.152911
    31  H    0.152633
    32  H    0.155172
    33  H    0.155367
    34  H    0.161526
 Sum of Mulliken charges =  -0.00000

 Dipole moment (field-independent basis, Debye):
    X=              3.2774    Y=              4.0035    Z=              0.7982  Tot=              5.2351
 Quadrupole moment (field-independent basis, Debye-Ang):
   XX=           -118.9156   YY=            -95.7173   ZZ=            -91.1488
   XY=            -16.7449   XZ=             -1.5459   YZ=             -2.4764

 Normal termination of Gaussian 16 at Thu May  6 19:19:47 2021.
