 Gaussian 16, Revision A.03,
 Gaussian 16:  EM64L-G16RevA.03 25-Dec-2016

 -------------
 #p 6-31g* mp2
 -------------

 ------------------------------------------------------
 Input file generated by CHIRIPA (05-May-2021 14:55:23)
 ------------------------------------------------------
 Symbolic Z-matrix:
 Charge =  0 Multiplicity = 1

                         Standard orientation:
 ---------------------------------------------------------------------
 Center     Atomic      Atomic             Coordinates (Angstroms)
 Number     Number       Type             X           Y           Z
 ---------------------------------------------------------------------
      1          6           0        4.078797    2.485825    0.035335
      2          6           0        5.079550    1.520752    0.189114
      3          6           0        4.770773    0.159353    0.112971
      4          6           0        3.444877   -0.203147   -0.119154
      5          6           0        2.425516    0.734623   -0.276575
      6          6           0        2.757303    2.090378   -0.196610
      7          1           0        4.327599    3.541200    0.095969
      8          1           0        6.106695    1.824948    0.369341
      9          1           0        5.525859   -0.608737    0.228310
     10          1           0        1.410631    0.400691   -0.455228
     11          1           0        1.978044    2.837669   -0.316426
     12          7           0        3.105809   -1.641411   -0.201786
     13          8           0        1.930073   -1.934860   -0.407139
     14          8           0        4.022204   -2.448041   -0.059637
     15          6           0       -5.049169    0.457415    0.036195
     16          6           0       -6.409107   -0.204841   -0.187342
     17          6           0       -7.535738    0.810042   -0.383577
     18          1           0       -5.108773    1.115504    0.913870
     19          1           0       -4.817535    1.102254   -0.822830
     20          1           0       -6.637480   -0.849314    0.671214
     21          1           0       -6.346206   -0.861576   -1.064473
     22          1           0       -7.334450    1.446020   -1.251688
     23          1           0       -7.627378    1.458353    0.493861
     24          1           0       -8.498961    0.315015   -0.541722
     25          6           0       -3.912774   -0.544191    0.233975
     26          6           0       -2.552836    0.118066    0.457513
     27          6           0       -1.426206   -0.896818    0.653747
     28          1           0       -4.144409   -1.189029    1.093000
     29          1           0       -3.853171   -1.202279   -0.643701
     30          1           0       -2.615737    0.774801    1.334644
     31          1           0       -2.324465    0.762538   -0.401043
     32          1           0       -1.334566   -1.545128   -0.223690
     33          1           0       -1.627494   -1.532795    1.521858
     34          1           0       -0.462983   -0.401790    0.811892
 ---------------------------------------------------------------------

 SCF Done:  E(RHF) =  -669.535301330     A.U. after   15 cycles
 E2 =    -0.2091461820D+01 EUMP2 =    -0.67162676314968D+03

 The electronic state is 1-A.
 Alpha  occ. eigenvalues --  -20.60773 -20.60766 -15.85817 -11.31194 -11.27764
 Alpha  occ. eigenvalues --  -11.27739 -11.27510 -11.26788 -11.26776 -11.21509
 Alpha  occ. eigenvalues --  -11.21464 -11.21301 -11.21205 -11.21016 -11.20614
 Alpha  occ. eigenvalues --   -1.59843  -1.39396  -1.19368  -1.08762  -1.08301
 Alpha  occ. eigenvalues --   -1.04774  -1.03373  -0.95804  -0.95583  -0.86798
 Alpha  occ. eigenvalues --   -0.86168  -0.82425  -0.79433  -0.78121  -0.77467
 Alpha  occ. eigenvalues --   -0.72037  -0.71164  -0.70484  -0.65022  -0.64933
 Alpha  occ. eigenvalues --   -0.64786  -0.62159  -0.60761  -0.59174  -0.57430
 Alpha  occ. eigenvalues --   -0.55278  -0.55055  -0.53106  -0.52959  -0.52394
 Alpha  occ. eigenvalues --   -0.52178  -0.49710  -0.48800  -0.48780  -0.47742
 Alpha  occ. eigenvalues --   -0.46469  -0.45650  -0.45588  -0.44804  -0.43601
 Alpha  occ. eigenvalues --   -0.37351  -0.36374
 Alpha virt. eigenvalues --    0.05031   0.11214   0.16546   0.20884   0.22975
 Alpha virt. eigenvalues --    0.24077   0.26647   0.26930   0.27655   0.27779
 Alpha virt. eigenvalues --    0.29299   0.30906   0.31596   0.31614   0.31999

 Mulliken charges:
               1
     1  C   -0.170654
     2  C   -0.218554
     3  C   -0.170656
     4  C    0.156917
     5  C   -0.175486
     6  C   -0.220231
     7  H    0.225630
     8  H    0.223483
     9  H    0.275619
    10  H    0.283993
    11  H    0.223922
    12  N    0.488565
    13  O   -0.460832
    14  O   -0.460336
    15  C   -0.297859
    16  C   -0.299677
    17  C   -0.475592
    18  H    0.148431
    19  H    0.147888
    20  H    0.152460
    21  H    0.152713
    22  H    0.154488
    23  H    0.154563
    24  H    0.160397
    25  C   -0.298122
    26  C   -0.302102
    27  C   -0.474554
    28  H    0.150849
    29  H    0.151770
    30  H    0.148699
    31  H    0.145138
    32  H    0.167223
    33  H    0.157435
    34  H    0.154470
 Sum of Mulliken charges =  -0.00000

 Dipole moment (field-independent basis, Debye):
    X=              1.2427    Y=              4.9333    Z=              0.2790  Tot=              5.0950
 Quadrupole moment (field-independent basis, Debye-Ang):
   XX=            -82.9344   YY=            -97.3702   ZZ=            -94.6288
   XY=             17.0360   XZ=              1.4645   YZ=             -0.7979

 Normal termination of Gaussian 16 at Thu May  6 19:15:26 2021.
