 Gaussian 16, Revision A.03,
 Gaussian 16:  EM64L-G16RevA.03 25-Dec-2016

 -------------
 #p 6-31g* mp2
 -------------

 ------------------------------------------------------
 Input file generated by CHIRIPA (05-May-2021 14:55:24)
 ------------------------------------------------------
 Symbolic Z-matrix:
 Charge =  0 Multiplicity = 1

                         Standard orientation:
 ---------------------------------------------------------------------
 Center     Atomic      Atomic             Coordinates (Angstroms)
 Number     Number       Type             X           Y           Z
 ---------------------------------------------------------------------
      1          6           0       -3.081221   -2.449144    0.559577
      2          6           0       -1.744255   -2.148821    0.278779
      3          6           0       -1.370120   -0.853627   -0.091414
      4          6           0       -2.363372    0.121241   -0.171247
      5          6           0       -3.703745   -0.146817    0.102314
      6          6           0       -4.054983   -1.448947    0.470606
      7          1           0       -3.362965   -3.457976    0.846413
      8          1           0       -0.985886   -2.923584    0.347060
      9          1           0       -0.342427   -0.593631   -0.314274
     10          1           0       -4.437242    0.646609    0.025661
     11          1           0       -5.094058   -1.679299    0.688104
     12          7           0       -1.979412    1.496076   -0.562147
     13          8           0       -2.873450    2.337119   -0.625231
     14          8           0       -0.791697    1.706596   -0.798049
     15          6           0        3.388761   -0.378846   -0.352823
     16          6           0        3.516670   -1.780193    0.245384
     17          6           0        4.083554   -2.796727   -0.746127
     18          1           0        2.745216   -0.424022   -1.242067
     19          1           0        4.376491   -0.043751   -0.698506
     20          1           0        2.529242   -2.111984    0.591091
     21          1           0        4.159831   -1.731642    1.133418
     22          1           0        5.079754   -2.492143   -1.082898
     23          1           0        3.439900   -2.874646   -1.628306
     24          1           0        4.166497   -3.791677   -0.297735
     25          6           0        2.823472    0.648538    0.626287
     26          6           0        2.695562    2.049885    0.028081
     27          6           0        2.128679    3.066420    1.019592
     28          1           0        1.835742    0.313444    0.971970
     29          1           0        3.467016    0.693714    1.515532
     30          1           0        2.052402    2.001334   -0.859954
     31          1           0        3.682991    2.381676   -0.317627
     32          1           0        2.772333    3.144339    1.901771
     33          1           0        1.132479    2.761835    1.356363
     34          1           0        2.045736    4.061369    0.571199
 ---------------------------------------------------------------------

 SCF Done:  E(RHF) =  -669.536021631     A.U. after   15 cycles
 E2 =    -0.2092750023D+01 EUMP2 =    -0.67162877165384D+03

 The electronic state is 1-A.
 Alpha  occ. eigenvalues --  -20.60985 -20.60974 -15.86012 -11.31311 -11.27869
 Alpha  occ. eigenvalues --  -11.27864 -11.27600 -11.26875 -11.26864 -11.21815
 Alpha  occ. eigenvalues --  -11.21292 -11.21284 -11.20994 -11.20589 -11.19953
 Alpha  occ. eigenvalues --   -1.60040  -1.39599  -1.19477  -1.08885  -1.08157
 Alpha  occ. eigenvalues --   -1.04870  -1.03112  -0.95735  -0.95586  -0.86618
 Alpha  occ. eigenvalues --   -0.86271  -0.82569  -0.79287  -0.77851  -0.77629
 Alpha  occ. eigenvalues --   -0.72256  -0.71353  -0.70588  -0.65152  -0.64953
 Alpha  occ. eigenvalues --   -0.64715  -0.62205  -0.60467  -0.59057  -0.57167
 Alpha  occ. eigenvalues --   -0.55378  -0.54874  -0.53200  -0.52956  -0.52289
 Alpha  occ. eigenvalues --   -0.52005  -0.49592  -0.48990  -0.48972  -0.47566
 Alpha  occ. eigenvalues --   -0.46359  -0.45444  -0.45254  -0.44913  -0.43403
 Alpha  occ. eigenvalues --   -0.37452  -0.36467
 Alpha virt. eigenvalues --    0.04867   0.11147   0.16372   0.19013   0.22933
 Alpha virt. eigenvalues --    0.24486   0.25686   0.27071   0.28058   0.28222
 Alpha virt. eigenvalues --    0.29578   0.31078   0.31897   0.32048   0.32674

 Mulliken charges:
               1
     1  C   -0.170351
     2  C   -0.220129
     3  C   -0.175675
     4  C    0.156951
     5  C   -0.170286
     6  C   -0.218619
     7  H    0.226216
     8  H    0.224719
     9  H    0.282501
    10  H    0.275868
    11  H    0.223941
    12  N    0.493788
    13  O   -0.458268
    14  O   -0.466575
    15  C   -0.300720
    16  C   -0.297285
    17  C   -0.475508
    18  H    0.149040
    19  H    0.151963
    20  H    0.139690
    21  H    0.154234
    22  H    0.158118
    23  H    0.153498
    24  H    0.158421
    25  C   -0.299037
    26  C   -0.302255
    27  C   -0.473049
    28  H    0.143417
    29  H    0.147882
    30  H    0.172387
    31  H    0.145677
    32  H    0.145700
    33  H    0.161674
    34  H    0.162072
 Sum of Mulliken charges =  -0.00000

 Dipole moment (field-independent basis, Debye):
    X=             -1.5244    Y=             -4.7041    Z=              1.2651  Tot=              5.1042
 Quadrupole moment (field-independent basis, Debye-Ang):
   XX=            -83.1223   YY=            -96.7189   ZZ=            -96.4926
   XY=             10.4510   XZ=             -3.3210   YZ=              0.3999

 Normal termination of Gaussian 16 at Thu May  6 14:21:39 2021.
