 Gaussian 16, Revision A.03,
 Gaussian 16:  EM64L-G16RevA.03 25-Dec-2016

 -------------
 #p 6-31g* mp2
 -------------

 ------------------------------------------------------
 Input file generated by CHIRIPA (05-May-2021 14:51:07)
 ------------------------------------------------------
 Symbolic Z-matrix:
 Charge =  0 Multiplicity = 1

                         Standard orientation:
 ---------------------------------------------------------------------
 Center     Atomic      Atomic             Coordinates (Angstroms)
 Number     Number       Type             X           Y           Z
 ---------------------------------------------------------------------
      1          6           0        5.472186   -0.604180    0.041737
      2          6           0        6.761224    0.217819    0.067918
      3          6           0        8.014037   -0.650889    0.184535
      4          1           0        5.414383   -1.212875    0.954477
      5          1           0        5.511339   -1.307868   -0.801284
      6          1           0        6.719056    0.920706    0.909814
      7          1           0        6.815871    0.824772   -0.844901
      8          1           0        8.083543   -1.342265   -0.661497
      9          1           0        7.986178   -1.245786    1.103188
     10          1           0        8.923971   -0.042949    0.201503
     11          6           0        4.211126    0.250181   -0.074550
     12          6           0        2.922088   -0.571818   -0.100731
     13          6           0        1.669275    0.296890   -0.217348
     14          1           0        4.171973    0.953869    0.768471
     15          1           0        4.268928    0.858875   -0.987290
     16          1           0        2.867441   -1.178771    0.812087
     17          1           0        2.964256   -1.274705   -0.942627
     18          1           0        1.697134    0.891787   -1.136001
     19          1           0        1.599769    0.988265    0.628684
     20          1           0        0.759340   -0.311050   -0.234316
     21          6           0       -5.520923    0.044584    0.339662
     22          6           0       -6.348840   -1.007927   -0.398414
     23          6           0       -7.705083   -1.261834    0.260320
     24          1           0       -5.370642   -0.278840    1.378777
     25          1           0       -6.089729    0.983685    0.383754
     26          1           0       -5.778070   -1.944362   -0.442312
     27          1           0       -6.497005   -0.682052   -1.435945
     28          1           0       -8.297088   -0.341386    0.290415
     29          1           0       -7.574069   -1.610869    1.289694
     30          1           0       -8.280353   -2.017573   -0.283539
     31          6           0       -4.162389    0.309415   -0.306850
     32          6           0       -3.334472    1.361927    0.431228
     33          6           0       -1.978229    1.615833   -0.227507
     34          1           0       -3.593583   -0.629686   -0.350941
     35          1           0       -4.312669    0.632839   -1.345963
     36          1           0       -3.186307    1.036052    1.468759
     37          1           0       -3.905242    2.298362    0.475125
     38          1           0       -2.109243    1.964867   -1.256881
     39          1           0       -1.386224    0.695385   -0.257602
     40          1           0       -1.402959    2.371572    0.316353
 ---------------------------------------------------------------------

 SCF Done:  E(RHF) =  -470.732921883     A.U. after   11 cycles
 E2 =    -0.1582336961D+01 EUMP2 =    -0.47231525884409D+03

 The electronic state is 1-A.
 Alpha  occ. eigenvalues --  -11.21591 -11.21581 -11.21569 -11.21527 -11.21389
 Alpha  occ. eigenvalues --  -11.21371 -11.21330 -11.21311 -11.21064 -11.21055
 Alpha  occ. eigenvalues --  -11.21019 -11.20919  -1.08414  -1.08387  -1.03524
 Alpha  occ. eigenvalues --   -1.03463  -0.96007  -0.95879  -0.87069  -0.86851
 Alpha  occ. eigenvalues --   -0.79652  -0.79463  -0.78233  -0.78194  -0.65044
 Alpha  occ. eigenvalues --   -0.65022  -0.60919  -0.60887  -0.59354  -0.59292
 Alpha  occ. eigenvalues --   -0.57633  -0.57480  -0.55269  -0.55208  -0.52845
 Alpha  occ. eigenvalues --   -0.52592  -0.52357  -0.52220  -0.49911  -0.49816
 Alpha  occ. eigenvalues --   -0.47917  -0.47825  -0.46614  -0.46566  -0.45777
 Alpha  occ. eigenvalues --   -0.45736  -0.45694  -0.45671  -0.43767  -0.43675
 Alpha virt. eigenvalues --    0.22430   0.23000   0.23618   0.24825   0.26355
 Alpha virt. eigenvalues --    0.26652   0.26954   0.27354   0.27675   0.29024
 Alpha virt. eigenvalues --    0.29711   0.31128   0.31545   0.31881   0.32256

 Mulliken charges:
               1
     1  C   -0.298212
     2  C   -0.299600
     3  C   -0.475685
     4  H    0.149553
     5  H    0.149484
     6  H    0.151896
     7  H    0.151946
     8  H    0.155164
     9  H    0.155137
    10  H    0.160223
    11  C   -0.298621
    12  C   -0.300264
    13  C   -0.475480
    14  H    0.149438
    15  H    0.149683
    16  H    0.151538
    17  H    0.151678
    18  H    0.155958
    19  H    0.155614
    20  H    0.161004
    21  C   -0.298201
    22  C   -0.299610
    23  C   -0.475677
    24  H    0.149531
    25  H    0.149509
    26  H    0.151810
    27  H    0.151898
    28  H    0.155163
    29  H    0.155128
    30  H    0.160166
    31  C   -0.298179
    32  C   -0.299827
    33  C   -0.479036
    34  H    0.148949
    35  H    0.149577
    36  H    0.151445
    37  H    0.151392
    38  H    0.154216
    39  H    0.161187
    40  H    0.160104
 Sum of Mulliken charges =  -0.00000

 Dipole moment (field-independent basis, Debye):
    X=              0.0219    Y=              0.0062    Z=             -0.0068  Tot=              0.0237
 Quadrupole moment (field-independent basis, Debye-Ang):
   XX=            -86.8751   YY=            -84.6115   ZZ=            -83.5310
   XY=             -0.0750   XZ=              0.4689   YZ=             -0.2397

 Normal termination of Gaussian 16 at Wed May  5 15:01:41 2021.
