 Gaussian 16, Revision A.03,
 Gaussian 16:  EM64L-G16RevA.03 25-Dec-2016

 -------------
 #p 6-31g* mp2
 -------------

 ------------------------------------------------------
 Input file generated by CHIRIPA (05-May-2021 14:55:22)
 ------------------------------------------------------
 Symbolic Z-matrix:
 Charge =  0 Multiplicity = 1

                         Standard orientation:
 ---------------------------------------------------------------------
 Center     Atomic      Atomic             Coordinates (Angstroms)
 Number     Number       Type             X           Y           Z
 ---------------------------------------------------------------------
      1          6           0       -2.026001    2.791729    0.603491
      2          6           0       -3.139424    2.050225    1.012125
      3          6           0       -3.316928    0.735063    0.572363
      4          6           0       -2.357131    0.190323   -0.279305
      5          6           0       -1.237215    0.903508   -0.704092
      6          6           0       -1.080118    2.217017   -0.251806
      7          1           0       -1.896038    3.812736    0.949973
      8          1           0       -3.875618    2.493977    1.676315
      9          1           0       -4.169562    0.138433    0.873136
     10          1           0       -0.520287    0.434004   -1.366662
     11          1           0       -0.214440    2.790512   -0.570789
     12          7           0       -2.534245   -1.201105   -0.751491
     13          8           0       -1.674355   -1.658100   -1.501413
     14          8           0       -3.529602   -1.808364   -0.362727
     15          6           0        2.275968   -0.826158    0.190253
     16          6           0        2.008620   -1.998700    1.134527
     17          6           0        0.596458   -2.566100    0.987388
     18          1           0        1.539205   -0.034045    0.381780
     19          1           0        2.118353   -1.155697   -0.846066
     20          1           0        2.168037   -1.667422    2.168672
     21          1           0        2.746224   -2.788036    0.940860
     22          1           0        0.429288   -2.923302   -0.033915
     23          1           0       -0.152184   -1.796320    1.200873
     24          1           0        0.426870   -3.403301    1.671636
     25          6           0        3.683561   -0.248138    0.325545
     26          6           0        3.950908    0.924404   -0.618729
     27          6           0        5.363071    1.491803   -0.471592
     28          1           0        3.841176    0.081401    1.361863
     29          1           0        4.420323   -1.040251    0.134017
     30          1           0        3.213305    1.713740   -0.425063
     31          1           0        3.791491    0.593125   -1.652875
     32          1           0        6.111712    0.722023   -0.685075
     33          1           0        5.530241    1.849006    0.549713
     34          1           0        5.532658    2.329005   -1.155838
 ---------------------------------------------------------------------

 SCF Done:  E(RHF) =  -669.535436563     A.U. after   15 cycles
 E2 =    -0.2093886360D+01 EUMP2 =    -0.67162932292338D+03

 The electronic state is 1-A.
 Alpha  occ. eigenvalues --  -20.60810 -20.60800 -15.85837 -11.31213 -11.27798
 Alpha  occ. eigenvalues --  -11.27764 -11.27540 -11.26804 -11.26794 -11.21916
 Alpha  occ. eigenvalues --  -11.21477 -11.21343 -11.21327 -11.21267 -11.20327
 Alpha  occ. eigenvalues --   -1.59867  -1.39423  -1.19398  -1.08789  -1.08439
 Alpha  occ. eigenvalues --   -1.04797  -1.03444  -0.95863  -0.95622  -0.86881
 Alpha  occ. eigenvalues --   -0.86191  -0.82455  -0.79555  -0.78287  -0.77464
 Alpha  occ. eigenvalues --   -0.72075  -0.71189  -0.70497  -0.65101  -0.65023
 Alpha  occ. eigenvalues --   -0.64791  -0.62138  -0.60843  -0.59287  -0.57476
 Alpha  occ. eigenvalues --   -0.55299  -0.55138  -0.53145  -0.52896  -0.52546
 Alpha  occ. eigenvalues --   -0.52264  -0.49813  -0.48830  -0.48828  -0.47867
 Alpha  occ. eigenvalues --   -0.46604  -0.45851  -0.45681  -0.44632  -0.43712
 Alpha  occ. eigenvalues --   -0.37369  -0.36362
 Alpha virt. eigenvalues --    0.04973   0.11213   0.16376   0.20720   0.22945
 Alpha virt. eigenvalues --    0.24296   0.25530   0.26267   0.27869   0.28183
 Alpha virt. eigenvalues --    0.29456   0.30323   0.31619   0.31755   0.32126

 Mulliken charges:
               1
     1  C   -0.170424
     2  C   -0.218734
     3  C   -0.171306
     4  C    0.155253
     5  C   -0.169233
     6  C   -0.221201
     7  H    0.225820
     8  H    0.223606
     9  H    0.275939
    10  H    0.279373
    11  H    0.224625
    12  N    0.490539
    13  O   -0.458702
    14  O   -0.459740
    15  C   -0.303621
    16  C   -0.299882
    17  C   -0.478438
    18  H    0.144776
    19  H    0.153446
    20  H    0.148592
    21  H    0.152027
    22  H    0.176836
    23  H    0.144840
    24  H    0.158870
    25  C   -0.297397
    26  C   -0.298847
    27  C   -0.475452
    28  H    0.149064
    29  H    0.151900
    30  H    0.142826
    31  H    0.152723
    32  H    0.157552
    33  H    0.155188
    34  H    0.159181
 Sum of Mulliken charges =  -0.00000

 Dipole moment (field-independent basis, Debye):
    X=              0.5444    Y=              4.7579    Z=              1.5675  Tot=              5.0389
 Quadrupole moment (field-independent basis, Debye-Ang):
   XX=            -95.0795   YY=            -92.9963   ZZ=            -94.5827
   XY=            -12.1449   XZ=             -7.0494   YZ=             -0.5075

 Normal termination of Gaussian 16 at Thu May  6 07:48:44 2021.
