 Gaussian 16, Revision A.03,
 Gaussian 16:  EM64L-G16RevA.03 25-Dec-2016

 -------------
 #p 6-31g* mp2
 -------------

 ------------------------------------------------------
 Input file generated by CHIRIPA (05-May-2021 14:55:23)
 ------------------------------------------------------
 Symbolic Z-matrix:
 Charge =  0 Multiplicity = 1

                         Standard orientation:
 ---------------------------------------------------------------------
 Center     Atomic      Atomic             Coordinates (Angstroms)
 Number     Number       Type             X           Y           Z
 ---------------------------------------------------------------------
      1          6           0        3.242491    2.569718   -0.041932
      2          6           0        4.316497    1.889417    0.541354
      3          6           0        4.382645    0.493721    0.494370
      4          6           0        3.352899   -0.193086   -0.146886
      5          6           0        2.269764    0.456078   -0.737390
      6          6           0        2.224347    1.852142   -0.678321
      7          1           0        3.199157    3.654071   -0.000740
      8          1           0        5.108619    2.444093    1.036248
      9          1           0        5.202566   -0.058214    0.937669
     10          1           0        1.495091   -0.124267   -1.223702
     11          1           0        1.389051    2.377825   -1.132174
     12          7           0        3.411953   -1.670841   -0.203023
     13          8           0        2.492120   -2.252773   -0.773899
     14          8           0        4.376955   -2.219193    0.324916
     15          6           0       -3.678255   -0.400330    0.507106
     16          6           0       -2.339855    0.221080    0.106460
     17          6           0       -1.147014   -0.461373    0.776669
     18          1           0       -3.788516   -0.345621    1.598800
     19          1           0       -3.671528   -1.467830    0.246734
     20          1           0       -2.349626    1.287397    0.366251
     21          1           0       -2.232853    0.165059   -0.984425
     22          1           0       -1.109165   -1.522053    0.508108
     23          1           0       -1.226602   -0.393339    1.866458
     24          1           0       -0.200441   -0.001358    0.476258
     25          6           0       -4.880249    0.271137   -0.154764
     26          6           0       -6.218650   -0.350274    0.245882
     27          6           0       -7.411490    0.332179   -0.424327
     28          1           0       -4.886977    1.338636    0.105608
     29          1           0       -4.769988    0.216428   -1.246458
     30          1           0       -6.325651   -0.294252    1.336766
     31          1           0       -6.208878   -1.416590   -0.013909
     32          1           0       -7.331902    0.264146   -1.514116
     33          1           0       -7.449339    1.392860   -0.155766
     34          1           0       -8.358063   -0.127835   -0.123916
 ---------------------------------------------------------------------

 SCF Done:  E(RHF) =  -669.534832803     A.U. after   15 cycles
 E2 =    -0.2092078566D+01 EUMP2 =    -0.67162691136889D+03

 The electronic state is 1-A.
 Alpha  occ. eigenvalues --  -20.60768 -20.60760 -15.85821 -11.31207 -11.27787
 Alpha  occ. eigenvalues --  -11.27762 -11.27531 -11.26805 -11.26795 -11.21809
 Alpha  occ. eigenvalues --  -11.21665 -11.21507 -11.21446 -11.21140 -11.21052
 Alpha  occ. eigenvalues --   -1.59839  -1.39392  -1.19395  -1.08777  -1.08537
 Alpha  occ. eigenvalues --   -1.04810  -1.03631  -0.96070  -0.95607  -0.87084
 Alpha  occ. eigenvalues --   -0.86189  -0.82443  -0.79701  -0.78354  -0.77486
 Alpha  occ. eigenvalues --   -0.72040  -0.71162  -0.70510  -0.65165  -0.65045
 Alpha  occ. eigenvalues --   -0.64805  -0.62202  -0.61017  -0.59448  -0.57701
 Alpha  occ. eigenvalues --   -0.55345  -0.55276  -0.53341  -0.52935  -0.52600
 Alpha  occ. eigenvalues --   -0.52361  -0.49978  -0.48800  -0.48792  -0.48010
 Alpha  occ. eigenvalues --   -0.46730  -0.45892  -0.45815  -0.44796  -0.43891
 Alpha  occ. eigenvalues --   -0.37367  -0.36347
 Alpha virt. eigenvalues --    0.05013   0.11210   0.16461   0.20942   0.22835
 Alpha virt. eigenvalues --    0.24122   0.26487   0.26837   0.27470   0.27944
 Alpha virt. eigenvalues --    0.29206   0.30694   0.31373   0.31861   0.32108

 Mulliken charges:
               1
     1  C   -0.170487
     2  C   -0.218340
     3  C   -0.171028
     4  C    0.157987
     5  C   -0.171746
     6  C   -0.219132
     7  H    0.225818
     8  H    0.223605
     9  H    0.275813
    10  H    0.278907
    11  H    0.224606
    12  N    0.488441
    13  O   -0.460224
    14  O   -0.460466
    15  C   -0.298362
    16  C   -0.300347
    17  C   -0.481943
    18  H    0.150473
    19  H    0.152792
    20  H    0.147819
    21  H    0.148388
    22  H    0.165398
    23  H    0.156260
    24  H    0.156328
    25  C   -0.298250
    26  C   -0.299882
    27  C   -0.475750
    28  H    0.147966
    29  H    0.149338
    30  H    0.152199
    31  H    0.153315
    32  H    0.155197
    33  H    0.154455
    34  H    0.160852
 Sum of Mulliken charges =  -0.00000

 Dipole moment (field-independent basis, Debye):
    X=             -0.1809    Y=              5.1359    Z=              0.2204  Tot=              5.1438
 Quadrupole moment (field-independent basis, Debye-Ang):
   XX=            -93.3342   YY=            -97.0363   ZZ=            -93.7637
   XY=             18.3665   XZ=              2.7522   YZ=             -0.1100

 Normal termination of Gaussian 16 at Thu May  6 17:36:47 2021.
