 Gaussian 16, Revision A.03,
 Gaussian 16:  EM64L-G16RevA.03 25-Dec-2016

 -------------
 #p 6-31g* mp2
 -------------

 ------------------------------------------------------
 Input file generated by CHIRIPA (05-May-2021 14:51:11)
 ------------------------------------------------------
 Symbolic Z-matrix:
 Charge =  0 Multiplicity = 1

                         Standard orientation:
 ---------------------------------------------------------------------
 Center     Atomic      Atomic             Coordinates (Angstroms)
 Number     Number       Type             X           Y           Z
 ---------------------------------------------------------------------
      1          6           0        4.261607   -0.143295    0.047911
      2          6           0        4.607547    1.185486   -0.624884
      3          6           0        6.102685    1.332647   -0.908961
      4          1           0        4.824931   -0.229002    0.987201
      5          1           0        4.596860   -0.969598   -0.594135
      6          1           0        4.270500    2.009034    0.017598
      7          1           0        4.043189    1.268125   -1.562587
      8          1           0        6.450155    0.531135   -1.568844
      9          1           0        6.678757    1.276254    0.020319
     10          1           0        6.327642    2.289636   -1.390029
     11          6           0        2.770572   -0.305195    0.338308
     12          6           0        2.424632   -1.633975    1.011103
     13          6           0        0.929494   -1.781137    1.295180
     14          1           0        2.435319    0.521109    0.980354
     15          1           0        2.207249   -0.219487   -0.600982
     16          1           0        2.988990   -1.716615    1.948806
     17          1           0        2.761680   -2.457523    0.368621
     18          1           0        0.353423   -1.724743    0.365900
     19          1           0        0.582025   -0.979625    1.955063
     20          1           0        0.704537   -2.738125    1.776249
     21          6           0       -3.316961    0.827272    0.231317
     22          6           0       -4.034954    2.115815   -0.171333
     23          6           0       -3.626072    3.313326    0.686907
     24          1           0       -3.528074    0.612181    1.287779
     25          1           0       -2.231687    0.981125    0.154472
     26          1           0       -5.118586    1.959143   -0.095080
     27          1           0       -3.822263    2.327760   -1.227011
     28          1           0       -2.550200    3.497919    0.603086
     29          1           0       -3.853887    3.127207    1.741449
     30          1           0       -4.151281    4.223821    0.381927
     31          6           0       -3.715219   -0.378782   -0.617536
     32          6           0       -2.997224   -1.667326   -0.214886
     33          6           0       -3.406108   -2.864837   -1.073126
     34          1           0       -4.800493   -0.532635   -0.540692
     35          1           0       -3.504106   -0.163692   -1.673998
     36          1           0       -3.209916   -1.879270    0.840792
     37          1           0       -1.913593   -1.510653   -0.291139
     38          1           0       -3.178292   -2.678717   -2.127669
     39          1           0       -4.481980   -3.049429   -0.989305
     40          1           0       -2.880899   -3.775332   -0.768146
 ---------------------------------------------------------------------

 SCF Done:  E(RHF) =  -470.733207085     A.U. after   11 cycles
 E2 =    -0.1582549337D+01 EUMP2 =    -0.47231575642185D+03

 The electronic state is 1-A.
 Alpha  occ. eigenvalues --  -11.21620 -11.21608 -11.21572 -11.21511 -11.21426
 Alpha  occ. eigenvalues --  -11.21367 -11.21359 -11.21299 -11.21085 -11.21058
 Alpha  occ. eigenvalues --  -11.21050 -11.21029  -1.08448  -1.08384  -1.03548
 Alpha  occ. eigenvalues --   -1.03482  -0.95995  -0.95937  -0.87021  -0.86946
 Alpha  occ. eigenvalues --   -0.79663  -0.79498  -0.78281  -0.78172  -0.65098
 Alpha  occ. eigenvalues --   -0.65005  -0.61015  -0.60828  -0.59358  -0.59311
 Alpha  occ. eigenvalues --   -0.57620  -0.57534  -0.55316  -0.55199  -0.52690
 Alpha  occ. eigenvalues --   -0.52637  -0.52449  -0.52339  -0.50021  -0.49825
 Alpha  occ. eigenvalues --   -0.48064  -0.47759  -0.46760  -0.46457  -0.45897
 Alpha  occ. eigenvalues --   -0.45736  -0.45707  -0.45481  -0.43798  -0.43738
 Alpha virt. eigenvalues --    0.21926   0.23054   0.23768   0.24591   0.25768
 Alpha virt. eigenvalues --    0.26719   0.27000   0.27607   0.28020   0.29244
 Alpha virt. eigenvalues --    0.30268   0.31586   0.31731   0.31888   0.32100

 Mulliken charges:
               1
     1  C   -0.298263
     2  C   -0.299672
     3  C   -0.475717
     4  H    0.149801
     5  H    0.149579
     6  H    0.151949
     7  H    0.151794
     8  H    0.155211
     9  H    0.155252
    10  H    0.160290
    11  C   -0.298264
    12  C   -0.299612
    13  C   -0.479581
    14  H    0.149571
    15  H    0.148940
    16  H    0.151972
    17  H    0.151842
    18  H    0.158992
    19  H    0.155743
    20  H    0.160470
    21  C   -0.298470
    22  C   -0.299581
    23  C   -0.475693
    24  H    0.149620
    25  H    0.149941
    26  H    0.151852
    27  H    0.151789
    28  H    0.155173
    29  H    0.155077
    30  H    0.160126
    31  C   -0.297765
    32  C   -0.306271
    33  C   -0.475500
    34  H    0.149276
    35  H    0.149033
    36  H    0.152155
    37  H    0.159174
    38  H    0.154481
    39  H    0.155039
    40  H    0.160248
 Sum of Mulliken charges =  -0.00000

 Dipole moment (field-independent basis, Debye):
    X=              0.0178    Y=             -0.0082    Z=              0.0177  Tot=              0.0264
 Quadrupole moment (field-independent basis, Debye-Ang):
   XX=            -85.4466   YY=            -85.5812   ZZ=            -83.8528
   XY=             -0.2255   XZ=             -0.2400   YZ=             -0.2109

 Normal termination of Gaussian 16 at Thu May  6 02:15:10 2021.
