 Gaussian 16, Revision A.03,
 Gaussian 16:  EM64L-G16RevA.03 25-Dec-2016

 -------------
 #p 6-31g* mp2
 -------------

 ------------------------------------------------------
 Input file generated by CHIRIPA (05-May-2021 14:57:21)
 ------------------------------------------------------
 Symbolic Z-matrix:
 Charge =  0 Multiplicity = 1

                         Standard orientation:
 ---------------------------------------------------------------------
 Center     Atomic      Atomic             Coordinates (Angstroms)
 Number     Number       Type             X           Y           Z
 ---------------------------------------------------------------------
      1          6           0        5.452496   -1.430905    1.069806
      2          6           0        5.716815   -0.057430    1.084740
      3          6           0        4.828836    0.843017    0.488723
      4          6           0        3.680985    0.333126   -0.116041
      5          6           0        3.389759   -1.029773   -0.147381
      6          6           0        4.291858   -1.911845    0.454877
      7          1           0        6.147783   -2.123257    1.535231
      8          1           0        6.617393    0.318915    1.561571
      9          1           0        5.008864    1.911193    0.485760
     10          1           0        2.483713   -1.374996   -0.630414
     11          1           0        4.084006   -2.977993    0.441757
     12          7           0        2.733448    1.276663   -0.750321
     13          8           0        1.729202    0.802173   -1.276615
     14          8           0        3.012957    2.472831   -0.709166
     15          6           0       -5.967421    0.733317    1.010537
     16          6           0       -4.813198    1.522986    0.983824
     17          6           0       -3.627267    1.028578    0.432757
     18          6           0       -3.631205   -0.265686   -0.085079
     19          6           0       -4.764834   -1.076877   -0.073123
     20          6           0       -5.939604   -0.561810    0.482908
     21          1           0       -6.884345    1.125409    1.440547
     22          1           0       -4.831873    2.529160    1.392861
     23          1           0       -2.719277    1.618363    0.399143
     24          1           0       -4.715371   -2.076082   -0.488525
     25          1           0       -6.834477   -1.177336    0.502297
     26          7           0       -2.381620   -0.800028   -0.671096
     27          8           0       -2.411133   -1.943483   -1.120848
     28          8           0       -1.396344   -0.065273   -0.669569
 ---------------------------------------------------------------------

 SCF Done:  E(RHF) =  -868.336446493     A.U. after   16 cycles
 E2 =    -0.2599758988D+01 EUMP2 =    -0.87093620548143D+03

 The electronic state is 1-A.
 Alpha  occ. eigenvalues --  -20.60151 -20.60050 -20.59772 -20.59630 -15.85142
 Alpha  occ. eigenvalues --  -15.84740 -11.30686 -11.30331 -11.27310 -11.27236
 Alpha  occ. eigenvalues --  -11.27075 -11.26989 -11.26847 -11.26765 -11.26360
 Alpha  occ. eigenvalues --  -11.26317 -11.26052 -11.25976  -1.59188  -1.58786
 Alpha  occ. eigenvalues --   -1.38729  -1.38321  -1.18884  -1.18540  -1.08252
 Alpha  occ. eigenvalues --   -1.07906  -1.04309  -1.03970  -0.95053  -0.94691
 Alpha  occ. eigenvalues --   -0.85700  -0.85359  -0.81880  -0.81501  -0.76895
 Alpha  occ. eigenvalues --   -0.76509  -0.71413  -0.70868  -0.70527  -0.70118
 Alpha  occ. eigenvalues --   -0.69987  -0.69647  -0.64528  -0.64317  -0.64180
 Alpha  occ. eigenvalues --   -0.63981  -0.61648  -0.61298  -0.54817  -0.54491
 Alpha  occ. eigenvalues --   -0.52637  -0.52402  -0.52303  -0.52061  -0.48169
 Alpha  occ. eigenvalues --   -0.48114  -0.47756  -0.47682  -0.44098  -0.43660
 Alpha  occ. eigenvalues --   -0.36885  -0.36557  -0.35923  -0.35588
 Alpha virt. eigenvalues --    0.05635   0.06008   0.11728   0.12062   0.17091
 Alpha virt. eigenvalues --    0.17440   0.21845   0.22165   0.27749   0.28070
 Alpha virt. eigenvalues --    0.28767   0.29120   0.31382   0.31686   0.33054

 Mulliken charges:
               1
     1  C   -0.171787
     2  C   -0.219171
     3  C   -0.172162
     4  C    0.157253
     5  C   -0.171985
     6  C   -0.219593
     7  H    0.222511
     8  H    0.220040
     9  H    0.273027
    10  H    0.286582
    11  H    0.222798
    12  N    0.486388
    13  O   -0.444057
    14  O   -0.469847
    15  C   -0.171462
    16  C   -0.218905
    17  C   -0.171632
    18  C    0.157874
    19  C   -0.171683
    20  C   -0.218784
    21  H    0.223887
    22  H    0.223132
    23  H    0.280814
    24  H    0.273865
    25  H    0.221416
    26  N    0.487216
    27  O   -0.468033
    28  O   -0.447700
 Sum of Mulliken charges =  -0.00000

 Dipole moment (field-independent basis, Debye):
    X=             -1.1802    Y=             -1.4190    Z=              4.1637  Tot=              4.5544
 Quadrupole moment (field-independent basis, Debye-Ang):
   XX=            -49.0840   YY=           -102.3459   ZZ=           -106.7950
   XY=            -12.7324   XZ=              1.8988   YZ=              2.6269

 Normal termination of Gaussian 16 at Thu May  6 09:37:30 2021.
