 Gaussian 16, Revision A.03,
 Gaussian 16:  EM64L-G16RevA.03 25-Dec-2016

 -------------
 #p 6-31g* mp2
 -------------

 ------------------------------------------------------
 Input file generated by CHIRIPA (05-May-2021 14:55:19)
 ------------------------------------------------------
 Symbolic Z-matrix:
 Charge =  0 Multiplicity = 1

                         Standard orientation:
 ---------------------------------------------------------------------
 Center     Atomic      Atomic             Coordinates (Angstroms)
 Number     Number       Type             X           Y           Z
 ---------------------------------------------------------------------
      1          6           0       -0.829799   -1.767717   -0.790167
      2          6           0       -2.088418   -2.248020   -0.413724
      3          6           0       -3.104832   -1.362269   -0.043727
      4          6           0       -2.826765    0.003618   -0.061615
      5          6           0       -1.583053    0.512966   -0.431799
      6          6           0       -0.581571   -0.391184   -0.797989
      7          1           0       -0.046024   -2.462936   -1.076110
      8          1           0       -2.284039   -3.316537   -0.406716
      9          1           0       -4.088284   -1.706918    0.252004
     10          1           0       -1.418018    1.583560   -0.428948
     11          1           0        0.394938   -0.015326   -1.089888
     12          7           0       -3.894893    0.951062    0.328069
     13          8           0       -3.624614    2.149814    0.304003
     14          8           0       -4.982145    0.476976    0.650190
     15          6           0        3.449377    0.810863   -0.287539
     16          6           0        3.345006    2.130476    0.477781
     17          6           0        3.459751    3.352950   -0.433364
     18          1           0        4.407084    0.780784   -0.824975
     19          1           0        2.660772    0.774959   -1.051874
     20          1           0        4.132712    2.163277    1.241365
     21          1           0        2.387520    2.157335    1.013612
     22          1           0        2.665606    3.347640   -1.186959
     23          1           0        4.420714    3.353617   -0.957913
     24          1           0        3.382486    4.285465    0.134357
     25          6           0        3.336478   -0.420382    0.609690
     26          6           0        3.440849   -1.739994   -0.155631
     27          6           0        3.326104   -2.962468    0.755514
     28          1           0        4.125084   -0.384477    1.374024
     29          1           0        2.378772   -0.390302    1.147125
     30          1           0        4.398335   -1.766852   -0.691462
     31          1           0        2.653144   -1.772796   -0.919215
     32          1           0        2.365142   -2.963135    1.280063
     33          1           0        4.120249   -2.957158    1.509111
     34          1           0        3.403369   -3.894982    0.187794
 ---------------------------------------------------------------------

 SCF Done:  E(RHF) =  -669.535394380     A.U. after   15 cycles
 E2 =    -0.2092601932D+01 EUMP2 =    -0.67162799631204D+03

 The electronic state is 1-A.
 Alpha  occ. eigenvalues --  -20.60770 -20.60765 -15.85823 -11.31196 -11.27766
 Alpha  occ. eigenvalues --  -11.27762 -11.27497 -11.26776 -11.26750 -11.22709
 Alpha  occ. eigenvalues --  -11.22403 -11.22319 -11.22283 -11.22019 -11.21670
 Alpha  occ. eigenvalues --   -1.59845  -1.39399  -1.19368  -1.09379  -1.08757
 Alpha  occ. eigenvalues --   -1.04772  -1.04405  -0.96837  -0.95594  -0.87847
 Alpha  occ. eigenvalues --   -0.86172  -0.82427  -0.80470  -0.79180  -0.77477
 Alpha  occ. eigenvalues --   -0.72042  -0.71169  -0.70481  -0.66187  -0.65018
 Alpha  occ. eigenvalues --   -0.64656  -0.62102  -0.61816  -0.60205  -0.58440
 Alpha  occ. eigenvalues --   -0.56177  -0.55220  -0.53506  -0.53257  -0.53097
 Alpha  occ. eigenvalues --   -0.52841  -0.50787  -0.48805  -0.48797  -0.48768
 Alpha  occ. eigenvalues --   -0.47525  -0.46700  -0.46633  -0.44803  -0.44668
 Alpha  occ. eigenvalues --   -0.37342  -0.36372
 Alpha virt. eigenvalues --    0.05051   0.11196   0.16498   0.18156   0.22333
 Alpha virt. eigenvalues --    0.23537   0.24959   0.26280   0.26483   0.28041
 Alpha virt. eigenvalues --    0.29365   0.30800   0.30966   0.31187   0.32113

 Mulliken charges:
               1
     1  C   -0.175957
     2  C   -0.218624
     3  C   -0.170898
     4  C    0.158815
     5  C   -0.173923
     6  C   -0.225608
     7  H    0.229113
     8  H    0.223682
     9  H    0.275651
    10  H    0.275815
    11  H    0.234535
    12  N    0.488073
    13  O   -0.460389
    14  O   -0.460427
    15  C   -0.302128
    16  C   -0.301359
    17  C   -0.475806
    18  H    0.154511
    19  H    0.140710
    20  H    0.155883
    21  H    0.152943
    22  H    0.152923
    23  H    0.156903
    24  H    0.164830
    25  C   -0.302576
    26  C   -0.300145
    27  C   -0.478177
    28  H    0.155019
    29  H    0.153056
    30  H    0.156785
    31  H    0.139978
    32  H    0.155880
    33  H    0.160483
    34  H    0.160427
 Sum of Mulliken charges =  -0.00000

 Dipole moment (field-independent basis, Debye):
    X=              3.9710    Y=             -3.2897    Z=             -1.2461  Tot=              5.3051
 Quadrupole moment (field-independent basis, Debye-Ang):
   XX=           -112.4832   YY=            -92.6668   ZZ=            -95.5597
   XY=             12.3916   XZ=              3.6471   YZ=             -0.0115

 Normal termination of Gaussian 16 at Wed May  5 22:06:47 2021.
