 Gaussian 16, Revision A.03,
 Gaussian 16:  EM64L-G16RevA.03 25-Dec-2016

 -------------
 #p 6-31g* mp2
 -------------

 ------------------------------------------------------
 Input file generated by CHIRIPA (05-May-2021 14:53:18)
 ------------------------------------------------------
 Symbolic Z-matrix:
 Charge =  0 Multiplicity = 1

                         Standard orientation:
 ---------------------------------------------------------------------
 Center     Atomic      Atomic             Coordinates (Angstroms)
 Number     Number       Type             X           Y           Z
 ---------------------------------------------------------------------
      1          6           0       -5.449372   -0.149361   -0.464964
      2          6           0       -6.330044    0.688280    0.462807
      3          6           0       -7.785997    0.749330   -0.000083
      4          1           0       -5.495703    0.268412   -1.479984
      5          1           0       -5.858371   -1.167334   -0.526974
      6          1           0       -5.918718    1.703989    0.524139
      7          1           0       -6.281460    0.268579    1.475776
      8          1           0       -8.218813   -0.255343   -0.043711
      9          1           0       -7.854011    1.188223   -1.000756
     10          1           0       -8.397703    1.353126    0.677491
     11          6           0       -3.991054   -0.219874   -0.015448
     12          6           0       -3.110383   -1.057515   -0.943220
     13          6           0       -1.654429   -1.118565   -0.480330
     14          1           0       -3.582056    0.798099    0.046562
     15          1           0       -3.944723   -0.637647    0.999571
     16          1           0       -3.158967   -0.637813   -1.956189
     17          1           0       -3.521708   -2.073224   -1.004551
     18          1           0       -1.586416   -1.557458    0.520344
     19          1           0       -1.221613   -0.113892   -0.436701
     20          1           0       -1.042724   -1.722361   -1.157904
     21          6           0        1.362569    0.053425    1.163161
     22          6           0        2.165448   -1.091955    1.159683
     23          6           0        3.455314   -1.053239    0.621820
     24          6           0        3.912448    0.153011    0.093353
     25          6           0        3.136573    1.311107    0.082199
     26          6           0        1.849836    1.249191    0.625356
     27          1           0        0.361785    0.014338    1.583041
     28          1           0        1.789652   -2.021979    1.576668
     29          1           0        4.098099   -1.925020    0.606227
     30          1           0        3.538805    2.223701   -0.340648
     31          1           0        1.228534    2.140274    0.626705
     32          7           0        5.276316    0.206278   -0.478860
     33          8           0        5.655734    1.281228   -0.938382
     34          8           0        5.940072   -0.827931   -0.457004
 ---------------------------------------------------------------------

 SCF Done:  E(RHF) =  -669.535105004     A.U. after   15 cycles
 E2 =    -0.2091562322D+01 EUMP2 =    -0.67162666732545D+03

 The electronic state is 1-A.
 Alpha  occ. eigenvalues --  -20.60712 -20.60707 -15.85767 -11.31110 -11.27703
 Alpha  occ. eigenvalues --  -11.27696 -11.27383 -11.26692 -11.26674 -11.22351
 Alpha  occ. eigenvalues --  -11.22137 -11.22126 -11.22048 -11.21958 -11.21503
 Alpha  occ. eigenvalues --   -1.59789  -1.39343  -1.19293  -1.09102  -1.08684
 Alpha  occ. eigenvalues --   -1.04697  -1.04205  -0.96681  -0.95516  -0.87698
 Alpha  occ. eigenvalues --   -0.86092  -0.82360  -0.80281  -0.78905  -0.77409
 Alpha  occ. eigenvalues --   -0.71985  -0.71113  -0.70397  -0.65728  -0.64943
 Alpha  occ. eigenvalues --   -0.64702  -0.62050  -0.61598  -0.60032  -0.58298
 Alpha  occ. eigenvalues --   -0.55981  -0.55230  -0.53418  -0.53162  -0.52826
 Alpha  occ. eigenvalues --   -0.52788  -0.50621  -0.48749  -0.48740  -0.48568
 Alpha  occ. eigenvalues --   -0.47305  -0.46447  -0.46360  -0.44753  -0.44446
 Alpha  occ. eigenvalues --   -0.37210  -0.36308
 Alpha virt. eigenvalues --    0.05120   0.11280   0.16585   0.20594   0.22379
 Alpha virt. eigenvalues --    0.23846   0.25671   0.26370   0.27001   0.27249
 Alpha virt. eigenvalues --    0.29479   0.30303   0.31040   0.31274   0.32122

 Mulliken charges:
               1
     1  C   -0.298595
     2  C   -0.299968
     3  C   -0.476055
     4  H    0.151308
     5  H    0.151055
     6  H    0.151557
     7  H    0.151772
     8  H    0.156045
     9  H    0.156127
    10  H    0.161394
    11  C   -0.298574
    12  C   -0.300569
    13  C   -0.477097
    14  H    0.146918
    15  H    0.147912
    16  H    0.155419
    17  H    0.154354
    18  H    0.146624
    19  H    0.152546
    20  H    0.166730
    21  C   -0.165271
    22  C   -0.220566
    23  C   -0.170947
    24  C    0.157970
    25  C   -0.170543
    26  C   -0.221485
    27  H    0.228931
    28  H    0.223127
    29  H    0.275313
    30  H    0.275272
    31  H    0.222668
    32  N    0.488152
    33  O   -0.460785
    34  O   -0.460739
 Sum of Mulliken charges =  -0.00000

 Dipole moment (field-independent basis, Debye):
    X=             -4.9728    Y=             -0.2218    Z=              1.9512  Tot=              5.3466
 Quadrupole moment (field-independent basis, Debye-Ang):
   XX=           -133.7114   YY=            -89.5017   ZZ=            -94.6218
   XY=             -1.8770   XZ=              7.5125   YZ=             -1.3240

 Normal termination of Gaussian 16 at Wed May  5 22:04:22 2021.
