 Gaussian 16, Revision A.03,
 Gaussian 16:  EM64L-G16RevA.03 25-Dec-2016

 -------------
 #p 6-31g* mp2
 -------------

 ------------------------------------------------------
 Input file generated by CHIRIPA (05-May-2021 14:55:25)
 ------------------------------------------------------
 Symbolic Z-matrix:
 Charge =  0 Multiplicity = 1

                         Standard orientation:
 ---------------------------------------------------------------------
 Center     Atomic      Atomic             Coordinates (Angstroms)
 Number     Number       Type             X           Y           Z
 ---------------------------------------------------------------------
      1          6           0        1.282507    1.807104    1.261271
      2          6           0        1.893926    1.981332    0.015344
      3          6           0        2.608946    0.936159   -0.577030
      4          6           0        2.692720   -0.275311    0.107522
      5          6           0        2.094578   -0.479817    1.349976
      6          6           0        1.384605    0.579250    1.923443
      7          1           0        0.729023    2.624416    1.714097
      8          1           0        1.816296    2.933802   -0.501202
      9          1           0        3.092017    1.043761   -1.540608
     10          1           0        2.189454   -1.440855    1.840713
     11          1           0        0.910789    0.441082    2.891148
     12          7           0        3.447008   -1.389144   -0.509590
     13          8           0        3.506047   -2.446683    0.113917
     14          8           0        3.964899   -1.183535   -1.605105
     15          6           0       -3.486609   -0.584746   -0.493127
     16          6           0       -4.406037   -1.301251    0.496448
     17          6           0       -4.795509   -2.704864    0.031714
     18          1           0       -3.986025   -0.523776   -1.469760
     19          1           0       -2.579942   -1.187205   -0.642768
     20          1           0       -5.310082   -0.696950    0.645237
     21          1           0       -3.904453   -1.360354    1.470889
     22          1           0       -3.905120   -3.328415   -0.098636
     23          1           0       -5.318736   -2.661242   -0.928979
     24          1           0       -5.452907   -3.198903    0.753943
     25          6           0       -3.088507    0.819596   -0.042499
     26          6           0       -2.169078    1.536101   -1.032074
     27          6           0       -1.779607    2.939714   -0.567341
     28          1           0       -3.995174    1.422054    0.107142
     29          1           0       -2.589092    0.758625    0.934133
     30          1           0       -2.670663    1.595203   -2.006516
     31          1           0       -1.265033    0.931800   -1.180864
     32          1           0       -1.256380    2.896092    0.393353
     33          1           0       -2.669996    3.563264   -0.436991
     34          1           0       -1.122210    3.433753   -1.289569
 ---------------------------------------------------------------------

 SCF Done:  E(RHF) =  -669.534921731     A.U. after   15 cycles
 E2 =    -0.2092846650D+01 EUMP2 =    -0.67162776838003D+03

 The electronic state is 1-A.
 Alpha  occ. eigenvalues --  -20.60815 -20.60809 -15.85869 -11.31251 -11.27827
 Alpha  occ. eigenvalues --  -11.27820 -11.27561 -11.26846 -11.26827 -11.22080
 Alpha  occ. eigenvalues --  -11.21885 -11.21866 -11.21841 -11.21674 -11.21251
 Alpha  occ. eigenvalues --   -1.59890  -1.39443  -1.19433  -1.08871  -1.08782
 Alpha  occ. eigenvalues --   -1.04835  -1.03953  -0.96438  -0.95651  -0.87455
 Alpha  occ. eigenvalues --   -0.86224  -0.82487  -0.80022  -0.78622  -0.77524
 Alpha  occ. eigenvalues --   -0.72086  -0.71215  -0.70573  -0.65469  -0.65081
 Alpha  occ. eigenvalues --   -0.64827  -0.62183  -0.61364  -0.59809  -0.58036
 Alpha  occ. eigenvalues --   -0.55891  -0.55231  -0.53183  -0.53103  -0.52912
 Alpha  occ. eigenvalues --   -0.52808  -0.50352  -0.48847  -0.48840  -0.48331
 Alpha  occ. eigenvalues --   -0.47034  -0.46176  -0.46071  -0.44845  -0.44205
 Alpha  occ. eigenvalues --   -0.37362  -0.36430
 Alpha virt. eigenvalues --    0.04975   0.11157   0.16365   0.20385   0.22720
 Alpha virt. eigenvalues --    0.24135   0.25793   0.26337   0.26669   0.27714
 Alpha virt. eigenvalues --    0.28926   0.29720   0.31351   0.31688   0.32285

 Mulliken charges:
               1
     1  C   -0.169704
     2  C   -0.215942
     3  C   -0.172234
     4  C    0.158464
     5  C   -0.171097
     6  C   -0.220397
     7  H    0.226909
     8  H    0.225216
     9  H    0.275977
    10  H    0.275773
    11  H    0.223673
    12  N    0.488077
    13  O   -0.460368
    14  O   -0.460169
    15  C   -0.299256
    16  C   -0.299512
    17  C   -0.476171
    18  H    0.151079
    19  H    0.152303
    20  H    0.151778
    21  H    0.149926
    22  H    0.157102
    23  H    0.156101
    24  H    0.160658
    25  C   -0.297429
    26  C   -0.301038
    27  C   -0.475121
    28  H    0.149524
    29  H    0.145201
    30  H    0.154156
    31  H    0.157498
    32  H    0.145552
    33  H    0.157189
    34  H    0.156282
 Sum of Mulliken charges =  -0.00000

 Dipole moment (field-independent basis, Debye):
    X=             -2.6727    Y=              3.8532    Z=              2.1214  Tot=              5.1469
 Quadrupole moment (field-independent basis, Debye-Ang):
   XX=           -108.9739   YY=            -96.7727   ZZ=            -91.2623
   XY=             11.6278   XZ=              5.1163   YZ=             -3.1873

 Normal termination of Gaussian 16 at Wed May  5 17:41:39 2021.
