 Gaussian 16, Revision A.03,
 Gaussian 16:  EM64L-G16RevA.03 25-Dec-2016

 -------------
 #p 6-31g* mp2
 -------------

 ------------------------------------------------------
 Input file generated by CHIRIPA (05-May-2021 14:57:21)
 ------------------------------------------------------
 Symbolic Z-matrix:
 Charge =  0 Multiplicity = 1

                         Standard orientation:
 ---------------------------------------------------------------------
 Center     Atomic      Atomic             Coordinates (Angstroms)
 Number     Number       Type             X           Y           Z
 ---------------------------------------------------------------------
      1          6           0        4.166518   -1.756847    0.369108
      2          6           0        4.364674   -0.885236   -0.706787
      3          6           0        3.626799    0.297981   -0.807206
      4          6           0        2.694886    0.579541    0.190567
      5          6           0        2.474590   -0.268674    1.274676
      6          6           0        3.223771   -1.446332    1.354668
      7          1           0        4.744109   -2.673840    0.439183
      8          1           0        5.096143   -1.123814   -1.473650
      9          1           0        3.760027    0.990570   -1.629392
     10          1           0        1.738244   -0.003740    2.023690
     11          1           0        3.067765   -2.121368    2.191347
     12          7           0        1.907747    1.829218    0.095070
     13          8           0        1.092794    2.054387    0.987140
     14          8           0        2.120644    2.559882   -0.870042
     15          6           0       -5.017439    0.671825    0.475292
     16          6           0       -4.892054   -0.720307    0.422674
     17          6           0       -3.681829   -1.310471    0.046362
     18          6           0       -2.612623   -0.474645   -0.272201
     19          6           0       -2.706281    0.915563   -0.229310
     20          6           0       -3.926077    1.483884    0.149706
     21          1           0       -5.961290    1.121795    0.768670
     22          1           0       -5.737943   -1.353437    0.674990
     23          1           0       -3.557170   -2.385395   -0.002784
     24          1           0       -1.845373    1.520629   -0.486508
     25          1           0       -4.020562    2.565328    0.189688
     26          7           0       -1.326345   -1.087864   -0.672016
     27          8           0       -0.399302   -0.329491   -0.947878
     28          8           0       -1.269559   -2.315266   -0.701959
 ---------------------------------------------------------------------

 SCF Done:  E(RHF) =  -868.340289494     A.U. after   16 cycles
 E2 =    -0.2600471302D+01 EUMP2 =    -0.87094076079595D+03

 The electronic state is 1-A.
 Alpha  occ. eigenvalues --  -20.60634 -20.60625 -20.59941 -20.59907 -15.85671
 Alpha  occ. eigenvalues --  -15.84956 -11.30763 -11.30029 -11.27403 -11.27184
 Alpha  occ. eigenvalues --  -11.27087 -11.26622 -11.26614 -11.26386 -11.26366
 Alpha  occ. eigenvalues --  -11.26227 -11.25647 -11.25637  -1.59700  -1.58965
 Alpha  occ. eigenvalues --   -1.39261  -1.38543  -1.18938  -1.18195  -1.08399
 Alpha  occ. eigenvalues --   -1.07662  -1.04292  -1.03617  -0.95268  -0.94557
 Alpha  occ. eigenvalues --   -0.85709  -0.85040  -0.82117  -0.81435  -0.77174
 Alpha  occ. eigenvalues --   -0.76490  -0.72019  -0.71236  -0.71038  -0.70100
 Alpha  occ. eigenvalues --   -0.70010  -0.69408  -0.64596  -0.64300  -0.63913
 Alpha  occ. eigenvalues --   -0.63688  -0.61617  -0.61012  -0.54845  -0.54190
 Alpha  occ. eigenvalues --   -0.52661  -0.52383  -0.51894  -0.51766  -0.48656
 Alpha  occ. eigenvalues --   -0.48617  -0.47979  -0.47957  -0.44808  -0.43943
 Alpha  occ. eigenvalues --   -0.36951  -0.36107  -0.35879  -0.35175
 Alpha virt. eigenvalues --    0.05321   0.06096   0.11768   0.12477   0.16850
 Alpha virt. eigenvalues --    0.17618   0.21905   0.22388   0.27855   0.28260
 Alpha virt. eigenvalues --    0.28767   0.29282   0.31383   0.31881   0.33121

 Mulliken charges:
               1
     1  C   -0.169153
     2  C   -0.217856
     3  C   -0.168122
     4  C    0.175681
     5  C   -0.164829
     6  C   -0.216343
     7  H    0.221776
     8  H    0.219418
     9  H    0.272086
    10  H    0.269112
    11  H    0.219198
    12  N    0.495068
    13  O   -0.471679
    14  O   -0.464400
    15  C   -0.170311
    16  C   -0.219719
    17  C   -0.171827
    18  C    0.154280
    19  C   -0.168775
    20  C   -0.220287
    21  H    0.224508
    22  H    0.221106
    23  H    0.272412
    24  H    0.290131
    25  H    0.226638
    26  N    0.491000
    27  O   -0.465196
    28  O   -0.463919
 Sum of Mulliken charges =  -0.00000

 Dipole moment (field-independent basis, Debye):
    X=             -1.8371    Y=             -2.1390    Z=              1.6414  Tot=              3.2626
 Quadrupole moment (field-independent basis, Debye-Ang):
   XX=            -66.2848   YY=           -108.7026   ZZ=           -103.0957
   XY=            -11.8513   XZ=             -3.8928   YZ=             -3.7564

 Normal termination of Gaussian 16 at Thu May  6 16:07:25 2021.
