 Gaussian 16, Revision A.03,
 Gaussian 16:  EM64L-G16RevA.03 25-Dec-2016

 -------------
 #p 6-31g* mp2
 -------------

 ------------------------------------------------------
 Input file generated by CHIRIPA (05-May-2021 14:57:22)
 ------------------------------------------------------
 Symbolic Z-matrix:
 Charge =  0 Multiplicity = 1

                         Standard orientation:
 ---------------------------------------------------------------------
 Center     Atomic      Atomic             Coordinates (Angstroms)
 Number     Number       Type             X           Y           Z
 ---------------------------------------------------------------------
      1          6           0       -2.954626   -2.274040   -0.986956
      2          6           0       -4.221496   -1.844336   -0.578403
      3          6           0       -4.415046   -0.536801   -0.122949
      4          6           0       -3.314649    0.318342   -0.089055
      5          6           0       -2.040162   -0.080077   -0.489346
      6          6           0       -1.869915   -1.392094   -0.941205
      7          1           0       -2.813323   -3.291506   -1.339367
      8          1           0       -5.065717   -2.527087   -0.612853
      9          1           0       -5.384984   -0.177927    0.199304
     10          1           0       -1.217771    0.623486   -0.443613
     11          1           0       -0.884912   -1.723061   -1.257867
     12          7           0       -3.507217    1.704944    0.391210
     13          8           0       -2.521581    2.438939    0.411454
     14          8           0       -4.640140    2.031511    0.738305
     15          6           0        4.795104    1.641742   -0.871463
     16          6           0        5.291191    0.368875   -0.571084
     17          6           0        4.462381   -0.598407    0.005101
     18          6           0        3.136719   -0.257214    0.268720
     19          6           0        2.612978    1.002231   -0.019004
     20          6           0        3.459934    1.953806   -0.594952
     21          1           0        5.445991    2.387049   -1.318965
     22          1           0        6.327677    0.123720   -0.784727
     23          1           0        4.820428   -1.591533    0.247838
     24          1           0        1.575276    1.217108    0.205541
     25          1           0        3.071939    2.941523   -0.827162
     26          7           0        2.249689   -1.272918    0.878576
     27          8           0        1.085564   -0.947417    1.101053
     28          8           0        2.735359   -2.375296    1.122557
 ---------------------------------------------------------------------

 SCF Done:  E(RHF) =  -868.339343205     A.U. after   16 cycles
 E2 =    -0.2599662525D+01 EUMP2 =    -0.87093900573014D+03

 The electronic state is 1-A.
 Alpha  occ. eigenvalues --  -20.61449 -20.61423 -20.60317 -20.60297 -15.86456
 Alpha  occ. eigenvalues --  -15.85353 -11.31618 -11.30459 -11.28152 -11.28148
 Alpha  occ. eigenvalues --  -11.27828 -11.27119 -11.27076 -11.27022 -11.26975
 Alpha  occ. eigenvalues --  -11.26681 -11.26017 -11.25873  -1.60507  -1.59382
 Alpha  occ. eigenvalues --   -1.40067  -1.38947  -1.19763  -1.18600  -1.09194
 Alpha  occ. eigenvalues --   -1.08048  -1.05124  -1.03954  -0.96064  -0.94931
 Alpha  occ. eigenvalues --   -0.86535  -0.85383  -0.82900  -0.81766  -0.77986
 Alpha  occ. eigenvalues --   -0.76845  -0.72677  -0.71827  -0.71587  -0.70860
 Alpha  occ. eigenvalues --   -0.70691  -0.69735  -0.65410  -0.65113  -0.64256
 Alpha  occ. eigenvalues --   -0.63972  -0.62476  -0.61317  -0.55623  -0.54499
 Alpha  occ. eigenvalues --   -0.53475  -0.53204  -0.52294  -0.52064  -0.49450
 Alpha  occ. eigenvalues --   -0.49411  -0.48352  -0.48311  -0.45505  -0.44409
 Alpha  occ. eigenvalues --   -0.37730  -0.36719  -0.36574  -0.35496
 Alpha virt. eigenvalues --    0.04487   0.05685   0.10913   0.12123   0.16029
 Alpha virt. eigenvalues --    0.17253   0.20183   0.22200   0.25163   0.27442
 Alpha virt. eigenvalues --    0.28444   0.29301   0.30940   0.31227   0.32106

 Mulliken charges:
               1
     1  C   -0.171382
     2  C   -0.218793
     3  C   -0.171933
     4  C    0.156678
     5  C   -0.162889
     6  C   -0.208614
     7  H    0.224556
     8  H    0.220750
     9  H    0.272695
    10  H    0.270674
    11  H    0.225026
    12  N    0.488665
    13  O   -0.466592
    14  O   -0.461677
    15  C   -0.170097
    16  C   -0.218503
    17  C   -0.170859
    18  C    0.156250
    19  C   -0.176168
    20  C   -0.219446
    21  H    0.227897
    22  H    0.224768
    23  H    0.275638
    24  H    0.280358
    25  H    0.229072
    26  N    0.487650
    27  O   -0.465806
    28  O   -0.457919
 Sum of Mulliken charges =  -0.00000

 Dipole moment (field-independent basis, Debye):
    X=              4.1601    Y=             -1.3579    Z=             -3.8334  Tot=              5.8176
 Quadrupole moment (field-independent basis, Debye-Ang):
   XX=            -82.3985   YY=           -108.3193   ZZ=           -107.2578
   XY=             25.8434   XZ=             -1.4160   YZ=              1.0966

 Normal termination of Gaussian 16 at Thu May  6 17:52:59 2021.
