 Gaussian 16, Revision A.03,
 Gaussian 16:  EM64L-G16RevA.03 25-Dec-2016

 -------------
 #p 6-31g* mp2
 -------------

 ------------------------------------------------------
 Input file generated by CHIRIPA (05-May-2021 14:53:15)
 ------------------------------------------------------
 Symbolic Z-matrix:
 Charge =  0 Multiplicity = 1

                         Standard orientation:
 ---------------------------------------------------------------------
 Center     Atomic      Atomic             Coordinates (Angstroms)
 Number     Number       Type             X           Y           Z
 ---------------------------------------------------------------------
      1          6           0        3.322868   -0.287445    0.053765
      2          6           0        4.571821   -1.064063    0.472057
      3          6           0        4.370717   -2.578902    0.420941
      4          1           0        2.486851   -0.570065    0.708094
      5          1           0        3.037689   -0.586250   -0.964460
      6          1           0        4.855365   -0.762866    1.488668
      7          1           0        5.405011   -0.779419   -0.183222
      8          1           0        4.110311   -2.898946   -0.593141
      9          1           0        3.557542   -2.882299    1.088248
     10          1           0        5.275849   -3.114498    0.723812
     11          6           0        3.508270    1.228221    0.099711
     12          6           0        2.259317    2.004838   -0.318581
     13          6           0        2.460422    3.519677   -0.267465
     14          1           0        3.793449    1.527026    1.117936
     15          1           0        4.344288    1.510840   -0.554618
     16          1           0        1.426128    1.720194    0.336697
     17          1           0        1.975773    1.703641   -1.335192
     18          1           0        3.273596    3.823074   -0.934772
     19          1           0        2.720828    3.839721    0.746617
     20          1           0        1.555289    4.055273   -0.570337
     21          6           0       -4.878024    0.502495    0.792499
     22          6           0       -3.823712    0.277003    1.683622
     23          6           0       -2.595027   -0.204886    1.222466
     24          6           0       -2.454797   -0.451598   -0.142363
     25          6           0       -3.486333   -0.236952   -1.055135
     26          6           0       -4.706272    0.245252   -0.571631
     27          1           0       -5.829099    0.876960    1.159416
     28          1           0       -3.954240    0.475895    2.743551
     29          1           0       -1.762137   -0.388292    1.890353
     30          1           0       -3.326111   -0.444560   -2.106156
     31          1           0       -5.523317    0.419445   -1.265994
     32          7           0       -1.158672   -0.961917   -0.642397
     33          8           0       -1.060545   -1.171383   -1.849515
     34          8           0       -0.265439   -1.142779    0.182261
 ---------------------------------------------------------------------

 SCF Done:  E(RHF) =  -669.536006614     A.U. after   15 cycles
 E2 =    -0.2091594389D+01 EUMP2 =    -0.67162760100269D+03

 The electronic state is 1-A.
 Alpha  occ. eigenvalues --  -20.60945 -20.60935 -15.85973 -11.31298 -11.27865
 Alpha  occ. eigenvalues --  -11.27856 -11.27598 -11.26871 -11.26861 -11.20623
 Alpha  occ. eigenvalues --  -11.20424 -11.20398 -11.20297 -11.19917 -11.19778
 Alpha  occ. eigenvalues --   -1.59995  -1.39555  -1.19466  -1.08869  -1.07243
 Alpha  occ. eigenvalues --   -1.04864  -1.02483  -0.95712  -0.94923  -0.86264
 Alpha  occ. eigenvalues --   -0.85944  -0.82550  -0.78547  -0.77607  -0.76969
 Alpha  occ. eigenvalues --   -0.72195  -0.71302  -0.70576  -0.65124  -0.64868
 Alpha  occ. eigenvalues --   -0.63884  -0.62213  -0.59897  -0.58313  -0.56524
 Alpha  occ. eigenvalues --   -0.55367  -0.54217  -0.53194  -0.52957  -0.51687
 Alpha  occ. eigenvalues --   -0.51339  -0.48993  -0.48952  -0.48836  -0.46863
 Alpha  occ. eigenvalues --   -0.45603  -0.45103  -0.44488  -0.44255  -0.42679
 Alpha  occ. eigenvalues --   -0.37443  -0.36465
 Alpha virt. eigenvalues --    0.04918   0.11185   0.16394   0.21293   0.23950
 Alpha virt. eigenvalues --    0.25282   0.27189   0.27638   0.28129   0.28769
 Alpha virt. eigenvalues --    0.29106   0.30976   0.32257   0.32500   0.32628

 Mulliken charges:
               1
     1  C   -0.302160
     2  C   -0.299492
     3  C   -0.474014
     4  H    0.168752
     5  H    0.155613
     6  H    0.146048
     7  H    0.146930
     8  H    0.157413
     9  H    0.157577
    10  H    0.153777
    11  C   -0.298217
    12  C   -0.298898
    13  C   -0.474952
    14  H    0.143702
    15  H    0.145251
    16  H    0.151946
    17  H    0.155638
    18  H    0.153838
    19  H    0.151810
    20  H    0.155559
    21  C   -0.170628
    22  C   -0.218431
    23  C   -0.170846
    24  C    0.158037
    25  C   -0.170582
    26  C   -0.218525
    27  H    0.226015
    28  H    0.223790
    29  H    0.275053
    30  H    0.275852
    31  H    0.223843
    32  N    0.491991
    33  O   -0.459165
    34  O   -0.462526
 Sum of Mulliken charges =  -0.00000

 Dipole moment (field-independent basis, Debye):
    X=             -4.8806    Y=              1.6286    Z=              1.6995  Tot=              5.4186
 Quadrupole moment (field-independent basis, Debye-Ang):
   XX=            -73.4280   YY=            -99.2376   ZZ=            -90.0322
   XY=             -2.7058   XZ=             -2.3770   YZ=             -0.8725

 Normal termination of Gaussian 16 at Thu May  6 17:11:23 2021.
