 Gaussian 16, Revision A.03,
 Gaussian 16:  EM64L-G16RevA.03 25-Dec-2016

 -------------
 #p 6-31g* mp2
 -------------

 ------------------------------------------------------
 Input file generated by CHIRIPA (05-May-2021 14:53:15)
 ------------------------------------------------------
 Symbolic Z-matrix:
 Charge =  0 Multiplicity = 1

                         Standard orientation:
 ---------------------------------------------------------------------
 Center     Atomic      Atomic             Coordinates (Angstroms)
 Number     Number       Type             X           Y           Z
 ---------------------------------------------------------------------
      1          6           0       -3.777209   -0.325396   -0.403626
      2          6           0       -4.841658   -0.070914    0.664162
      3          6           0       -6.084068    0.624218    0.106484
      4          1           0       -3.489686    0.631218   -0.860971
      5          1           0       -4.211795   -0.937399   -1.206112
      6          1           0       -4.404796    0.539266    1.465066
      7          1           0       -5.126542   -1.028224    1.119151
      8          1           0       -6.546011    0.016397   -0.678222
      9          1           0       -5.820164    1.592794   -0.330341
     10          1           0       -6.832013    0.796422    0.886730
     11          6           0       -2.529122   -1.019716    0.138524
     12          6           0       -1.464672   -1.274198   -0.929264
     13          6           0       -0.222263   -1.969330   -0.371586
     14          1           0       -2.094535   -0.407714    0.941010
     15          1           0       -2.816645   -1.976331    0.595869
     16          1           0       -1.179789   -0.316888   -1.384253
     17          1           0       -1.901535   -1.884379   -1.730168
     18          1           0       -0.486166   -2.937906    0.065240
     19          1           0        0.239680   -1.361510    0.413120
     20          1           0        0.525683   -2.141535   -1.151831
     21          6           0        3.983885   -1.476645    0.317464
     22          6           0        3.280213   -1.009750    1.432531
     23          6           0        2.434948    0.098696    1.325645
     24          6           0        2.316416    0.718988    0.082875
     25          6           0        3.004201    0.277569   -1.046457
     26          6           0        3.843879   -0.832631   -0.916296
     27          1           0        4.638338   -2.338394    0.409537
     28          1           0        3.387004   -1.507924    2.391939
     29          1           0        1.878450    0.481116    2.172689
     30          1           0        2.877318    0.794986   -1.989643
     31          1           0        4.389130   -1.193031   -1.783971
     32          7           0        1.424529    1.893378   -0.042601
     33          8           0        1.337348    2.422288   -1.148626
     34          8           0        0.829536    2.262720    0.967453
 ---------------------------------------------------------------------

 SCF Done:  E(RHF) =  -669.534601806     A.U. after   15 cycles
 E2 =    -0.2093897364D+01 EUMP2 =    -0.67162849917016D+03

 The electronic state is 1-A.
 Alpha  occ. eigenvalues --  -20.60871 -20.60866 -15.85917 -11.31217 -11.27822
 Alpha  occ. eigenvalues --  -11.27789 -11.27571 -11.26846 -11.26825 -11.21252
 Alpha  occ. eigenvalues --  -11.21136 -11.20965 -11.20866 -11.20800 -11.20629
 Alpha  occ. eigenvalues --   -1.59944  -1.39499  -1.19433  -1.08827  -1.08002
 Alpha  occ. eigenvalues --   -1.04837  -1.03153  -0.95691  -0.95587  -0.86634
 Alpha  occ. eigenvalues --   -0.86230  -0.82501  -0.79217  -0.77809  -0.77551
 Alpha  occ. eigenvalues --   -0.72137  -0.71279  -0.70542  -0.65085  -0.64834
 Alpha  occ. eigenvalues --   -0.64626  -0.62181  -0.60583  -0.58990  -0.57227
 Alpha  occ. eigenvalues --   -0.55336  -0.55107  -0.53215  -0.52923  -0.52198
 Alpha  occ. eigenvalues --   -0.51982  -0.49463  -0.48897  -0.48891  -0.47542
 Alpha  occ. eigenvalues --   -0.46232  -0.45358  -0.45278  -0.44875  -0.43385
 Alpha  occ. eigenvalues --   -0.37361  -0.36369
 Alpha virt. eigenvalues --    0.04961   0.11150   0.16463   0.21344   0.23173
 Alpha virt. eigenvalues --    0.24546   0.26948   0.27270   0.27974   0.28289
 Alpha virt. eigenvalues --    0.28368   0.30866   0.31763   0.31970   0.32208

 Mulliken charges:
               1
     1  C   -0.299049
     2  C   -0.299901
     3  C   -0.475830
     4  H    0.156012
     5  H    0.147039
     6  H    0.154716
     7  H    0.149086
     8  H    0.153502
     9  H    0.157610
    10  H    0.158943
    11  C   -0.298756
    12  C   -0.302258
    13  C   -0.480001
    14  H    0.153978
    15  H    0.146027
    16  H    0.156947
    17  H    0.150027
    18  H    0.150977
    19  H    0.157436
    20  H    0.156972
    21  C   -0.170062
    22  C   -0.213223
    23  C   -0.179022
    24  C    0.166124
    25  C   -0.170941
    26  C   -0.217875
    27  H    0.226123
    28  H    0.224067
    29  H    0.275474
    30  H    0.275780
    31  H    0.223833
    32  N    0.488084
    33  O   -0.460576
    34  O   -0.461264
 Sum of Mulliken charges =  -0.00000

 Dipole moment (field-independent basis, Debye):
    X=              3.2808    Y=             -4.0223    Z=              0.4537  Tot=              5.2104
 Quadrupole moment (field-independent basis, Debye-Ang):
   XX=            -81.3052   YY=           -101.1563   ZZ=            -90.0427
   XY=             -6.9940   XZ=             -0.1450   YZ=             -0.2311

 Normal termination of Gaussian 16 at Thu May  6 15:30:08 2021.
