 Gaussian 16, Revision A.03,
 Gaussian 16:  EM64L-G16RevA.03 25-Dec-2016

 -------------
 #p 6-31g* mp2
 -------------

 ------------------------------------------------------
 Input file generated by CHIRIPA (05-May-2021 14:51:11)
 ------------------------------------------------------
 Symbolic Z-matrix:
 Charge =  0 Multiplicity = 1

                         Standard orientation:
 ---------------------------------------------------------------------
 Center     Atomic      Atomic             Coordinates (Angstroms)
 Number     Number       Type             X           Y           Z
 ---------------------------------------------------------------------
      1          6           0       -3.052517    0.683741   -0.722822
      2          6           0       -2.349810    1.755577    0.111057
      3          6           0       -1.348586    2.575777   -0.702955
      4          1           0       -2.298203    0.015269   -1.159972
      5          1           0       -3.569568    1.164574   -1.564756
      6          1           0       -1.835386    1.273005    0.951954
      7          1           0       -3.105897    2.421461    0.546429
      8          1           0       -1.850822    3.083388   -1.532830
      9          1           0       -0.573092    1.928407   -1.125000
     10          1           0       -0.857828    3.336067   -0.087345
     11          6           0       -4.056503   -0.144524    0.077001
     12          6           0       -4.759210   -1.216360   -0.756878
     13          6           0       -5.760434   -2.036560    0.057135
     14          1           0       -3.539452   -0.625357    0.918936
     15          1           0       -4.810818    0.523947    0.514151
     16          1           0       -4.003124   -1.882244   -1.192249
     17          1           0       -5.273635   -0.733788   -1.597775
     18          1           0       -6.535928   -1.389190    0.479179
     19          1           0       -5.258199   -2.544171    0.887009
     20          1           0       -6.251192   -2.796850   -0.558476
     21          6           0        4.193243    0.004633    0.006297
     22          6           0        5.104649   -1.084178   -0.560989
     23          6           0        6.378398   -0.519885   -1.191016
     24          1           0        3.927337    0.706199   -0.796227
     25          1           0        4.748916    0.584029    0.756578
     26          1           0        4.546990   -1.662228   -1.308980
     27          1           0        5.368260   -1.783341    0.242937
     28          1           0        6.958798    0.040286   -0.450783
     29          1           0        6.132862    0.162088   -2.011518
     30          1           0        7.015319   -1.315421   -1.590157
     31          6           0        2.915778   -0.543850    0.639524
     32          6           0        2.004371    0.544962    1.206810
     33          6           0        0.730623   -0.019331    1.836836
     34          1           0        2.360104   -1.123246   -0.110757
     35          1           0        3.181683   -1.245415    1.442048
     36          1           0        1.740760    1.244124    0.402884
     37          1           0        2.562030    1.123012    1.954801
     38          1           0        0.976159   -0.701304    2.657339
     39          1           0        0.150222   -0.579503    1.096604
     40          1           0        0.093700    0.776204    2.235978
 ---------------------------------------------------------------------

 SCF Done:  E(RHF) =  -470.732798577     A.U. after   11 cycles
 E2 =    -0.1583416598D+01 EUMP2 =    -0.47231621517568D+03

 The electronic state is 1-A.
 Alpha  occ. eigenvalues --  -11.21628 -11.21619 -11.21581 -11.21478 -11.21433
 Alpha  occ. eigenvalues --  -11.21372 -11.21370 -11.21311 -11.21132 -11.21082
 Alpha  occ. eigenvalues --  -11.21055 -11.21052  -1.08465  -1.08386  -1.03594
 Alpha  occ. eigenvalues --   -1.03464  -0.96041  -0.95932  -0.87058  -0.86953
 Alpha  occ. eigenvalues --   -0.79692  -0.79498  -0.78275  -0.78197  -0.65191
 Alpha  occ. eigenvalues --   -0.64953  -0.61202  -0.60708  -0.59465  -0.59225
 Alpha  occ. eigenvalues --   -0.57679  -0.57502  -0.55387  -0.55136  -0.52753
 Alpha  occ. eigenvalues --   -0.52631  -0.52442  -0.52372  -0.50082  -0.49800
 Alpha  occ. eigenvalues --   -0.47966  -0.47856  -0.46796  -0.46439  -0.45823
 Alpha  occ. eigenvalues --   -0.45756  -0.45728  -0.45611  -0.43796  -0.43712
 Alpha virt. eigenvalues --    0.20333   0.23090   0.23583   0.25544   0.26131
 Alpha virt. eigenvalues --    0.26242   0.26700   0.27445   0.28434   0.29284
 Alpha virt. eigenvalues --    0.30040   0.30994   0.31744   0.32165   0.32586

 Mulliken charges:
               1
     1  C   -0.298040
     2  C   -0.307111
     3  C   -0.476687
     4  H    0.148618
     5  H    0.149239
     6  H    0.161420
     7  H    0.151075
     8  H    0.154996
     9  H    0.155562
    10  H    0.159966
    11  C   -0.298655
    12  C   -0.299557
    13  C   -0.475710
    14  H    0.150088
    15  H    0.149623
    16  H    0.151653
    17  H    0.151839
    18  H    0.155151
    19  H    0.155291
    20  H    0.160131
    21  C   -0.298361
    22  C   -0.299665
    23  C   -0.475735
    24  H    0.149827
    25  H    0.149667
    26  H    0.151883
    27  H    0.151954
    28  H    0.155228
    29  H    0.155287
    30  H    0.160299
    31  C   -0.298517
    32  C   -0.302992
    33  C   -0.479093
    34  H    0.149143
    35  H    0.149746
    36  H    0.156019
    37  H    0.152140
    38  H    0.155537
    39  H    0.155184
    40  H    0.163560
 Sum of Mulliken charges =  -0.00000

 Dipole moment (field-independent basis, Debye):
    X=              0.0310    Y=              0.0011    Z=              0.0314  Tot=              0.0441
 Quadrupole moment (field-independent basis, Debye-Ang):
   XX=            -85.5792   YY=            -84.9276   ZZ=            -84.3415
   XY=             -1.2450   XZ=              1.3857   YZ=              0.2412

 Normal termination of Gaussian 16 at Wed May  5 16:44:10 2021.
