 Gaussian 16, Revision A.03,
 Gaussian 16:  EM64L-G16RevA.03 25-Dec-2016

 -------------
 #p 6-31g* mp2
 -------------

 ------------------------------------------------------
 Input file generated by CHIRIPA (05-May-2021 14:51:11)
 ------------------------------------------------------
 Symbolic Z-matrix:
 Charge =  0 Multiplicity = 1

                         Standard orientation:
 ---------------------------------------------------------------------
 Center     Atomic      Atomic             Coordinates (Angstroms)
 Number     Number       Type             X           Y           Z
 ---------------------------------------------------------------------
      1          6           0       -3.777724    1.132455    0.124502
      2          6           0       -2.427080    1.782507   -0.177457
      3          6           0       -2.427536    3.290696    0.073858
      4          1           0       -4.552487    1.608159   -0.492259
      5          1           0       -4.046263    1.330582    1.171415
      6          1           0       -2.160518    1.582038   -1.223102
      7          1           0       -1.655411    1.305070    0.439955
      8          1           0       -2.668617    3.506903    1.119676
      9          1           0       -3.176594    3.785445   -0.552830
     10          1           0       -1.452310    3.735017   -0.148342
     11          6           0       -3.793067   -0.375116   -0.121911
     12          6           0       -5.143711   -1.025168    0.180048
     13          6           0       -5.143255   -2.533357   -0.071267
     14          1           0       -3.524528   -0.573244   -1.168824
     15          1           0       -3.018304   -0.850820    0.494850
     16          1           0       -5.915380   -0.547731   -0.437364
     17          1           0       -5.410273   -0.824699    1.225693
     18          1           0       -4.394197   -3.028106    0.555421
     19          1           0       -4.902173   -2.749564   -1.117085
     20          1           0       -6.118481   -2.977679    0.150933
     21          6           0        4.502274   -0.624580    0.093814
     22          6           0        5.550787    0.469288   -0.111267
     23          6           0        6.980071   -0.038091    0.082406
     24          1           0        4.610700   -1.042819    1.103896
     25          1           0        4.698584   -1.447125   -0.607810
     26          1           0        5.351732    1.290138    0.589588
     27          1           0        5.439727    0.885104   -1.120910
     28          1           0        7.202737   -0.842282   -0.626324
     29          1           0        7.114241   -0.434946    1.093893
     30          1           0        7.713407    0.760149   -0.068887
     31          6           0        3.068518   -0.132759   -0.096405
     32          6           0        2.020004   -1.226627    0.108677
     33          6           0        0.590720   -0.719248   -0.084997
     34          1           0        2.872208    0.689787    0.605219
     35          1           0        2.960090    0.285480   -1.106487
     36          1           0        2.131063   -1.642442    1.118319
     37          1           0        2.219059   -2.047477   -0.592179
     38          1           0        0.456550   -0.322393   -1.096484
     39          1           0        0.368055    0.084943    0.623732
     40          1           0       -0.142616   -1.517488    0.066296
 ---------------------------------------------------------------------

 SCF Done:  E(RHF) =  -470.732886271     A.U. after   11 cycles
 E2 =    -0.1583013347D+01 EUMP2 =    -0.47231589961800D+03

 The electronic state is 1-A.
 Alpha  occ. eigenvalues --  -11.21603 -11.21584 -11.21558 -11.21453 -11.21405
 Alpha  occ. eigenvalues --  -11.21345 -11.21330 -11.21270 -11.21073 -11.21045
 Alpha  occ. eigenvalues --  -11.21038 -11.21001  -1.08431  -1.08355  -1.03536
 Alpha  occ. eigenvalues --   -1.03454  -0.95978  -0.95918  -0.87015  -0.86920
 Alpha  occ. eigenvalues --   -0.79682  -0.79454  -0.78277  -0.78112  -0.65081
 Alpha  occ. eigenvalues --   -0.64976  -0.60991  -0.60810  -0.59349  -0.59293
 Alpha  occ. eigenvalues --   -0.57656  -0.57458  -0.55286  -0.55195  -0.52729
 Alpha  occ. eigenvalues --   -0.52582  -0.52470  -0.52276  -0.49997  -0.49809
 Alpha  occ. eigenvalues --   -0.48120  -0.47646  -0.46744  -0.46438  -0.45895
 Alpha  occ. eigenvalues --   -0.45735  -0.45637  -0.45456  -0.43767  -0.43701
 Alpha virt. eigenvalues --    0.21988   0.23021   0.23953   0.24410   0.25618
 Alpha virt. eigenvalues --    0.26282   0.26962   0.27441   0.27967   0.29350
 Alpha virt. eigenvalues --    0.29860   0.30933   0.31842   0.31975   0.32106

 Mulliken charges:
               1
     1  C   -0.298009
     2  C   -0.304970
     3  C   -0.475599
     4  H    0.149106
     5  H    0.148777
     6  H    0.151447
     7  H    0.160247
     8  H    0.154470
     9  H    0.154754
    10  H    0.159845
    11  C   -0.299889
    12  C   -0.299575
    13  C   -0.475588
    14  H    0.149463
    15  H    0.151805
    16  H    0.151845
    17  H    0.151692
    18  H    0.154800
    19  H    0.155112
    20  H    0.160118
    21  C   -0.298212
    22  C   -0.299634
    23  C   -0.475701
    24  H    0.149590
    25  H    0.149555
    26  H    0.151896
    27  H    0.151937
    28  H    0.155191
    29  H    0.155163
    30  H    0.160255
    31  C   -0.298271
    32  C   -0.300512
    33  C   -0.477339
    34  H    0.149341
    35  H    0.149653
    36  H    0.151516
    37  H    0.151802
    38  H    0.156406
    39  H    0.156094
    40  H    0.161418
 Sum of Mulliken charges =  -0.00000

 Dipole moment (field-independent basis, Debye):
    X=              0.0229    Y=             -0.0118    Z=             -0.0048  Tot=              0.0262
 Quadrupole moment (field-independent basis, Debye-Ang):
   XX=            -86.1420   YY=            -86.0948   ZZ=            -82.8529
   XY=              0.0597   XZ=              0.0946   YZ=             -0.0374

 Normal termination of Gaussian 16 at Wed May  5 19:52:03 2021.
