 Gaussian 16, Revision A.03,
 Gaussian 16:  EM64L-G16RevA.03 25-Dec-2016

 -------------
 #p 6-31g* mp2
 -------------

 ------------------------------------------------------
 Input file generated by CHIRIPA (05-May-2021 14:51:14)
 ------------------------------------------------------
 Symbolic Z-matrix:
 Charge =  0 Multiplicity = 1

                         Standard orientation:
 ---------------------------------------------------------------------
 Center     Atomic      Atomic             Coordinates (Angstroms)
 Number     Number       Type             X           Y           Z
 ---------------------------------------------------------------------
      1          6           0       -2.410687   -0.579718   -0.132159
      2          6           0       -1.645677   -1.903151   -0.096508
      3          6           0       -0.143803   -1.724016   -0.320296
      4          1           0       -2.238638   -0.090038   -1.100435
      5          1           0       -2.002333    0.092610    0.635054
      6          1           0       -2.056269   -2.573286   -0.862633
      7          1           0       -1.819722   -2.389828    0.871722
      8          1           0        0.286012   -1.076335    0.450657
      9          1           0        0.048120   -1.260835   -1.293553
     10          1           0        0.383627   -2.682562   -0.290838
     11          6           0       -3.913323   -0.742398    0.089992
     12          6           0       -4.678333    0.581034    0.054341
     13          6           0       -6.180207    0.401900    0.278129
     14          1           0       -4.321677   -1.414726   -0.677222
     15          1           0       -4.085372   -1.232079    1.058267
     16          1           0       -4.504288    1.067712   -0.913889
     17          1           0       -4.267741    1.251170    0.820466
     18          1           0       -6.372130   -0.061282    1.251386
     19          1           0       -6.610022   -0.245782   -0.492824
     20          1           0       -6.707637    1.360445    0.248671
     21          6           0        2.930513    1.352655    0.248103
     22          6           0        1.683870    1.846323   -0.486851
     23          6           0        1.233009    3.231291   -0.021682
     24          1           0        2.727255    1.330309    1.327516
     25          1           0        3.745672    2.074113    0.098409
     26          1           0        0.871707    1.123454   -0.336961
     27          1           0        1.890057    1.867314   -1.564656
     28          1           0        2.024389    3.969608   -0.186619
     29          1           0        1.000253    3.221523    1.048052
     30          1           0        0.340369    3.564742   -0.560072
     31          6           0        3.393497   -0.030539   -0.205936
     32          6           0        4.640140   -0.524207    0.529019
     33          6           0        5.091001   -1.909174    0.063849
     34          1           0        2.578338   -0.751997   -0.056241
     35          1           0        3.596755   -0.008193   -1.285349
     36          1           0        4.433953   -0.545197    1.606823
     37          1           0        5.452303    0.198663    0.379127
     38          1           0        5.323757   -1.899406   -1.005885
     39          1           0        4.299621   -2.647492    0.228786
     40          1           0        5.983641   -2.242626    0.602239
 ---------------------------------------------------------------------

 SCF Done:  E(RHF) =  -470.731884134     A.U. after   11 cycles
 E2 =    -0.1584279730D+01 EUMP2 =    -0.47231616386467D+03

 The electronic state is 1-A.
 Alpha  occ. eigenvalues --  -11.21666 -11.21632 -11.21503 -11.21465 -11.21432
 Alpha  occ. eigenvalues --  -11.21402 -11.21280 -11.21169 -11.21152 -11.21095
 Alpha  occ. eigenvalues --  -11.21003 -11.20987  -1.08496  -1.08313  -1.03598
 Alpha  occ. eigenvalues --   -1.03426  -0.96065  -0.95874  -0.87085  -0.86899
 Alpha  occ. eigenvalues --   -0.79719  -0.79489  -0.78368  -0.78028  -0.65160
 Alpha  occ. eigenvalues --   -0.64944  -0.60994  -0.60851  -0.59446  -0.59219
 Alpha  occ. eigenvalues --   -0.57675  -0.57482  -0.55392  -0.55138  -0.52778
 Alpha  occ. eigenvalues --   -0.52659  -0.52426  -0.52290  -0.50007  -0.49825
 Alpha  occ. eigenvalues --   -0.48170  -0.47766  -0.46720  -0.46537  -0.46061
 Alpha  occ. eigenvalues --   -0.45777  -0.45641  -0.45047  -0.43825  -0.43667
 Alpha virt. eigenvalues --    0.21495   0.23019   0.23878   0.24597   0.25987
 Alpha virt. eigenvalues --    0.26465   0.27151   0.27295   0.27903   0.29641
 Alpha virt. eigenvalues --    0.30875   0.31266   0.31693   0.31882   0.32029

 Mulliken charges:
               1
     1  C   -0.299600
     2  C   -0.300495
     3  C   -0.479492
     4  H    0.150310
     5  H    0.149811
     6  H    0.152223
     7  H    0.151904
     8  H    0.156703
     9  H    0.158789
    10  H    0.160458
    11  C   -0.298276
    12  C   -0.299705
    13  C   -0.475758
    14  H    0.149776
    15  H    0.149738
    16  H    0.152066
    17  H    0.152124
    18  H    0.155205
    19  H    0.155228
    20  H    0.160429
    21  C   -0.297627
    22  C   -0.307526
    23  C   -0.475021
    24  H    0.147853
    25  H    0.149031
    26  H    0.161336
    27  H    0.150647
    28  H    0.154702
    29  H    0.154076
    30  H    0.159912
    31  C   -0.308545
    32  C   -0.298745
    33  C   -0.475497
    34  H    0.163496
    35  H    0.148403
    36  H    0.151047
    37  H    0.151369
    38  H    0.154994
    39  H    0.154854
    40  H    0.159801
 Sum of Mulliken charges =  -0.00000

 Dipole moment (field-independent basis, Debye):
    X=             -0.0803    Y=             -0.0603    Z=             -0.0200  Tot=              0.1024
 Quadrupole moment (field-independent basis, Debye-Ang):
   XX=            -86.1258   YY=            -85.7332   ZZ=            -83.3200
   XY=              0.6664   XZ=             -0.0397   YZ=             -0.4200

 Normal termination of Gaussian 16 at Wed May  5 16:54:56 2021.
