 Gaussian 16, Revision A.03,
 Gaussian 16:  EM64L-G16RevA.03 25-Dec-2016

 -------------
 #p 6-31g* mp2
 -------------

 ------------------------------------------------------
 Input file generated by CHIRIPA (05-May-2021 14:53:17)
 ------------------------------------------------------
 Symbolic Z-matrix:
 Charge =  0 Multiplicity = 1

                         Standard orientation:
 ---------------------------------------------------------------------
 Center     Atomic      Atomic             Coordinates (Angstroms)
 Number     Number       Type             X           Y           Z
 ---------------------------------------------------------------------
      1          6           0       -3.313405   -0.304304   -0.459800
      2          6           0       -4.718658   -0.887137   -0.613280
      3          6           0       -4.732557   -2.196709   -1.402345
      4          1           0       -2.881359   -0.138309   -1.456157
      5          1           0       -2.670756   -1.041838    0.040641
      6          1           0       -5.358821   -0.148190   -1.112042
      7          1           0       -5.147482   -1.051585    0.383556
      8          1           0       -4.116858   -2.952899   -0.904658
      9          1           0       -4.329398   -2.044371   -2.408753
     10          1           0       -5.746974   -2.595793   -1.500062
     11          6           0       -3.283147    1.004946    0.326759
     12          6           0       -1.877895    1.587780    0.480239
     13          6           0       -1.863996    2.897351    1.269304
     14          1           0       -3.925796    1.742480   -0.173682
     15          1           0       -3.715193    0.838952    1.323116
     16          1           0       -1.449070    1.752227   -0.516597
     17          1           0       -1.237731    0.848832    0.979001
     18          1           0       -2.267154    2.745013    2.275712
     19          1           0       -2.479694    3.653541    0.771617
     20          1           0       -0.849578    3.296435    1.367021
     21          6           0        3.480012    1.154523   -1.821611
     22          6           0        2.433638    1.627451   -1.022886
     23          6           0        1.925285    0.844713    0.018001
     24          6           0        2.489456   -0.411763    0.233100
     25          6           0        3.532618   -0.910852   -0.545370
     26          6           0        4.025201   -0.110888   -1.580729
     27          1           0        3.868787    1.769263   -2.628050
     28          1           0        2.008296    2.609790   -1.207656
     29          1           0        1.115777    1.186222    0.651630
     30          1           0        3.936168   -1.894271   -0.336916
     31          1           0        4.837887   -0.480751   -2.199428
     32          7           0        1.959633   -1.249530    1.332115
     33          8           0        2.473938   -2.352962    1.501130
     34          8           0        1.040086   -0.786877    2.003696
 ---------------------------------------------------------------------

 SCF Done:  E(RHF) =  -669.535838207     A.U. after   15 cycles
 E2 =    -0.2092293430D+01 EUMP2 =    -0.67162813163750D+03

 The electronic state is 1-A.
 Alpha  occ. eigenvalues --  -20.60874 -20.60866 -15.85904 -11.31178 -11.27764
 Alpha  occ. eigenvalues --  -11.27699 -11.27500 -11.26762 -11.26740 -11.21582
 Alpha  occ. eigenvalues --  -11.21382 -11.21267 -11.21245 -11.21132 -11.20845
 Alpha  occ. eigenvalues --   -1.59934  -1.39491  -1.19357  -1.08772  -1.08297
 Alpha  occ. eigenvalues --   -1.04751  -1.03456  -0.95906  -0.95616  -0.86914
 Alpha  occ. eigenvalues --   -0.86156  -0.82453  -0.79553  -0.78138  -0.77470
 Alpha  occ. eigenvalues --   -0.72130  -0.71244  -0.70476  -0.65037  -0.64917
 Alpha  occ. eigenvalues --   -0.64735  -0.62142  -0.60822  -0.59281  -0.57525
 Alpha  occ. eigenvalues --   -0.55261  -0.55157  -0.53086  -0.52848  -0.52615
 Alpha  occ. eigenvalues --   -0.52332  -0.49821  -0.48907  -0.48877  -0.47829
 Alpha  occ. eigenvalues --   -0.46513  -0.45657  -0.45539  -0.44851  -0.43692
 Alpha  occ. eigenvalues --   -0.37344  -0.36338
 Alpha virt. eigenvalues --    0.04990   0.11286   0.16466   0.20420   0.23145
 Alpha virt. eigenvalues --    0.23954   0.26342   0.26632   0.27824   0.27892
 Alpha virt. eigenvalues --    0.29526   0.30379   0.31525   0.31708   0.32027

 Mulliken charges:
               1
     1  C   -0.300550
     2  C   -0.299702
     3  C   -0.476007
     4  H    0.146291
     5  H    0.157790
     6  H    0.150013
     7  H    0.153515
     8  H    0.157987
     9  H    0.153414
    10  H    0.159651
    11  C   -0.296139
    12  C   -0.318602
    13  C   -0.475565
    14  H    0.147236
    15  H    0.153383
    16  H    0.143754
    17  H    0.172982
    18  H    0.161946
    19  H    0.154820
    20  H    0.151071
    21  C   -0.170275
    22  C   -0.222641
    23  C   -0.173258
    24  C    0.155882
    25  C   -0.170137
    26  C   -0.219126
    27  H    0.225569
    28  H    0.223817
    29  H    0.287972
    30  H    0.275391
    31  H    0.223357
    32  N    0.489028
    33  O   -0.459334
    34  O   -0.463531
 Sum of Mulliken charges =  -0.00000

 Dipole moment (field-independent basis, Debye):
    X=              1.8482    Y=              2.8181    Z=             -3.7679  Tot=              5.0552
 Quadrupole moment (field-independent basis, Debye-Ang):
   XX=            -83.6594   YY=            -95.8953   ZZ=            -96.5066
   XY=              3.8262   XZ=            -10.6528   YZ=              2.1959

 Normal termination of Gaussian 16 at Thu May  6 12:16:28 2021.
