 Gaussian 16, Revision A.03,
 Gaussian 16:  EM64L-G16RevA.03 25-Dec-2016

 -------------
 #p 6-31g* mp2
 -------------

 ------------------------------------------------------
 Input file generated by CHIRIPA (05-May-2021 14:55:24)
 ------------------------------------------------------
 Symbolic Z-matrix:
 Charge =  0 Multiplicity = 1

                         Standard orientation:
 ---------------------------------------------------------------------
 Center     Atomic      Atomic             Coordinates (Angstroms)
 Number     Number       Type             X           Y           Z
 ---------------------------------------------------------------------
      1          6           0       -4.750443   -1.255001   -1.105925
      2          6           0       -5.035908    0.109085   -0.986349
      3          6           0       -4.108470    0.980486   -0.407498
      4          6           0       -2.900027    0.451437    0.043126
      5          6           0       -2.586364   -0.902771   -0.061881
      6          6           0       -3.528736   -1.755693   -0.644123
      7          1           0       -5.476699   -1.924749   -1.556908
      8          1           0       -5.983890    0.500722   -1.344114
      9          1           0       -4.303660    2.040809   -0.302459
     10          1           0       -1.632817   -1.263744    0.303996
     11          1           0       -3.304335   -2.814611   -0.735681
     12          7           0       -1.910285    1.364169    0.657725
     13          8           0       -0.852864    0.873230    1.046925
     14          8           0       -2.210688    2.553224    0.738611
     15          6           0        3.358834   -0.902115    0.096475
     16          6           0        2.496099   -0.806500    1.355257
     17          6           0        1.376092   -1.846938    1.384738
     18          1           0        2.719585   -0.779988   -0.788618
     19          1           0        3.791685   -1.910070    0.032746
     20          1           0        2.066116    0.201408    1.417321
     21          1           0        3.137505   -0.928678    2.237462
     22          1           0        1.790082   -2.859769    1.347513
     23          1           0        0.712605   -1.723263    0.522712
     24          1           0        0.771760   -1.760625    2.293140
     25          6           0        4.482826    0.131534    0.052433
     26          6           0        5.345562    0.035920   -1.206349
     27          6           0        6.465567    1.076358   -1.235830
     28          1           0        4.049975    1.139490    0.116163
     29          1           0        5.122074    0.009407    0.937527
     30          1           0        4.704154    0.158098   -2.088554
     31          1           0        5.775544   -0.971987   -1.268413
     32          1           0        7.129055    0.952684   -0.373804
     33          1           0        6.051578    2.089190   -1.198604
     34          1           0        7.069900    0.990045   -2.144231
 ---------------------------------------------------------------------

 SCF Done:  E(RHF) =  -669.535720276     A.U. after   15 cycles
 E2 =    -0.2092017101D+01 EUMP2 =    -0.67162773737668D+03

 The electronic state is 1-A.
 Alpha  occ. eigenvalues --  -20.60885 -20.60874 -15.85924 -11.31228 -11.27801
 Alpha  occ. eigenvalues --  -11.27756 -11.27537 -11.26806 -11.26787 -11.21118
 Alpha  occ. eigenvalues --  -11.20769 -11.20710 -11.20649 -11.20637 -11.20523
 Alpha  occ. eigenvalues --   -1.59952  -1.39507  -1.19400  -1.08810  -1.07777
 Alpha  occ. eigenvalues --   -1.04794  -1.02900  -0.95670  -0.95387  -0.86448
 Alpha  occ. eigenvalues --   -0.86188  -0.82486  -0.78984  -0.77586  -0.77536
 Alpha  occ. eigenvalues --   -0.72160  -0.71269  -0.70515  -0.65064  -0.64813
 Alpha  occ. eigenvalues --   -0.64380  -0.62168  -0.60253  -0.58755  -0.56994
 Alpha  occ. eigenvalues --   -0.55321  -0.54693  -0.53130  -0.52899  -0.52101
 Alpha  occ. eigenvalues --   -0.51828  -0.49415  -0.48900  -0.48836  -0.47306
 Alpha  occ. eigenvalues --   -0.45967  -0.45159  -0.45016  -0.44892  -0.43164
 Alpha  occ. eigenvalues --   -0.37385  -0.36395
 Alpha virt. eigenvalues --    0.04971   0.11241   0.16479   0.20954   0.23501
 Alpha virt. eigenvalues --    0.24487   0.26364   0.27455   0.27831   0.28203
 Alpha virt. eigenvalues --    0.29398   0.30898   0.31539   0.32356   0.32512

 Mulliken charges:
               1
     1  C   -0.170228
     2  C   -0.219106
     3  C   -0.169864
     4  C    0.154594
     5  C   -0.176666
     6  C   -0.222169
     7  H    0.225792
     8  H    0.223532
     9  H    0.275574
    10  H    0.289483
    11  H    0.224443
    12  N    0.491806
    13  O   -0.466226
    14  O   -0.459591
    15  C   -0.298192
    16  C   -0.303862
    17  C   -0.473865
    18  H    0.148419
    19  H    0.144567
    20  H    0.176074
    21  H    0.147959
    22  H    0.147375
    23  H    0.148368
    24  H    0.163020
    25  C   -0.298836
    26  C   -0.299065
    27  C   -0.475499
    28  H    0.154068
    29  H    0.148372
    30  H    0.150968
    31  H    0.149732
    32  H    0.154543
    33  H    0.156255
    34  H    0.158225
 Sum of Mulliken charges =  -0.00000

 Dipole moment (field-independent basis, Debye):
    X=             -3.6180    Y=             -3.0360    Z=             -2.0902  Tot=              5.1649
 Quadrupole moment (field-independent basis, Debye-Ang):
   XX=            -73.9145   YY=            -95.4111   ZZ=            -95.4964
   XY=              4.5882   XZ=              7.4943   YZ=             -1.7445

 Normal termination of Gaussian 16 at Thu May  6 03:10:27 2021.
