 Gaussian 16, Revision A.03,
 Gaussian 16:  EM64L-G16RevA.03 25-Dec-2016

 -------------
 #p 6-31g* mp2
 -------------

 ------------------------------------------------------
 Input file generated by CHIRIPA (05-May-2021 14:55:23)
 ------------------------------------------------------
 Symbolic Z-matrix:
 Charge =  0 Multiplicity = 1

                         Standard orientation:
 ---------------------------------------------------------------------
 Center     Atomic      Atomic             Coordinates (Angstroms)
 Number     Number       Type             X           Y           Z
 ---------------------------------------------------------------------
      1          6           0        3.785965   -2.366262   -0.223258
      2          6           0        2.437903   -2.025658   -0.070820
      3          6           0        2.038414   -0.685945   -0.082072
      4          6           0        3.017903    0.291881   -0.248646
      5          6           0        4.368793   -0.015654   -0.402944
      6          6           0        4.745416   -1.361943   -0.388543
      7          1           0        4.087417   -3.409537   -0.213294
      8          1           0        1.690601   -2.803516    0.057718
      9          1           0        1.001656   -0.394187    0.033807
     10          1           0        5.090776    0.781975   -0.529227
     11          1           0        5.793059   -1.623518   -0.507152
     12          7           0        2.607085    1.713656   -0.262225
     13          8           0        3.489404    2.556362   -0.410538
     14          8           0        1.410546    1.958416   -0.124299
     15          6           0       -3.206143    0.032435    0.454945
     16          6           0       -2.843842   -0.088177    1.935545
     17          6           0       -1.353076    0.126619    2.198749
     18          1           0       -2.621746   -0.699091   -0.119767
     19          1           0       -2.908042    1.025600    0.091411
     20          1           0       -3.143793   -1.080315    2.296524
     21          1           0       -3.429309    0.643592    2.506823
     22          1           0       -1.042591    1.122212    1.865592
     23          1           0       -0.755453   -0.611490    1.654099
     24          1           0       -1.116233    0.035965    3.263431
     25          6           0       -4.693021   -0.179778    0.175860
     26          6           0       -5.055322   -0.059166   -1.304741
     27          6           0       -6.546087   -0.273960   -1.567944
     28          1           0       -4.991120   -1.172942    0.539393
     29          1           0       -5.277416    0.551749    0.750572
     30          1           0       -4.469854   -0.790934   -1.876018
     31          1           0       -4.755370    0.932973   -1.665720
     32          1           0       -7.143710    0.464149   -1.023294
     33          1           0       -6.856571   -1.269554   -1.234787
     34          1           0       -6.782929   -0.183307   -2.632626
 ---------------------------------------------------------------------

 SCF Done:  E(RHF) =  -669.535622245     A.U. after   15 cycles
 E2 =    -0.2091462408D+01 EUMP2 =    -0.67162708465289D+03

 The electronic state is 1-A.
 Alpha  occ. eigenvalues --  -20.60769 -20.60763 -15.85815 -11.31147 -11.27732
 Alpha  occ. eigenvalues --  -11.27680 -11.27478 -11.26744 -11.26731 -11.21535
 Alpha  occ. eigenvalues --  -11.21504 -11.21320 -11.21260 -11.20998 -11.20992
 Alpha  occ. eigenvalues --   -1.59837  -1.39391  -1.19327  -1.08731  -1.08349
 Alpha  occ. eigenvalues --   -1.04730  -1.03454  -0.95909  -0.95565  -0.86926
 Alpha  occ. eigenvalues --   -0.86126  -0.82403  -0.79521  -0.78164  -0.77439
 Alpha  occ. eigenvalues --   -0.72037  -0.71155  -0.70447  -0.65008  -0.64964
 Alpha  occ. eigenvalues --   -0.64738  -0.62111  -0.60840  -0.59267  -0.57510
 Alpha  occ. eigenvalues --   -0.55305  -0.55133  -0.53062  -0.52883  -0.52594
 Alpha  occ. eigenvalues --   -0.52256  -0.49842  -0.48793  -0.48786  -0.47814
 Alpha  occ. eigenvalues --   -0.46541  -0.45713  -0.45604  -0.44793  -0.43705
 Alpha  occ. eigenvalues --   -0.37313  -0.36326
 Alpha virt. eigenvalues --    0.05062   0.11306   0.16547   0.20545   0.23004
 Alpha virt. eigenvalues --    0.24041   0.25926   0.27046   0.27703   0.27898
 Alpha virt. eigenvalues --    0.29383   0.31014   0.31555   0.31860   0.32170

 Mulliken charges:
               1
     1  C   -0.170531
     2  C   -0.220703
     3  C   -0.175482
     4  C    0.157542
     5  C   -0.170484
     6  C   -0.218916
     7  H    0.225430
     8  H    0.222847
     9  H    0.284934
    10  H    0.275410
    11  H    0.223289
    12  N    0.488387
    13  O   -0.460356
    14  O   -0.461316
    15  C   -0.298639
    16  C   -0.299907
    17  C   -0.480146
    18  H    0.142324
    19  H    0.158181
    20  H    0.148628
    21  H    0.154366
    22  H    0.176095
    23  H    0.138844
    24  H    0.160347
    25  C   -0.298204
    26  C   -0.299699
    27  C   -0.475695
    28  H    0.147569
    29  H    0.150880
    30  H    0.150139
    31  H    0.154772
    32  H    0.155761
    33  H    0.154019
    34  H    0.160312
 Sum of Mulliken charges =  -0.00000

 Dipole moment (field-independent basis, Debye):
    X=              1.4236    Y=             -4.8350    Z=              0.0655  Tot=              5.0407
 Quadrupole moment (field-independent basis, Debye-Ang):
   XX=            -82.5670   YY=            -96.8798   ZZ=            -95.7067
   XY=            -14.1073   XZ=             -1.3782   YZ=              1.3573

 Normal termination of Gaussian 16 at Thu May  6 09:26:40 2021.
