 Gaussian 16, Revision A.03,
 Gaussian 16:  EM64L-G16RevA.03 25-Dec-2016

 -------------
 #p 6-31g* mp2
 -------------

 ------------------------------------------------------
 Input file generated by CHIRIPA (05-May-2021 14:53:17)
 ------------------------------------------------------
 Symbolic Z-matrix:
 Charge =  0 Multiplicity = 1

                         Standard orientation:
 ---------------------------------------------------------------------
 Center     Atomic      Atomic             Coordinates (Angstroms)
 Number     Number       Type             X           Y           Z
 ---------------------------------------------------------------------
      1          6           0        3.062205   -0.061018   -0.383347
      2          6           0        3.616976   -1.057183    0.635411
      3          6           0        3.865673   -2.440855    0.034249
      4          1           0        2.125062   -0.455407   -0.799478
      5          1           0        3.765709    0.024092   -1.223128
      6          1           0        2.913293   -1.139347    1.473680
      7          1           0        4.552808   -0.660288    1.049306
      8          1           0        4.584708   -2.379610   -0.789060
      9          1           0        2.935878   -2.861390   -0.362275
     10          1           0        4.262111   -3.137152    0.779815
     11          6           0        2.808375    1.326764    0.202623
     12          6           0        2.253603    2.322930   -0.816134
     13          6           0        2.004906    3.706602   -0.214973
     14          1           0        2.104870    1.241654    1.042405
     15          1           0        3.745518    1.721153    0.618755
     16          1           0        1.317772    1.926034   -1.230029
     17          1           0        2.957287    2.405093   -1.654403
     18          1           0        2.934702    4.127137    0.181552
     19          1           0        1.285871    3.645356    0.608337
     20          1           0        1.608469    4.402899   -0.960538
     21          6           0       -0.299622   -2.037546   -0.031311
     22          6           0       -1.240311   -2.039936   -1.066501
     23          6           0       -2.348760   -1.189185   -1.020575
     24          6           0       -2.485926   -0.345249    0.080447
     25          6           0       -1.565891   -0.319635    1.127427
     26          6           0       -0.465121   -1.178918    1.060424
     27          1           0        0.558466   -2.701744   -0.075175
     28          1           0       -1.114346   -2.705690   -1.915588
     29          1           0       -3.092184   -1.170533   -1.808224
     30          1           0       -1.718481    0.355267    1.960879
     31          1           0        0.263839   -1.174914    1.865809
     32          7           0       -3.655328    0.559918    0.140224
     33          8           0       -3.753357    1.293932    1.121167
     34          8           0       -4.451731    0.518235   -0.794998
 ---------------------------------------------------------------------

 SCF Done:  E(RHF) =  -669.534861962     A.U. after   15 cycles
 E2 =    -0.2094019296D+01 EUMP2 =    -0.67162888125821D+03

 The electronic state is 1-A.
 Alpha  occ. eigenvalues --  -20.60825 -20.60820 -15.85880 -11.31273 -11.27848
 Alpha  occ. eigenvalues --  -11.27843 -11.27568 -11.26865 -11.26854 -11.22601
 Alpha  occ. eigenvalues --  -11.22221 -11.22019 -11.21921 -11.21862 -11.21245
 Alpha  occ. eigenvalues --   -1.59900  -1.39453  -1.19455  -1.09098  -1.08821
 Alpha  occ. eigenvalues --   -1.04857  -1.04180  -0.96616  -0.95674  -0.87639
 Alpha  occ. eigenvalues --   -0.86252  -0.82506  -0.80265  -0.78829  -0.77542
 Alpha  occ. eigenvalues --   -0.72098  -0.71224  -0.70604  -0.65820  -0.65095
 Alpha  occ. eigenvalues --   -0.64781  -0.62208  -0.61567  -0.60023  -0.58208
 Alpha  occ. eigenvalues --   -0.56053  -0.55260  -0.53324  -0.53198  -0.53006
 Alpha  occ. eigenvalues --   -0.52944  -0.50588  -0.48861  -0.48851  -0.48560
 Alpha  occ. eigenvalues --   -0.47303  -0.46371  -0.46260  -0.44853  -0.44393
 Alpha  occ. eigenvalues --   -0.37375  -0.36452
 Alpha virt. eigenvalues --    0.04951   0.11108   0.16309   0.18764   0.22916
 Alpha virt. eigenvalues --    0.23779   0.24418   0.25878   0.27272   0.28639
 Alpha virt. eigenvalues --    0.28787   0.30092   0.31029   0.31567   0.32157

 Mulliken charges:
               1
     1  C   -0.303650
     2  C   -0.302378
     3  C   -0.477718
     4  H    0.153435
     5  H    0.151553
     6  H    0.143396
     7  H    0.157844
     8  H    0.161669
     9  H    0.144304
    10  H    0.163580
    11  C   -0.296910
    12  C   -0.300908
    13  C   -0.476108
    14  H    0.145270
    15  H    0.150661
    16  H    0.155077
    17  H    0.152086
    18  H    0.154797
    19  H    0.156494
    20  H    0.163215
    21  C   -0.175609
    22  C   -0.221423
    23  C   -0.170450
    24  C    0.158547
    25  C   -0.171696
    26  C   -0.221036
    27  H    0.235109
    28  H    0.224423
    29  H    0.276051
    30  H    0.276008
    31  H    0.226656
    32  N    0.487989
    33  O   -0.460170
    34  O   -0.460109
 Sum of Mulliken charges =  -0.00000

 Dipole moment (field-independent basis, Debye):
    X=              4.1606    Y=             -3.1079    Z=             -0.2724  Tot=              5.2004
 Quadrupole moment (field-independent basis, Debye-Ang):
   XX=           -114.1041   YY=            -93.4431   ZZ=            -91.1637
   XY=              7.7623   XZ=              2.2195   YZ=              1.2564

 Normal termination of Gaussian 16 at Thu May  6 09:06:52 2021.
