 Gaussian 16, Revision A.03,
 Gaussian 16:  EM64L-G16RevA.03 25-Dec-2016

 -------------
 #p 6-31g* mp2
 -------------

 ------------------------------------------------------
 Input file generated by CHIRIPA (05-May-2021 14:53:17)
 ------------------------------------------------------
 Symbolic Z-matrix:
 Charge =  0 Multiplicity = 1

                         Standard orientation:
 ---------------------------------------------------------------------
 Center     Atomic      Atomic             Coordinates (Angstroms)
 Number     Number       Type             X           Y           Z
 ---------------------------------------------------------------------
      1          6           0       -5.738134   -0.157139    0.186321
      2          6           0       -6.562087    0.217024   -1.046192
      3          6           0       -8.068014    0.103248   -0.807376
      4          1           0       -5.986493   -1.184013    0.487639
      5          1           0       -6.027701    0.492963    1.023526
      6          1           0       -6.270069   -0.432671   -1.881201
      7          1           0       -6.311596    1.243059   -1.344726
      8          1           0       -8.379763    0.763992    0.007996
      9          1           0       -8.338000   -0.921259   -0.531528
     10          1           0       -8.637936    0.375298   -1.701265
     11          6           0       -4.230778   -0.048360   -0.036779
     12          6           0       -3.406825   -0.422523    1.195734
     13          6           0       -1.900898   -0.308748    0.956918
     14          1           0       -3.941210   -0.698462   -0.873985
     15          1           0       -3.982419    0.978514   -0.338097
     16          1           0       -3.657315   -1.448558    1.494267
     17          1           0       -3.698843    0.227171    2.030742
     18          1           0       -1.630912    0.715760    0.681069
     19          1           0       -1.589148   -0.969491    0.141546
     20          1           0       -1.330975   -0.580797    1.850807
     21          6           0        6.298143   -0.455492   -0.605669
     22          6           0        5.897163    0.874517   -0.441920
     23          6           0        4.567757    1.183082   -0.138577
     24          6           0        3.661692    0.132069   -0.005509
     25          6           0        4.030500   -1.203063   -0.162651
     26          6           0        5.365177   -1.488216   -0.465758
     27          1           0        7.332904   -0.686099   -0.841221
     28          1           0        6.619546    1.678586   -0.549991
     29          1           0        4.230244    2.203896   -0.006511
     30          1           0        3.287516   -1.983077   -0.048753
     31          1           0        5.673744   -2.522044   -0.592371
     32          7           0        2.251520    0.446341    0.315503
     33          8           0        1.472590   -0.497775    0.427530
     34          8           0        1.951861    1.630831    0.449006
 ---------------------------------------------------------------------

 SCF Done:  E(RHF) =  -669.535775682     A.U. after   15 cycles
 E2 =    -0.2091078131D+01 EUMP2 =    -0.67162685381347D+03

 The electronic state is 1-A.
 Alpha  occ. eigenvalues --  -20.60888 -20.60871 -15.85909 -11.31264 -11.27830
 Alpha  occ. eigenvalues --  -11.27827 -11.27572 -11.26844 -11.26834 -11.20913
 Alpha  occ. eigenvalues --  -11.20532 -11.20509 -11.20287 -11.20163 -11.19020
 Alpha  occ. eigenvalues --   -1.59936  -1.39492  -1.19434  -1.08832  -1.07424
 Alpha  occ. eigenvalues --   -1.04835  -1.02403  -0.95672  -0.94801  -0.86235
 Alpha  occ. eigenvalues --   -0.85801  -0.82500  -0.78500  -0.77551  -0.77179
 Alpha  occ. eigenvalues --   -0.72116  -0.71255  -0.70542  -0.65088  -0.64837
 Alpha  occ. eigenvalues --   -0.64071  -0.62182  -0.59812  -0.58281  -0.56415
 Alpha  occ. eigenvalues --   -0.55338  -0.54101  -0.53165  -0.52928  -0.51489
 Alpha  occ. eigenvalues --   -0.51241  -0.48887  -0.48830  -0.48751  -0.46772
 Alpha  occ. eigenvalues --   -0.45578  -0.44908  -0.44682  -0.44628  -0.42624
 Alpha  occ. eigenvalues --   -0.37415  -0.36438
 Alpha virt. eigenvalues --    0.04978   0.11217   0.16469   0.21353   0.23778
 Alpha virt. eigenvalues --    0.25460   0.27265   0.27597   0.28218   0.28426
 Alpha virt. eigenvalues --    0.29244   0.30921   0.32401   0.32554   0.32673

 Mulliken charges:
               1
     1  C   -0.297058
     2  C   -0.298825
     3  C   -0.475098
     4  H    0.147480
     5  H    0.148099
     6  H    0.150617
     7  H    0.151386
     8  H    0.154400
     9  H    0.153999
    10  H    0.158089
    11  C   -0.296953
    12  C   -0.303300
    13  C   -0.463832
    14  H    0.147313
    15  H    0.149460
    16  H    0.145525
    17  H    0.147111
    18  H    0.160883
    19  H    0.154753
    20  H    0.161546
    21  C   -0.170699
    22  C   -0.218566
    23  C   -0.170721
    24  C    0.158001
    25  C   -0.170966
    26  C   -0.218531
    27  H    0.225849
    28  H    0.223687
    29  H    0.275766
    30  H    0.275712
    31  H    0.223685
    32  N    0.489196
    33  O   -0.458094
    34  O   -0.459915
 Sum of Mulliken charges =  -0.00000

 Dipole moment (field-independent basis, Debye):
    X=              5.3802    Y=             -1.0745    Z=             -1.1363  Tot=              5.6028
 Quadrupole moment (field-independent basis, Debye-Ang):
   XX=            -61.7469   YY=            -89.3846   ZZ=            -95.7420
   XY=             -2.4559   XZ=             -4.2042   YZ=              0.2865

 Normal termination of Gaussian 16 at Wed May  5 15:45:08 2021.
