 Gaussian 16, Revision A.03,
 Gaussian 16:  EM64L-G16RevA.03 25-Dec-2016

 -------------
 #p 6-31g* mp2
 -------------

 ------------------------------------------------------
 Input file generated by CHIRIPA (05-May-2021 14:51:08)
 ------------------------------------------------------
 Symbolic Z-matrix:
 Charge =  0 Multiplicity = 1

                         Standard orientation:
 ---------------------------------------------------------------------
 Center     Atomic      Atomic             Coordinates (Angstroms)
 Number     Number       Type             X           Y           Z
 ---------------------------------------------------------------------
      1          6           0        2.630126   -0.921782    0.643582
      2          6           0        1.118212   -0.709573    0.559515
      3          6           0        0.336197   -1.663953    1.462513
      4          1           0        2.863898   -1.960243    0.371743
      5          1           0        2.954390   -0.790794    1.685258
      6          1           0        0.797102   -0.839561   -0.481930
      7          1           0        0.888031    0.328555    0.831400
      8          1           0        0.628080   -1.530001    2.509157
      9          1           0        0.536634   -2.704755    1.188365
     10          1           0       -0.742480   -1.494883    1.386820
     11          6           0        3.425561    0.024914   -0.253512
     12          6           0        4.937476   -0.187295   -0.169445
     13          6           0        5.719490    0.767085   -1.072444
     14          1           0        3.101297   -0.106075   -1.295189
     15          1           0        3.191790    1.063374    0.018327
     16          1           0        5.167657   -1.225424   -0.441330
     17          1           0        5.258586   -0.057307    0.872000
     18          1           0        5.519054    1.807887   -0.798295
     19          1           0        5.427608    0.633133   -2.119087
     20          1           0        6.798168    0.598015   -0.996750
     21          6           0       -3.516352   -0.050733   -0.504265
     22          6           0       -3.119573   -1.509381   -0.274270
     23          6           0       -4.106609   -2.496034   -0.898826
     24          1           0       -4.519277    0.119581   -0.089441
     25          1           0       -3.589062    0.136227   -1.584615
     26          1           0       -3.046284   -1.693170    0.805297
     27          1           0       -2.117397   -1.676194   -0.689520
     28          1           0       -4.173435   -2.341406   -1.980595
     29          1           0       -5.107600   -2.358479   -0.477285
     30          1           0       -3.803730   -3.532853   -0.722389
     31          6           0       -2.539336    0.947602    0.114196
     32          6           0       -2.936115    2.406249   -0.115799
     33          6           0       -1.949079    3.392902    0.508755
     34          1           0       -2.466626    0.760642    1.194545
     35          1           0       -1.536410    0.777288   -0.300628
     36          1           0       -3.938291    2.573062    0.299451
     37          1           0       -3.009403    2.590038   -1.195367
     38          1           0       -0.948087    3.255348    0.087214
     39          1           0       -1.882253    3.238275    1.590526
     40          1           0       -2.251958    4.429722    0.332320
 ---------------------------------------------------------------------

 SCF Done:  E(RHF) =  -470.731990183     A.U. after   11 cycles
 E2 =    -0.1584688584D+01 EUMP2 =    -0.47231667876767D+03

 The electronic state is 1-A.
 Alpha  occ. eigenvalues --  -11.21617 -11.21604 -11.21588 -11.21545 -11.21404
 Alpha  occ. eigenvalues --  -11.21378 -11.21329 -11.21313 -11.21087 -11.21085
 Alpha  occ. eigenvalues --  -11.21063 -11.20851  -1.08478  -1.08371  -1.03560
 Alpha  occ. eigenvalues --   -1.03471  -0.95998  -0.95919  -0.87040  -0.86919
 Alpha  occ. eigenvalues --   -0.79714  -0.79472  -0.78376  -0.78132  -0.65094
 Alpha  occ. eigenvalues --   -0.65014  -0.60986  -0.60846  -0.59537  -0.59168
 Alpha  occ. eigenvalues --   -0.57666  -0.57494  -0.55279  -0.55208  -0.52860
 Alpha  occ. eigenvalues --   -0.52550  -0.52417  -0.52291  -0.49938  -0.49867
 Alpha  occ. eigenvalues --   -0.48141  -0.47672  -0.46689  -0.46559  -0.45973
 Alpha  occ. eigenvalues --   -0.45759  -0.45646  -0.45442  -0.43808  -0.43644
 Alpha virt. eigenvalues --    0.21402   0.23183   0.23616   0.24093   0.25358
 Alpha virt. eigenvalues --    0.26333   0.26587   0.27638   0.28243   0.29696
 Alpha virt. eigenvalues --    0.30314   0.31009   0.31704   0.31810   0.32154

 Mulliken charges:
               1
     1  C   -0.298064
     2  C   -0.301431
     3  C   -0.484604
     4  H    0.149443
     5  H    0.149659
     6  H    0.150156
     7  H    0.153582
     8  H    0.153494
     9  H    0.153447
    10  H    0.172961
    11  C   -0.298242
    12  C   -0.299568
    13  C   -0.475688
    14  H    0.148954
    15  H    0.149440
    16  H    0.151914
    17  H    0.152003
    18  H    0.155174
    19  H    0.155026
    20  H    0.160233
    21  C   -0.297374
    22  C   -0.305732
    23  C   -0.474776
    24  H    0.149447
    25  H    0.149315
    26  H    0.153039
    27  H    0.156445
    28  H    0.155073
    29  H    0.155193
    30  H    0.160513
    31  C   -0.305885
    32  C   -0.299233
    33  C   -0.476234
    34  H    0.149372
    35  H    0.158477
    36  H    0.151814
    37  H    0.151872
    38  H    0.155356
    39  H    0.155029
    40  H    0.160404
 Sum of Mulliken charges =  -0.00000

 Dipole moment (field-independent basis, Debye):
    X=             -0.0490    Y=              0.0046    Z=             -0.0116  Tot=              0.0505
 Quadrupole moment (field-independent basis, Debye-Ang):
   XX=            -85.4606   YY=            -85.4464   ZZ=            -83.9920
   XY=             -0.8288   XZ=             -0.2738   YZ=              0.5905

 Normal termination of Gaussian 16 at Wed May  5 16:35:23 2021.
