 Gaussian 16, Revision A.03,
 Gaussian 16:  EM64L-G16RevA.03 25-Dec-2016

 -------------
 #p 6-31g* mp2
 -------------

 ------------------------------------------------------
 Input file generated by CHIRIPA (05-May-2021 14:51:13)
 ------------------------------------------------------
 Symbolic Z-matrix:
 Charge =  0 Multiplicity = 1

                         Standard orientation:
 ---------------------------------------------------------------------
 Center     Atomic      Atomic             Coordinates (Angstroms)
 Number     Number       Type             X           Y           Z
 ---------------------------------------------------------------------
      1          6           0       -3.306415    0.691570    0.056571
      2          6           0       -3.205899    1.821867   -0.968276
      3          6           0       -2.879127    3.171922   -0.329242
      4          1           0       -4.077282    0.944372    0.797382
      5          1           0       -2.357394    0.618317    0.605559
      6          1           0       -4.154350    1.892059   -1.516118
      7          1           0       -2.435316    1.566256   -1.706842
      8          1           0       -1.922931    3.125360    0.201909
      9          1           0       -3.651732    3.453015    0.393717
     10          1           0       -2.811976    3.965625   -1.079833
     11          6           0       -3.632582   -0.664347   -0.566994
     12          6           0       -3.733098   -1.794644    0.457853
     13          6           0       -4.059870   -3.144700   -0.181180
     14          1           0       -4.581603   -0.591095   -1.115981
     15          1           0       -2.861716   -0.917150   -1.307805
     16          1           0       -4.503681   -1.539034    1.196420
     17          1           0       -2.784648   -1.864837    1.005695
     18          1           0       -3.287266   -3.425792   -0.904140
     19          1           0       -5.016066   -3.098138   -0.712331
     20          1           0       -4.127021   -3.938403    0.569410
     21          6           0        4.209976    0.160139    0.184948
     22          6           0        4.972267   -0.794669   -0.734420
     23          6           0        6.452372   -0.434038   -0.864904
     24          1           0        4.306683    1.184685   -0.199626
     25          1           0        4.678874    0.153721    1.178673
     26          1           0        4.501227   -0.787498   -1.725725
     27          1           0        4.873573   -1.817087   -0.347717
     28          1           0        6.942900   -0.459950    0.113520
     29          1           0        6.568438    0.575490   -1.272318
     30          1           0        6.978200   -1.129435   -1.526557
     31          6           0        2.729022   -0.187362    0.325474
     32          6           0        1.966731    0.767447    1.244843
     33          6           0        0.486625    0.406815    1.375327
     34          1           0        2.260123   -0.180943   -0.668251
     35          1           0        2.632314   -1.211907    0.710049
     36          1           0        2.065424    1.789865    0.858140
     37          1           0        2.437770    0.760276    2.236147
     38          1           0        0.370559   -0.602711    1.782741
     39          1           0       -0.003903    0.432728    0.396903
     40          1           0       -0.039203    1.102214    2.036980
 ---------------------------------------------------------------------

 SCF Done:  E(RHF) =  -470.732951882     A.U. after   11 cycles
 E2 =    -0.1583183067D+01 EUMP2 =    -0.47231613494961D+03

 The electronic state is 1-A.
 Alpha  occ. eigenvalues --  -11.21689 -11.21643 -11.21540 -11.21527 -11.21470
 Alpha  occ. eigenvalues --  -11.21407 -11.21302 -11.21204 -11.21184 -11.21102
 Alpha  occ. eigenvalues --  -11.21024 -11.21019  -1.08500  -1.08341  -1.03608
 Alpha  occ. eigenvalues --   -1.03461  -0.96071  -0.95903  -0.87099  -0.86917
 Alpha  occ. eigenvalues --   -0.79698  -0.79513  -0.78323  -0.78129  -0.65169
 Alpha  occ. eigenvalues --   -0.64959  -0.61064  -0.60809  -0.59437  -0.59266
 Alpha  occ. eigenvalues --   -0.57675  -0.57515  -0.55401  -0.55161  -0.52792
 Alpha  occ. eigenvalues --   -0.52609  -0.52504  -0.52307  -0.50081  -0.49791
 Alpha  occ. eigenvalues --   -0.48000  -0.47841  -0.46768  -0.46510  -0.45934
 Alpha  occ. eigenvalues --   -0.45785  -0.45682  -0.45436  -0.43818  -0.43702
 Alpha virt. eigenvalues --    0.20869   0.22978   0.23890   0.24808   0.25719
 Alpha virt. eigenvalues --    0.26476   0.27038   0.27441   0.27992   0.29505
 Alpha virt. eigenvalues --    0.30378   0.31031   0.31769   0.32129   0.32269

 Mulliken charges:
               1
     1  C   -0.309210
     2  C   -0.299173
     3  C   -0.476720
     4  H    0.148752
     5  H    0.163533
     6  H    0.151737
     7  H    0.150496
     8  H    0.155990
     9  H    0.155099
    10  H    0.159765
    11  C   -0.297615
    12  C   -0.300181
    13  C   -0.475643
    14  H    0.149081
    15  H    0.148652
    16  H    0.151712
    17  H    0.152770
    18  H    0.155017
    19  H    0.155010
    20  H    0.159915
    21  C   -0.298386
    22  C   -0.299696
    23  C   -0.475753
    24  H    0.149846
    25  H    0.149727
    26  H    0.151961
    27  H    0.152013
    28  H    0.155266
    29  H    0.155273
    30  H    0.160403
    31  C   -0.298656
    32  C   -0.300278
    33  C   -0.479657
    34  H    0.149522
    35  H    0.149772
    36  H    0.152419
    37  H    0.152421
    38  H    0.155944
    39  H    0.157194
    40  H    0.161680
 Sum of Mulliken charges =  -0.00000

 Dipole moment (field-independent basis, Debye):
    X=              0.0672    Y=             -0.0025    Z=              0.0378  Tot=              0.0771
 Quadrupole moment (field-independent basis, Debye-Ang):
   XX=            -85.1323   YY=            -85.5917   ZZ=            -84.2664
   XY=             -0.6998   XZ=              0.1397   YZ=             -0.7465

 Normal termination of Gaussian 16 at Thu May  6 00:46:52 2021.
