 Gaussian 16, Revision A.03,
 Gaussian 16:  EM64L-G16RevA.03 25-Dec-2016

 -------------
 #p 6-31g* mp2
 -------------

 ------------------------------------------------------
 Input file generated by CHIRIPA (05-May-2021 14:53:15)
 ------------------------------------------------------
 Symbolic Z-matrix:
 Charge =  0 Multiplicity = 1

                         Standard orientation:
 ---------------------------------------------------------------------
 Center     Atomic      Atomic             Coordinates (Angstroms)
 Number     Number       Type             X           Y           Z
 ---------------------------------------------------------------------
      1          6           0       -3.399095   -0.468101   -0.232595
      2          6           0       -4.721593   -1.146158    0.126882
      3          6           0       -4.606239   -2.669367    0.192619
      4          1           0       -3.048225   -0.852764   -1.199998
      5          1           0       -2.638286   -0.747446    0.509382
      6          1           0       -5.480036   -0.864510   -0.614774
      7          1           0       -5.069452   -0.759695    1.093451
      8          1           0       -3.869797   -2.967790    0.945745
      9          1           0       -4.282714   -3.073201   -0.772187
     10          1           0       -5.563050   -3.133660    0.451084
     11          6           0       -3.498353    1.054737   -0.302178
     12          6           0       -2.175856    1.732794   -0.661654
     13          6           0       -2.291210    3.256004   -0.727391
     14          1           0       -4.259163    1.334083   -1.044154
     15          1           0       -3.849224    1.439401    0.665226
     16          1           0       -1.827996    1.346331   -1.628223
     17          1           0       -1.417412    1.451147    0.080002
     18          1           0       -2.614735    3.659838    0.237415
     19          1           0       -3.027652    3.554426   -1.480517
     20          1           0       -1.334398    3.720296   -0.985856
     21          6           0        1.354727    0.219771    2.299323
     22          6           0        0.722269   -0.281294    1.156760
     23          6           0        1.454566   -0.533768   -0.007090
     24          6           0        2.823822   -0.272556    0.006801
     25          6           0        3.482689    0.226725    1.129254
     26          6           0        2.730493    0.471737    2.281955
     27          1           0        0.778132    0.413000    3.199099
     28          1           0       -0.346035   -0.477916    1.167364
     29          1           0        0.990291   -0.921626   -0.905663
     30          1           0        4.549043    0.412813    1.088283
     31          1           0        3.224326    0.860876    3.167813
     32          7           0        3.609605   -0.535889   -1.219414
     33          8           0        4.814726   -0.297389   -1.181509
     34          8           0        3.005501   -0.975801   -2.195206
 ---------------------------------------------------------------------

 SCF Done:  E(RHF) =  -669.534851330     A.U. after   15 cycles
 E2 =    -0.2092729872D+01 EUMP2 =    -0.67162758120202D+03

 The electronic state is 1-A.
 Alpha  occ. eigenvalues --  -20.60748 -20.60743 -15.85801 -11.31167 -11.27742
 Alpha  occ. eigenvalues --  -11.27725 -11.27487 -11.26759 -11.26704 -11.22315
 Alpha  occ. eigenvalues --  -11.22249 -11.22177 -11.22047 -11.21646 -11.21516
 Alpha  occ. eigenvalues --   -1.59823  -1.39376  -1.19345  -1.09154  -1.08740
 Alpha  occ. eigenvalues --   -1.04748  -1.04136  -0.96593  -0.95573  -0.87602
 Alpha  occ. eigenvalues --   -0.86152  -0.82413  -0.80217  -0.79017  -0.77434
 Alpha  occ. eigenvalues --   -0.72020  -0.71146  -0.70451  -0.65888  -0.64994
 Alpha  occ. eigenvalues --   -0.64693  -0.62104  -0.61526  -0.59953  -0.58208
 Alpha  occ. eigenvalues --   -0.55894  -0.55253  -0.53271  -0.53106  -0.52991
 Alpha  occ. eigenvalues --   -0.52837  -0.50538  -0.48786  -0.48774  -0.48525
 Alpha  occ. eigenvalues --   -0.47264  -0.46475  -0.46409  -0.44781  -0.44428
 Alpha  occ. eigenvalues --   -0.37323  -0.36305
 Alpha virt. eigenvalues --    0.05078   0.11208   0.16492   0.19675   0.22809
 Alpha virt. eigenvalues --    0.23772   0.24742   0.25919   0.27350   0.28390
 Alpha virt. eigenvalues --    0.29681   0.30817   0.31271   0.31440   0.31821

 Mulliken charges:
               1
     1  C   -0.303845
     2  C   -0.299318
     3  C   -0.476296
     4  H    0.153309
     5  H    0.140309
     6  H    0.155815
     7  H    0.152239
     8  H    0.152896
     9  H    0.157682
    10  H    0.163061
    11  C   -0.298516
    12  C   -0.306368
    13  C   -0.475580
    14  H    0.153779
    15  H    0.149028
    16  H    0.154758
    17  H    0.150204
    18  H    0.153943
    19  H    0.157431
    20  H    0.163862
    21  C   -0.174624
    22  C   -0.222953
    23  C   -0.173428
    24  C    0.158500
    25  C   -0.170869
    26  C   -0.218431
    27  H    0.225897
    28  H    0.234913
    29  H    0.276558
    30  H    0.275551
    31  H    0.223309
    32  N    0.488161
    33  O   -0.460638
    34  O   -0.460338
 Sum of Mulliken charges =  -0.00000

 Dipole moment (field-independent basis, Debye):
    X=             -2.8998    Y=              0.9562    Z=              4.2339  Tot=              5.2201
 Quadrupole moment (field-independent basis, Debye-Ang):
   XX=           -106.4387   YY=            -96.5388   ZZ=            -93.0870
   XY=              4.8949   XZ=             15.0164   YZ=             -0.2027

 Normal termination of Gaussian 16 at Wed May  5 21:55:15 2021.
