 Gaussian 16, Revision A.03,
 Gaussian 16:  EM64L-G16RevA.03 25-Dec-2016

 -------------
 #p 6-31g* mp2
 -------------

 ------------------------------------------------------
 Input file generated by CHIRIPA (05-May-2021 14:55:25)
 ------------------------------------------------------
 Symbolic Z-matrix:
 Charge =  0 Multiplicity = 1

                         Standard orientation:
 ---------------------------------------------------------------------
 Center     Atomic      Atomic             Coordinates (Angstroms)
 Number     Number       Type             X           Y           Z
 ---------------------------------------------------------------------
      1          6           0        5.291096   -0.243073    0.116310
      2          6           0        4.619680    0.814274   -0.506376
      3          6           0        3.226761    0.799121   -0.625096
      4          6           0        2.533639   -0.294056   -0.107566
      5          6           0        3.173903   -1.362579    0.518221
      6          6           0        4.567341   -1.326216    0.625723
      7          1           0        6.373351   -0.223063    0.204178
      8          1           0        5.179171    1.656753   -0.902916
      9          1           0        2.681662    1.604393   -1.102403
     10          1           0        2.588913   -2.188746    0.903777
     11          1           0        5.086119   -2.148759    1.109808
     12          7           0        1.058744   -0.321325   -0.227311
     13          8           0        0.471119   -1.295946    0.236853
     14          8           0        0.518272    0.632439   -0.783065
     15          6           0       -3.256473    1.020654   -0.156407
     16          6           0       -2.476231    1.810596    0.894877
     17          6           0       -1.886685    3.108461    0.341909
     18          1           0       -2.592838    0.792683   -1.001727
     19          1           0       -4.063870    1.651038   -0.554049
     20          1           0       -1.671404    1.178433    1.291413
     21          1           0       -3.141747    2.036546    1.737878
     22          1           0       -2.679862    3.761387   -0.036455
     23          1           0       -1.201164    2.898398   -0.485458
     24          1           0       -1.333109    3.657280    1.110161
     25          6           0       -3.851931   -0.279377    0.381253
     26          6           0       -4.632172   -1.069319   -0.670032
     27          6           0       -5.221718   -2.367184   -0.117064
     28          1           0       -3.044533   -0.909762    0.778895
     29          1           0       -4.515564   -0.051406    1.226572
     30          1           0       -3.966655   -1.295269   -1.513033
     31          1           0       -5.436998   -0.437156   -1.066568
     32          1           0       -5.907239   -2.157121    0.710303
     33          1           0       -4.428542   -3.020110    0.261300
     34          1           0       -5.775295   -2.916003   -0.885315
 ---------------------------------------------------------------------

 SCF Done:  E(RHF) =  -669.536939631     A.U. after   15 cycles
 E2 =    -0.2092426849D+01 EUMP2 =    -0.67162936647967D+03

 The electronic state is 1-A.
 Alpha  occ. eigenvalues --  -20.61203 -20.61192 -15.86198 -11.31430 -11.27978
 Alpha  occ. eigenvalues --  -11.27975 -11.27701 -11.26964 -11.26954 -11.20290
 Alpha  occ. eigenvalues --  -11.19985 -11.19888 -11.19766 -11.19563 -11.19495
 Alpha  occ. eigenvalues --   -1.60235  -1.39795  -1.19586  -1.09009  -1.06816
 Alpha  occ. eigenvalues --   -1.04967  -1.02042  -0.95865  -0.94508  -0.86372
 Alpha  occ. eigenvalues --   -0.85541  -0.82705  -0.78140  -0.77764  -0.76620
 Alpha  occ. eigenvalues --   -0.72429  -0.71541  -0.70694  -0.65246  -0.64974
 Alpha  occ. eigenvalues --   -0.63401  -0.62314  -0.59409  -0.57914  -0.56140
 Alpha  occ. eigenvalues --   -0.55474  -0.53765  -0.53299  -0.53057  -0.51286
 Alpha  occ. eigenvalues --   -0.50958  -0.49207  -0.49167  -0.48397  -0.46465
 Alpha  occ. eigenvalues --   -0.45200  -0.45127  -0.44163  -0.44005  -0.42273
 Alpha  occ. eigenvalues --   -0.37559  -0.36563
 Alpha virt. eigenvalues --    0.04728   0.11094   0.16234   0.21194   0.24511
 Alpha virt. eigenvalues --    0.25748   0.27151   0.27861   0.28528   0.29012
 Alpha virt. eigenvalues --    0.29356   0.30807   0.32168   0.32899   0.33068

 Mulliken charges:
               1
     1  C   -0.170223
     2  C   -0.218603
     3  C   -0.170238
     4  C    0.157903
     5  C   -0.170387
     6  C   -0.218637
     7  H    0.226546
     8  H    0.224417
     9  H    0.276089
    10  H    0.276063
    11  H    0.224309
    12  N    0.491985
    13  O   -0.459434
    14  O   -0.462119
    15  C   -0.299966
    16  C   -0.293758
    17  C   -0.480237
    18  H    0.166509
    19  H    0.139475
    20  H    0.158760
    21  H    0.141482
    22  H    0.146645
    23  H    0.170547
    24  H    0.149471
    25  C   -0.300949
    26  C   -0.298528
    27  C   -0.475180
    28  H    0.161731
    29  H    0.141726
    30  H    0.154117
    31  H    0.146900
    32  H    0.151716
    33  H    0.156369
    34  H    0.155498
 Sum of Mulliken charges =  -0.00000

 Dipole moment (field-independent basis, Debye):
    X=              5.7287    Y=             -0.0790    Z=              0.3034  Tot=              5.7373
 Quadrupole moment (field-independent basis, Debye-Ang):
   XX=            -70.1891   YY=            -92.7255   ZZ=            -94.6460
   XY=             -1.7173   XZ=              0.6486   YZ=             -2.6023

 Normal termination of Gaussian 16 at Wed May  5 19:13:07 2021.
