 Gaussian 16, Revision A.03,
 Gaussian 16:  EM64L-G16RevA.03 25-Dec-2016

 -------------
 #p 6-31g* mp2
 -------------

 ------------------------------------------------------
 Input file generated by CHIRIPA (05-May-2021 14:57:24)
 ------------------------------------------------------
 Symbolic Z-matrix:
 Charge =  0 Multiplicity = 1

                         Standard orientation:
 ---------------------------------------------------------------------
 Center     Atomic      Atomic             Coordinates (Angstroms)
 Number     Number       Type             X           Y           Z
 ---------------------------------------------------------------------
      1          6           0       -2.069017    2.006421    1.036335
      2          6           0       -2.018273    0.711450    1.562640
      3          6           0       -2.849595   -0.293047    1.058223
      4          6           0       -3.723622    0.033875    0.022612
      5          6           0       -3.797554    1.314634   -0.522806
      6          6           0       -2.956930    2.303356   -0.002876
      7          1           0       -1.419613    2.780612    1.434204
      8          1           0       -1.329690    0.477972    2.369726
      9          1           0       -2.830935   -1.303910    1.447098
     10          1           0       -4.494320    1.517089   -1.327136
     11          1           0       -2.998501    3.308173   -0.413558
     12          7           0       -4.608629   -1.021191   -0.519603
     13          8           0       -5.369907   -0.707602   -1.432157
     14          8           0       -4.524262   -2.141763   -0.021771
     15          6           0        1.095146   -0.554707    0.174686
     16          6           0        1.595990   -0.039576   -1.025446
     17          6           0        2.969708    0.156812   -1.195385
     18          6           0        3.817772   -0.174222   -0.139689
     19          6           0        3.349294   -0.689241    1.068024
     20          6           0        1.971852   -0.877327    1.215755
     21          1           0        0.026563   -0.704041    0.298072
     22          1           0        0.917480    0.211864   -1.835661
     23          1           0        3.384378    0.554038   -2.113904
     24          1           0        4.050438   -0.930533    1.857704
     25          1           0        1.585713   -1.277550    2.148903
     26          7           0        5.274037    0.029290   -0.307841
     27          8           0        6.000268   -0.270248    0.637412
     28          8           0        5.661651    0.484489   -1.381706
 ---------------------------------------------------------------------

 SCF Done:  E(RHF) =  -868.336660751     A.U. after   16 cycles
 E2 =    -0.2601543918D+01 EUMP2 =    -0.87093820466822D+03

 The electronic state is 1-A.
 Alpha  occ. eigenvalues --  -20.61672 -20.61664 -20.61043 -20.61038 -15.86733
 Alpha  occ. eigenvalues --  -15.86101 -11.32300 -11.31503 -11.28911 -11.28817
 Alpha  occ. eigenvalues --  -11.28568 -11.28123 -11.28080 -11.27950 -11.27836
 Alpha  occ. eigenvalues --  -11.27717 -11.27149 -11.27049  -1.60745  -1.60119
 Alpha  occ. eigenvalues --   -1.40292  -1.39672  -1.20491  -1.19690  -1.09818
 Alpha  occ. eigenvalues --   -1.09068  -1.05928  -1.05107  -0.96617  -0.95895
 Alpha  occ. eigenvalues --   -0.87275  -0.86499  -0.83464  -0.82726  -0.78488
 Alpha  occ. eigenvalues --   -0.77779  -0.72937  -0.72315  -0.72081  -0.71509
 Alpha  occ. eigenvalues --   -0.71446  -0.70801  -0.66110  -0.65888  -0.65333
 Alpha  occ. eigenvalues --   -0.65118  -0.63233  -0.62455  -0.56319  -0.55823
 Alpha  occ. eigenvalues --   -0.54025  -0.53964  -0.53403  -0.53194  -0.49715
 Alpha  occ. eigenvalues --   -0.49687  -0.49079  -0.49069  -0.45654  -0.45069
 Alpha  occ. eigenvalues --   -0.38519  -0.37771  -0.37315  -0.36730
 Alpha virt. eigenvalues --    0.04010   0.04745   0.10078   0.10891   0.15382
 Alpha virt. eigenvalues --    0.16284   0.19757   0.21647   0.25405   0.27108
 Alpha virt. eigenvalues --    0.27460   0.28892   0.29889   0.30945   0.31826

 Mulliken charges:
               1
     1  C   -0.169643
     2  C   -0.225830
     3  C   -0.180746
     4  C    0.160149
     5  C   -0.170959
     6  C   -0.219266
     7  H    0.231640
     8  H    0.224803
     9  H    0.276934
    10  H    0.279255
    11  H    0.228235
    12  N    0.487937
    13  O   -0.456877
    14  O   -0.458851
    15  C   -0.174003
    16  C   -0.222806
    17  C   -0.170538
    18  C    0.157748
    19  C   -0.169946
    20  C   -0.224893
    21  H    0.233011
    22  H    0.225482
    23  H    0.276325
    24  H    0.275941
    25  H    0.218762
    26  N    0.488038
    27  O   -0.460175
    28  O   -0.459730
 Sum of Mulliken charges =  -0.00000

 Dipole moment (field-independent basis, Debye):
    X=             -2.2657    Y=              3.1770    Z=              2.3984  Tot=              4.5803
 Quadrupole moment (field-independent basis, Debye-Ang):
   XX=           -166.8166   YY=           -102.2246   ZZ=            -99.0392
   XY=            -17.7538   XZ=             -1.7541   YZ=             -4.0592

 Normal termination of Gaussian 16 at Thu May  6 21:14:58 2021.
