 Gaussian 16, Revision A.03,
 Gaussian 16:  EM64L-G16RevA.03 25-Dec-2016

 -------------
 #p 6-31g* mp2
 -------------

 ------------------------------------------------------
 Input file generated by CHIRIPA (05-May-2021 14:57:25)
 ------------------------------------------------------
 Symbolic Z-matrix:
 Charge =  0 Multiplicity = 1

                         Standard orientation:
 ---------------------------------------------------------------------
 Center     Atomic      Atomic             Coordinates (Angstroms)
 Number     Number       Type             X           Y           Z
 ---------------------------------------------------------------------
      1          6           0       -0.547602    2.743298   -0.609936
      2          6           0       -0.277837    1.599084   -1.367909
      3          6           0       -1.030156    0.434535   -1.187941
      4          6           0       -2.049377    0.449416   -0.237017
      5          6           0       -2.342405    1.573518    0.533580
      6          6           0       -1.577210    2.726892    0.336721
      7          1           0        0.041819    3.643607   -0.756300
      8          1           0        0.521160    1.608938   -2.103812
      9          1           0       -0.842714   -0.465312   -1.761142
     10          1           0       -3.145320    1.533263    1.259615
     11          1           0       -1.788956    3.614032    0.926798
     12          7           0       -2.852640   -0.777524   -0.037552
     13          8           0       -3.745141   -0.738720    0.806588
     14          8           0       -2.574525   -1.754771   -0.729127
     15          6           0        0.653794   -2.832408    0.149601
     16          6           0        0.465464   -1.973446    1.237368
     17          6           0        1.160043   -0.762594    1.314467
     18          6           0        2.039112   -0.440802    0.281520
     19          6           0        2.248300   -1.275486   -0.815217
     20          6           0        1.543043   -2.481305   -0.871420
     21          1           0        0.110080   -3.771072    0.097824
     22          1           0       -0.224500   -2.243526    2.031756
     23          1           0        1.033260   -0.078977    2.145137
     24          1           0        2.942827   -0.978950   -1.591823
     25          1           0        1.691296   -3.146433   -1.717393
     26          7           0        2.780083    0.838410    0.352081
     27          8           0        3.548855    1.098855   -0.570846
     28          8           0        2.578054    1.556388    1.328978
 ---------------------------------------------------------------------

 SCF Done:  E(RHF) =  -868.338776488     A.U. after   16 cycles
 E2 =    -0.2607275107D+01 EUMP2 =    -0.87094605159515D+03

 The electronic state is 1-A.
 Alpha  occ. eigenvalues --  -20.61204 -20.61175 -20.61130 -20.61119 -15.86208
 Alpha  occ. eigenvalues --  -15.86143 -11.31254 -11.31129 -11.27929 -11.27808
 Alpha  occ. eigenvalues --  -11.27746 -11.27670 -11.27444 -11.27319 -11.26804
 Alpha  occ. eigenvalues --  -11.26668 -11.26595 -11.26526  -1.60264  -1.60203
 Alpha  occ. eigenvalues --   -1.39827  -1.39766  -1.19539  -1.19256  -1.08880
 Alpha  occ. eigenvalues --   -1.08734  -1.04851  -1.04678  -0.95750  -0.95642
 Alpha  occ. eigenvalues --   -0.86220  -0.86069  -0.82610  -0.82505  -0.77721
 Alpha  occ. eigenvalues --   -0.77614  -0.72449  -0.72396  -0.71648  -0.71507
 Alpha  occ. eigenvalues --   -0.70488  -0.70343  -0.65098  -0.64954  -0.64799
 Alpha  occ. eigenvalues --   -0.64645  -0.62193  -0.62043  -0.55216  -0.55119
 Alpha  occ. eigenvalues --   -0.53989  -0.52897  -0.52766  -0.52195  -0.49224
 Alpha  occ. eigenvalues --   -0.49179  -0.49161  -0.49109  -0.45301  -0.45261
 Alpha  occ. eigenvalues --   -0.37686  -0.37378  -0.36270  -0.35865
 Alpha virt. eigenvalues --    0.04486   0.05169   0.11105   0.11400   0.16388
 Alpha virt. eigenvalues --    0.16513   0.21345   0.21822   0.27088   0.27578
 Alpha virt. eigenvalues --    0.28391   0.28686   0.30814   0.31536   0.32226

 Mulliken charges:
               1
     1  C   -0.162560
     2  C   -0.234325
     3  C   -0.164090
     4  C    0.155457
     5  C   -0.174618
     6  C   -0.218974
     7  H    0.234514
     8  H    0.229817
     9  H    0.273455
    10  H    0.273570
    11  H    0.225153
    12  N    0.487795
    13  O   -0.462363
    14  O   -0.466153
    15  C   -0.155156
    16  C   -0.227206
    17  C   -0.168392
    18  C    0.160739
    19  C   -0.180979
    20  C   -0.226620
    21  H    0.236352
    22  H    0.230798
    23  H    0.274855
    24  H    0.272307
    25  H    0.224906
    26  N    0.489464
    27  O   -0.466884
    28  O   -0.460863
 Sum of Mulliken charges =  -0.00000

 Dipole moment (field-independent basis, Debye):
    X=              0.1850    Y=             -0.2369    Z=             -0.8491  Tot=              0.9008
 Quadrupole moment (field-independent basis, Debye-Ang):
   XX=           -127.0160   YY=            -95.3107   ZZ=            -99.0219
   XY=            -17.7472   XZ=             -4.7864   YZ=              0.1818

 Normal termination of Gaussian 16 at Fri May  7 00:26:42 2021.
