 Gaussian 16, Revision A.03,
 Gaussian 16:  EM64L-G16RevA.03 25-Dec-2016

 -------------
 #p 6-31g* mp2
 -------------

 ------------------------------------------------------
 Input file generated by CHIRIPA (05-May-2021 14:51:07)
 ------------------------------------------------------
 Symbolic Z-matrix:
 Charge =  0 Multiplicity = 1

                         Standard orientation:
 ---------------------------------------------------------------------
 Center     Atomic      Atomic             Coordinates (Angstroms)
 Number     Number       Type             X           Y           Z
 ---------------------------------------------------------------------
      1          6           0        4.219201    0.310210    0.374703
      2          6           0        5.067310    1.110015   -0.614746
      3          6           0        6.169484    1.918690    0.070128
      4          1           0        3.771306    0.998785    1.104222
      5          1           0        4.872120   -0.366304    0.943404
      6          1           0        4.412795    1.783825   -1.182377
      7          1           0        5.513085    0.419477   -1.342109
      8          1           0        6.845844    1.257898    0.621937
      9          1           0        5.739302    2.629999    0.782577
     10          1           0        6.763552    2.482753   -0.655665
     11          6           0        3.113115   -0.503412   -0.294866
     12          6           0        2.265007   -1.303217    0.694582
     13          6           0        1.162833   -2.111892    0.009708
     14          1           0        2.460196    0.173101   -0.863568
     15          1           0        3.561011   -1.191987   -1.024386
     16          1           0        1.819232   -0.612679    1.421946
     17          1           0        2.919522   -1.977027    1.262213
     18          1           0        1.593014   -2.823201   -0.702741
     19          1           0        0.486473   -1.451100   -0.542100
     20          1           0        0.568765   -2.675956    0.735501
     21          6           0       -3.396386   -0.494246   -0.441857
     22          6           0       -2.985470   -1.682483    0.428330
     23          6           0       -2.447802   -2.856680   -0.390187
     24          1           0       -4.159413   -0.821373   -1.161386
     25          1           0       -2.530550   -0.164592   -1.032664
     26          1           0       -3.851459   -2.008919    1.018345
     27          1           0       -2.223472   -1.352443    1.145999
     28          1           0       -1.568106   -2.553390   -0.967032
     29          1           0       -3.205343   -3.213595   -1.095412
     30          1           0       -2.160031   -3.695138    0.251714
     31          6           0       -3.935931    0.687448    0.362021
     32          6           0       -4.346846    1.875686   -0.508166
     33          6           0       -4.884516    3.049882    0.310350
     34          1           0       -4.801766    0.357794    0.952828
     35          1           0       -3.172904    1.014576    1.081550
     36          1           0       -5.108845    1.545646   -1.225835
     37          1           0       -3.480857    2.202122   -1.098181
     38          1           0       -4.126973    3.406797    1.015576
     39          1           0       -5.764211    2.746591    0.887196
     40          1           0       -5.172285    3.888340   -0.331550
 ---------------------------------------------------------------------

 SCF Done:  E(RHF) =  -470.732487773     A.U. after   11 cycles
 E2 =    -0.1583078310D+01 EUMP2 =    -0.47231556608308D+03

 The electronic state is 1-A.
 Alpha  occ. eigenvalues --  -11.21622 -11.21620 -11.21601 -11.21534 -11.21433
 Alpha  occ. eigenvalues --  -11.21391 -11.21373 -11.21331 -11.21088 -11.21083
 Alpha  occ. eigenvalues --  -11.21074 -11.20888  -1.08461  -1.08400  -1.03585
 Alpha  occ. eigenvalues --   -1.03460  -0.96075  -0.95872  -0.87115  -0.86868
 Alpha  occ. eigenvalues --   -0.79680  -0.79499  -0.78276  -0.78214  -0.65140
 Alpha  occ. eigenvalues --   -0.64998  -0.61129  -0.60759  -0.59440  -0.59234
 Alpha  occ. eigenvalues --   -0.57687  -0.57478  -0.55500  -0.55062  -0.52768
 Alpha  occ. eigenvalues --   -0.52562  -0.52486  -0.52271  -0.50068  -0.49728
 Alpha  occ. eigenvalues --   -0.48011  -0.47795  -0.46710  -0.46513  -0.45840
 Alpha  occ. eigenvalues --   -0.45760  -0.45729  -0.45619  -0.43818  -0.43714
 Alpha virt. eigenvalues --    0.21145   0.23085   0.23620   0.25070   0.25987
 Alpha virt. eigenvalues --    0.26752   0.26873   0.27534   0.27758   0.29226
 Alpha virt. eigenvalues --    0.29720   0.31321   0.31589   0.31934   0.32392

 Mulliken charges:
               1
     1  C   -0.298244
     2  C   -0.299647
     3  C   -0.475717
     4  H    0.149562
     5  H    0.149653
     6  H    0.151856
     7  H    0.152011
     8  H    0.155239
     9  H    0.155172
    10  H    0.160324
    11  C   -0.298477
    12  C   -0.300523
    13  C   -0.477660
    14  H    0.149180
    15  H    0.149796
    16  H    0.151515
    17  H    0.152009
    18  H    0.155384
    19  H    0.154911
    20  H    0.164309
    21  C   -0.298692
    22  C   -0.300936
    23  C   -0.478745
    24  H    0.149882
    25  H    0.148634
    26  H    0.151636
    27  H    0.152544
    28  H    0.163161
    29  H    0.153626
    30  H    0.158556
    31  C   -0.298193
    32  C   -0.299593
    33  C   -0.475675
    34  H    0.149646
    35  H    0.149345
    36  H    0.152030
    37  H    0.151623
    38  H    0.155032
    39  H    0.155247
    40  H    0.160220
 Sum of Mulliken charges =  -0.00000

 Dipole moment (field-independent basis, Debye):
    X=              0.0337    Y=             -0.0203    Z=             -0.0040  Tot=              0.0396
 Quadrupole moment (field-independent basis, Debye-Ang):
   XX=            -84.4724   YY=            -85.2823   ZZ=            -85.1256
   XY=             -0.4008   XZ=             -0.1033   YZ=             -0.5323

 Normal termination of Gaussian 16 at Thu May  6 05:13:32 2021.
