 Gaussian 16, Revision A.03,
 Gaussian 16:  EM64L-G16RevA.03 25-Dec-2016

 -------------
 #p 6-31g* mp2
 -------------

 ------------------------------------------------------
 Input file generated by CHIRIPA (05-May-2021 14:53:14)
 ------------------------------------------------------
 Symbolic Z-matrix:
 Charge =  0 Multiplicity = 1

                         Standard orientation:
 ---------------------------------------------------------------------
 Center     Atomic      Atomic             Coordinates (Angstroms)
 Number     Number       Type             X           Y           Z
 ---------------------------------------------------------------------
      1          6           0        3.194115   -0.610411    0.368328
      2          6           0        3.861760   -1.931555   -0.014837
      3          6           0        3.200006   -3.141590    0.645231
      4          1           0        3.223019   -0.495539    1.460534
      5          1           0        2.132868   -0.648509    0.086018
      6          1           0        4.921749   -1.890452    0.266856
      7          1           0        3.831434   -2.043205   -1.106272
      8          1           0        2.146635   -3.210622    0.354982
      9          1           0        3.243144   -3.057001    1.735912
     10          1           0        3.693060   -4.075417    0.357611
     11          6           0        3.844454    0.608480   -0.283661
     12          6           0        3.176809    1.929624    0.099503
     13          6           0        3.838564    3.139659   -0.560565
     14          1           0        4.905701    0.646578   -0.001352
     15          1           0        3.815551    0.493608   -1.375867
     16          1           0        3.207136    2.041274    1.190938
     17          1           0        2.116821    1.888520   -0.182190
     18          1           0        3.795425    3.055070   -1.651245
     19          1           0        4.891935    3.208691   -0.270316
     20          1           0        3.345509    4.073486   -0.272945
     21          6           0       -5.261585    0.194199    0.099720
     22          6           0       -4.452381    1.074925    0.825000
     23          6           0       -3.059327    0.976999    0.758973
     24          6           0       -2.506577   -0.017947   -0.045910
     25          6           0       -3.286027   -0.910309   -0.780373
     26          6           0       -4.676857   -0.793866   -0.699243
     27          1           0       -6.342879    0.277463    0.156878
     28          1           0       -4.903729    1.843242    1.446304
     29          1           0       -2.409238    1.645705    1.310004
     30          1           0       -2.807030   -1.665958   -1.391089
     31          1           0       -5.302820   -1.479225   -1.263600
     32          7           0       -1.032990   -0.131419   -0.123806
     33          8           0       -0.570559   -1.016619   -0.840197
     34          8           0       -0.368327    0.666990    0.533006
 ---------------------------------------------------------------------

 SCF Done:  E(RHF) =  -669.537165397     A.U. after   15 cycles
 E2 =    -0.2093064942D+01 EUMP2 =    -0.67163023033922D+03

 The electronic state is 1-A.
 Alpha  occ. eigenvalues --  -20.61344 -20.61337 -15.86303 -11.31505 -11.28042
 Alpha  occ. eigenvalues --  -11.28037 -11.27757 -11.27017 -11.27007 -11.19993
 Alpha  occ. eigenvalues --  -11.19824 -11.19767 -11.19666 -11.19656 -11.19187
 Alpha  occ. eigenvalues --   -1.60358  -1.39917  -1.19652  -1.09084  -1.06646
 Alpha  occ. eigenvalues --   -1.05025  -1.01943  -0.95944  -0.94414  -0.86433
 Alpha  occ. eigenvalues --   -0.85442  -0.82784  -0.77995  -0.77845  -0.76413
 Alpha  occ. eigenvalues --   -0.72501  -0.71644  -0.70759  -0.65307  -0.65032
 Alpha  occ. eigenvalues --   -0.63281  -0.62372  -0.59347  -0.57792  -0.56033
 Alpha  occ. eigenvalues --   -0.55537  -0.53716  -0.53364  -0.53114  -0.51195
 Alpha  occ. eigenvalues --   -0.50858  -0.49408  -0.49291  -0.48342  -0.46322
 Alpha  occ. eigenvalues --   -0.45383  -0.44941  -0.44027  -0.43557  -0.42127
 Alpha  occ. eigenvalues --   -0.37622  -0.36618
 Alpha virt. eigenvalues --    0.04648   0.11040   0.16167   0.21178   0.24633
 Alpha virt. eigenvalues --    0.25757   0.27121   0.27992   0.28454   0.29272
 Alpha virt. eigenvalues --    0.29874   0.30884   0.32249   0.32833   0.33142

 Mulliken charges:
               1
     1  C   -0.312346
     2  C   -0.296499
     3  C   -0.476610
     4  H    0.141221
     5  H    0.185596
     6  H    0.143880
     7  H    0.149196
     8  H    0.162387
     9  H    0.150282
    10  H    0.152639
    11  C   -0.296291
    12  C   -0.304641
    13  C   -0.474687
    14  H    0.140472
    15  H    0.145407
    16  H    0.146593
    17  H    0.173316
    18  H    0.151436
    19  H    0.150044
    20  H    0.154312
    21  C   -0.170052
    22  C   -0.218638
    23  C   -0.170515
    24  C    0.159766
    25  C   -0.170243
    26  C   -0.218654
    27  H    0.226815
    28  H    0.224649
    29  H    0.276512
    30  H    0.276221
    31  H    0.224591
    32  N    0.489208
    33  O   -0.458707
    34  O   -0.456661
 Sum of Mulliken charges =  -0.00000

 Dipole moment (field-independent basis, Debye):
    X=             -5.9311    Y=              0.3967    Z=              0.2442  Tot=              5.9494
 Quadrupole moment (field-independent basis, Debye-Ang):
   XX=            -71.2308   YY=            -94.2171   ZZ=            -93.0515
   XY=             -0.8930   XZ=              0.4058   YZ=              3.6072

 Normal termination of Gaussian 16 at Wed May  5 20:13:57 2021.
