 Gaussian 16, Revision A.03,
 Gaussian 16:  EM64L-G16RevA.03 25-Dec-2016

 -------------
 #p 6-31g* mp2
 -------------

 ------------------------------------------------------
 Input file generated by CHIRIPA (05-May-2021 14:55:19)
 ------------------------------------------------------
 Symbolic Z-matrix:
 Charge =  0 Multiplicity = 1

                         Standard orientation:
 ---------------------------------------------------------------------
 Center     Atomic      Atomic             Coordinates (Angstroms)
 Number     Number       Type             X           Y           Z
 ---------------------------------------------------------------------
      1          6           0       -1.509982   -2.452825   -1.116519
      2          6           0       -2.798882   -2.379806   -0.578070
      3          6           0       -3.253021   -1.200212    0.019310
      4          6           0       -2.387918   -0.107904    0.061133
      5          6           0       -1.098283   -0.149497   -0.466505
      6          6           0       -0.665285   -1.339400   -1.059119
      7          1           0       -1.165407   -3.373166   -1.578727
      8          1           0       -3.457058   -3.242931   -0.621227
      9          1           0       -4.246016   -1.116190    0.443951
     10          1           0       -0.465093    0.727501   -0.408510
     11          1           0        0.336197   -1.393226   -1.476468
     12          7           0       -2.857504    1.146337    0.691029
     13          8           0       -2.076002    2.094654    0.715232
     14          8           0       -3.998177    1.157344    1.148612
     15          6           0        2.638026    1.084341    0.184120
     16          6           0        2.441528    1.912982   -1.085812
     17          6           0        1.801444    3.273968   -0.810486
     18          1           0        1.665682    0.941250    0.675054
     19          1           0        3.263916    1.649091    0.888899
     20          1           0        1.817338    1.346257   -1.788541
     21          1           0        3.414425    2.053954   -1.573882
     22          1           0        2.424571    3.861925   -0.128854
     23          1           0        0.818410    3.150207   -0.344733
     24          1           0        1.670193    3.849683   -1.731999
     25          6           0        3.276917   -0.278919   -0.074854
     26          6           0        3.473415   -1.107560    1.195078
     27          6           0        4.113498   -2.468547    0.919752
     28          1           0        2.651027   -0.843670   -0.779633
     29          1           0        4.249261   -0.135828   -0.565788
     30          1           0        2.500518   -1.248533    1.683149
     31          1           0        4.097604   -0.540836    1.897807
     32          1           0        5.096533   -2.344785    0.453999
     33          1           0        3.490372   -3.056503    0.238120
     34          1           0        4.244750   -3.044261    1.841265
 ---------------------------------------------------------------------

 SCF Done:  E(RHF) =  -669.535094870     A.U. after   15 cycles
 E2 =    -0.2093891072D+01 EUMP2 =    -0.67162898594130D+03

 The electronic state is 1-A.
 Alpha  occ. eigenvalues --  -20.60848 -20.60843 -15.85893 -11.31222 -11.27797
 Alpha  occ. eigenvalues --  -11.27761 -11.27532 -11.26807 -11.26783 -11.22111
 Alpha  occ. eigenvalues --  -11.22063 -11.22048 -11.21866 -11.21589 -11.21043
 Alpha  occ. eigenvalues --   -1.59915  -1.39470  -1.19399  -1.08978  -1.08797
 Alpha  occ. eigenvalues --   -1.04800  -1.03953  -0.96376  -0.95639  -0.87383
 Alpha  occ. eigenvalues --   -0.86200  -0.82475  -0.80010  -0.78787  -0.77538
 Alpha  occ. eigenvalues --   -0.72115  -0.71233  -0.70536  -0.65731  -0.65034
 Alpha  occ. eigenvalues --   -0.64836  -0.62165  -0.61247  -0.59750  -0.57982
 Alpha  occ. eigenvalues --   -0.55692  -0.55287  -0.53128  -0.53031  -0.52917
 Alpha  occ. eigenvalues --   -0.52760  -0.50307  -0.48866  -0.48862  -0.48295
 Alpha  occ. eigenvalues --   -0.47062  -0.46300  -0.46231  -0.44879  -0.44230
 Alpha  occ. eigenvalues --   -0.37377  -0.36387
 Alpha virt. eigenvalues --    0.04973   0.11202   0.16419   0.18482   0.22960
 Alpha virt. eigenvalues --    0.23327   0.24775   0.26224   0.27439   0.28441
 Alpha virt. eigenvalues --    0.29873   0.31127   0.31429   0.31619   0.31898

 Mulliken charges:
               1
     1  C   -0.171106
     2  C   -0.218840
     3  C   -0.169865
     4  C    0.157733
     5  C   -0.179732
     6  C   -0.226533
     7  H    0.226168
     8  H    0.223667
     9  H    0.275693
    10  H    0.288715
    11  H    0.229907
    12  N    0.488871
    13  O   -0.463626
    14  O   -0.459550
    15  C   -0.304971
    16  C   -0.304346
    17  C   -0.484796
    18  H    0.150654
    19  H    0.156415
    20  H    0.141414
    21  H    0.155395
    22  H    0.157805
    23  H    0.172638
    24  H    0.161715
    25  C   -0.299385
    26  C   -0.300780
    27  C   -0.475080
    28  H    0.138832
    29  H    0.153193
    30  H    0.154478
    31  H    0.155798
    32  H    0.156553
    33  H    0.150158
    34  H    0.162807
 Sum of Mulliken charges =  -0.00000

 Dipole moment (field-independent basis, Debye):
    X=              1.7066    Y=             -4.2878    Z=             -2.0839  Tot=              5.0637
 Quadrupole moment (field-independent basis, Debye-Ang):
   XX=            -97.7591   YY=            -93.7314   ZZ=            -95.6568
   XY=             13.7722   XZ=              4.9201   YZ=             -0.4280

 Normal termination of Gaussian 16 at Thu May  6 15:45:31 2021.
