 Gaussian 16, Revision A.03,
 Gaussian 16:  EM64L-G16RevA.03 25-Dec-2016

 -------------
 #p 6-31g* mp2
 -------------

 ------------------------------------------------------
 Input file generated by CHIRIPA (05-May-2021 14:51:14)
 ------------------------------------------------------
 Symbolic Z-matrix:
 Charge =  0 Multiplicity = 1

                         Standard orientation:
 ---------------------------------------------------------------------
 Center     Atomic      Atomic             Coordinates (Angstroms)
 Number     Number       Type             X           Y           Z
 ---------------------------------------------------------------------
      1          6           0       -2.444238    1.178113    0.377242
      2          6           0       -2.024383    2.534712   -0.189632
      3          6           0       -1.417826    3.455803    0.869365
      4          1           0       -3.169317    1.334984    1.187550
      5          1           0       -1.569553    0.691311    0.830391
      6          1           0       -2.899305    3.018207   -0.642801
      7          1           0       -1.300365    2.374585   -0.998812
      8          1           0       -0.528896    2.997657    1.314906
      9          1           0       -2.136920    3.644936    1.672940
     10          1           0       -1.124745    4.420028    0.442475
     11          6           0       -3.052401    0.246177   -0.669353
     12          6           0       -3.472256   -1.110422   -0.102478
     13          6           0       -4.078813   -2.031513   -1.161475
     14          1           0       -3.927086    0.732980   -1.122501
     15          1           0       -2.327322    0.089307   -1.479660
     16          1           0       -4.196274   -0.950295    0.706702
     17          1           0       -2.597335   -1.593916    0.350691
     18          1           0       -3.359719   -2.220646   -1.965050
     19          1           0       -4.967743   -1.573367   -1.607016
     20          1           0       -4.371894   -2.995737   -0.734585
     21          6           0        2.230415   -1.266686    0.058357
     22          6           0        1.317513   -1.441314    1.272483
     23          6           0        0.286763   -2.554420    1.081849
     24          1           0        1.615898   -1.051695   -0.826568
     25          1           0        2.746917   -2.215457   -0.142774
     26          1           0        0.803931   -0.492103    1.472105
     27          1           0        1.934288   -1.655725    2.154657
     28          1           0        0.783918   -3.513700    0.905156
     29          1           0       -0.352862   -2.343467    0.218726
     30          1           0       -0.355274   -2.662026    1.961661
     31          6           0        3.266224   -0.157604    0.233753
     32          6           0        4.179126    0.017023   -0.980373
     33          6           0        5.209877    1.130130   -0.789738
     34          1           0        2.749722    0.791167    0.434884
     35          1           0        3.880742   -0.372595    1.118678
     36          1           0        3.562351    0.231433   -1.862547
     37          1           0        4.692708   -0.932187   -1.179995
     38          1           0        5.849500    0.919177    0.073385
     39          1           0        4.712721    2.089409   -0.613047
     40          1           0        5.851913    1.237736   -1.669551
 ---------------------------------------------------------------------

 SCF Done:  E(RHF) =  -470.733063764     A.U. after   11 cycles
 E2 =    -0.1583694107D+01 EUMP2 =    -0.47231675787106D+03

 The electronic state is 1-A.
 Alpha  occ. eigenvalues --  -11.21694 -11.21646 -11.21634 -11.21515 -11.21475
 Alpha  occ. eigenvalues --  -11.21416 -11.21413 -11.21354 -11.21150 -11.21111
 Alpha  occ. eigenvalues --  -11.21101 -11.21042  -1.08506  -1.08429  -1.03604
 Alpha  occ. eigenvalues --   -1.03524  -0.96049  -0.95983  -0.87081  -0.86986
 Alpha  occ. eigenvalues --   -0.79710  -0.79545  -0.78311  -0.78250  -0.65303
 Alpha  occ. eigenvalues --   -0.64930  -0.61096  -0.60846  -0.59419  -0.59345
 Alpha  occ. eigenvalues --   -0.57662  -0.57584  -0.55349  -0.55274  -0.52752
 Alpha  occ. eigenvalues --   -0.52666  -0.52472  -0.52406  -0.50145  -0.49814
 Alpha  occ. eigenvalues --   -0.47996  -0.47910  -0.46884  -0.46401  -0.45962
 Alpha  occ. eigenvalues --   -0.45775  -0.45746  -0.45549  -0.43847  -0.43782
 Alpha virt. eigenvalues --    0.19473   0.22916   0.23784   0.24337   0.25944
 Alpha virt. eigenvalues --    0.26677   0.27482   0.27647   0.28069   0.29431
 Alpha virt. eigenvalues --    0.30956   0.31398   0.31695   0.31755   0.32486

 Mulliken charges:
               1
     1  C   -0.303621
     2  C   -0.299386
     3  C   -0.475736
     4  H    0.149988
     5  H    0.154051
     6  H    0.152274
     7  H    0.151352
     8  H    0.154442
     9  H    0.155547
    10  H    0.160395
    11  C   -0.297715
    12  C   -0.308106
    13  C   -0.475456
    14  H    0.149708
    15  H    0.148410
    16  H    0.151615
    17  H    0.161177
    18  H    0.154491
    19  H    0.155049
    20  H    0.160445
    21  C   -0.298422
    22  C   -0.303716
    23  C   -0.479897
    24  H    0.149372
    25  H    0.149990
    26  H    0.154397
    27  H    0.152812
    28  H    0.156007
    29  H    0.158888
    30  H    0.161168
    31  C   -0.298377
    32  C   -0.299690
    33  C   -0.475795
    34  H    0.149309
    35  H    0.149967
    36  H    0.151903
    37  H    0.152072
    38  H    0.155284
    39  H    0.155390
    40  H    0.160414
 Sum of Mulliken charges =  -0.00000

 Dipole moment (field-independent basis, Debye):
    X=              0.0295    Y=             -0.0249    Z=              0.0233  Tot=              0.0451
 Quadrupole moment (field-independent basis, Debye-Ang):
   XX=            -84.3276   YY=            -85.3252   ZZ=            -85.0197
   XY=             -1.8113   XZ=             -0.2657   YZ=             -0.7318

 Normal termination of Gaussian 16 at Thu May  6 02:26:08 2021.
