 Gaussian 16, Revision A.03,
 Gaussian 16:  EM64L-G16RevA.03 25-Dec-2016

 -------------
 #p 6-31g* mp2
 -------------

 ------------------------------------------------------
 Input file generated by CHIRIPA (05-May-2021 14:55:21)
 ------------------------------------------------------
 Symbolic Z-matrix:
 Charge =  0 Multiplicity = 1

                         Standard orientation:
 ---------------------------------------------------------------------
 Center     Atomic      Atomic             Coordinates (Angstroms)
 Number     Number       Type             X           Y           Z
 ---------------------------------------------------------------------
      1          6           0       -1.631673    2.205955   -0.059880
      2          6           0       -2.032363    1.555738   -1.231710
      3          6           0       -2.909516    0.468516   -1.176016
      4          6           0       -3.368542    0.056151    0.074000
      5          6           0       -2.987694    0.683337    1.259278
      6          6           0       -2.109775    1.768451    1.179689
      7          1           0       -0.949982    3.049716   -0.112426
      8          1           0       -1.662666    1.893333   -2.195763
      9          1           0       -3.235926   -0.053074   -2.067542
     10          1           0       -3.373105    0.323873    2.205672
     11          1           0       -1.800292    2.271509    2.091389
     12          7           0       -4.297550   -1.093725    0.145609
     13          8           0       -4.687702   -1.437658    1.259220
     14          8           0       -4.617962   -1.629293   -0.913230
     15          6           0        4.722296   -0.390874    0.378309
     16          6           0        6.046465   -0.053798   -0.307945
     17          6           0        7.250634   -0.211445    0.620989
     18          1           0        4.596700    0.256660    1.256870
     19          1           0        4.764216   -1.422652    0.753906
     20          1           0        6.001546    0.976575   -0.683351
     21          1           0        6.168834   -0.702079   -1.185085
     22          1           0        7.323557   -1.241103    0.985801
     23          1           0        7.155319    0.447088    1.490385
     24          1           0        8.186742    0.034554    0.110062
     25          6           0        3.509204   -0.238029   -0.537536
     26          6           0        2.185036   -0.575105    0.148718
     27          6           0        0.980866   -0.417457   -0.780216
     28          1           0        3.467284    0.793749   -0.913133
     29          1           0        3.634801   -0.885562   -1.416097
     30          1           0        2.062667    0.073176    1.025858
     31          1           0        2.229954   -1.605477    0.524124
     32          1           0        1.076181   -1.075991   -1.649612
     33          1           0        0.907944    0.612201   -1.145027
     34          1           0        0.044759   -0.663457   -0.269289
 ---------------------------------------------------------------------

 SCF Done:  E(RHF) =  -669.534586241     A.U. after   15 cycles
 E2 =    -0.2092691755D+01 EUMP2 =    -0.67162727799575D+03

 The electronic state is 1-A.
 Alpha  occ. eigenvalues --  -20.60782 -20.60777 -15.85836 -11.31219 -11.27783
 Alpha  occ. eigenvalues --  -11.27743 -11.27489 -11.26795 -11.26748 -11.21888
 Alpha  occ. eigenvalues --  -11.21872 -11.21718 -11.21648 -11.21306 -11.21286
 Alpha  occ. eigenvalues --   -1.59858  -1.39410  -1.19382  -1.08784  -1.08715
 Alpha  occ. eigenvalues --   -1.04780  -1.03800  -0.96250  -0.95606  -0.87272
 Alpha  occ. eigenvalues --   -0.86175  -0.82435  -0.79872  -0.78544  -0.77483
 Alpha  occ. eigenvalues --   -0.72052  -0.71183  -0.70483  -0.65365  -0.65028
 Alpha  occ. eigenvalues --   -0.64781  -0.62125  -0.61216  -0.59635  -0.57864
 Alpha  occ. eigenvalues --   -0.55597  -0.55279  -0.53570  -0.52874  -0.52681
 Alpha  occ. eigenvalues --   -0.52408  -0.50181  -0.48813  -0.48807  -0.48187
 Alpha  occ. eigenvalues --   -0.46915  -0.46084  -0.46017  -0.44813  -0.44039
 Alpha  occ. eigenvalues --   -0.37305  -0.36338
 Alpha virt. eigenvalues --    0.05030   0.11228   0.16493   0.21107   0.22620
 Alpha virt. eigenvalues --    0.24067   0.26266   0.26772   0.27330   0.27871
 Alpha virt. eigenvalues --    0.28366   0.30913   0.31187   0.31421   0.31669

 Mulliken charges:
               1
     1  C   -0.168710
     2  C   -0.213061
     3  C   -0.172149
     4  C    0.158088
     5  C   -0.172093
     6  C   -0.218658
     7  H    0.225062
     8  H    0.223548
     9  H    0.275777
    10  H    0.275736
    11  H    0.223430
    12  N    0.488053
    13  O   -0.460428
    14  O   -0.460149
    15  C   -0.298172
    16  C   -0.299648
    17  C   -0.475789
    18  H    0.148402
    19  H    0.151134
    20  H    0.150719
    21  H    0.152704
    22  H    0.156143
    23  H    0.154784
    24  H    0.160753
    25  C   -0.297951
    26  C   -0.300206
    27  C   -0.474127
    28  H    0.145847
    29  H    0.150841
    30  H    0.148403
    31  H    0.154539
    32  H    0.154336
    33  H    0.145626
    34  H    0.167215
 Sum of Mulliken charges =  -0.00000

 Dipole moment (field-independent basis, Debye):
    X=              3.2447    Y=              4.0310    Z=             -0.2537  Tot=              5.1809
 Quadrupole moment (field-independent basis, Debye-Ang):
   XX=           -118.5964   YY=            -93.9879   ZZ=            -90.0855
   XY=            -13.7401   XZ=              0.4443   YZ=              1.1244

 Normal termination of Gaussian 16 at Thu May  6 04:34:59 2021.
