 Gaussian 16, Revision A.03,
 Gaussian 16:  EM64L-G16RevA.03 25-Dec-2016

 -------------
 #p 6-31g* mp2
 -------------

 ------------------------------------------------------
 Input file generated by CHIRIPA (05-May-2021 14:53:17)
 ------------------------------------------------------
 Symbolic Z-matrix:
 Charge =  0 Multiplicity = 1

                         Standard orientation:
 ---------------------------------------------------------------------
 Center     Atomic      Atomic             Coordinates (Angstroms)
 Number     Number       Type             X           Y           Z
 ---------------------------------------------------------------------
      1          6           0        3.035220   -0.686899   -0.263979
      2          6           0        2.290924   -1.492231    0.801595
      3          6           0        0.862010   -1.843607    0.386222
      4          1           0        2.476010    0.234901   -0.474966
      5          1           0        3.055384   -1.261513   -1.200358
      6          1           0        2.273374   -0.916861    1.736077
      7          1           0        2.852070   -2.412129    1.010209
      8          1           0        0.863262   -2.438717   -0.532714
      9          1           0        0.281277   -0.934954    0.197279
     10          1           0        0.348325   -2.419255    1.162506
     11          6           0        4.465051   -0.328019    0.136668
     12          6           0        5.209347    0.477313   -0.928906
     13          6           0        6.638261    0.828689   -0.513533
     14          1           0        4.444887    0.246595    1.073047
     15          1           0        5.024260   -1.249819    0.347655
     16          1           0        4.648201    1.397211   -1.137519
     17          1           0        5.226897   -0.098057   -1.863388
     18          1           0        7.218993   -0.079964   -0.324590
     19          1           0        6.637009    1.423799    0.405403
     20          1           0        7.151946    1.404337   -1.289817
     21          6           0       -1.421437    2.209534    0.946123
     22          6           0       -1.408537    0.937322    1.527355
     23          6           0       -2.240020   -0.074901    1.038901
     24          6           0       -3.075616    0.221171   -0.036929
     25          6           0       -3.111323    1.478728   -0.637399
     26          6           0       -2.271291    2.475707   -0.132496
     27          1           0       -0.772201    2.989933    1.331955
     28          1           0       -0.749559    0.727753    2.365134
     29          1           0       -2.250199   -1.068610    1.470013
     30          1           0       -3.779076    1.657545   -1.471394
     31          1           0       -2.283423    3.462801   -0.585866
     32          7           0       -3.960395   -0.842357   -0.562740
     33          8           0       -4.687394   -0.556112   -1.511514
     34          8           0       -3.910131   -1.942056   -0.016139
 ---------------------------------------------------------------------

 SCF Done:  E(RHF) =  -669.534098135     A.U. after   15 cycles
 E2 =    -0.2092835727D+01 EUMP2 =    -0.67162693386199D+03

 The electronic state is 1-A.
 Alpha  occ. eigenvalues --  -20.60764 -20.60759 -15.85819 -11.31201 -11.27784
 Alpha  occ. eigenvalues --  -11.27764 -11.27545 -11.26799 -11.26778 -11.21983
 Alpha  occ. eigenvalues --  -11.21924 -11.21755 -11.21696 -11.21366 -11.21239
 Alpha  occ. eigenvalues --   -1.59839  -1.39391  -1.19402  -1.08791  -1.08768
 Alpha  occ. eigenvalues --   -1.04821  -1.03849  -0.96300  -0.95611  -0.87317
 Alpha  occ. eigenvalues --   -0.86194  -0.82447  -0.79926  -0.78588  -0.77481
 Alpha  occ. eigenvalues --   -0.72037  -0.71163  -0.70501  -0.65425  -0.65044
 Alpha  occ. eigenvalues --   -0.64796  -0.62176  -0.61254  -0.59665  -0.57916
 Alpha  occ. eigenvalues --   -0.55670  -0.55299  -0.53316  -0.53017  -0.52817
 Alpha  occ. eigenvalues --   -0.52576  -0.50182  -0.48798  -0.48789  -0.48225
 Alpha  occ. eigenvalues --   -0.46958  -0.46122  -0.46062  -0.44790  -0.44118
 Alpha  occ. eigenvalues --   -0.37395  -0.36278
 Alpha virt. eigenvalues --    0.05051   0.11171   0.16477   0.20675   0.22669
 Alpha virt. eigenvalues --    0.23982   0.26189   0.26493   0.27168   0.27949
 Alpha virt. eigenvalues --    0.28769   0.29859   0.31306   0.31469   0.31806

 Mulliken charges:
               1
     1  C   -0.298322
     2  C   -0.298742
     3  C   -0.485392
     4  H    0.147730
     5  H    0.152467
     6  H    0.144044
     7  H    0.154315
     8  H    0.160577
     9  H    0.163487
    10  H    0.155718
    11  C   -0.298136
    12  C   -0.299592
    13  C   -0.475760
    14  H    0.146988
    15  H    0.151194
    16  H    0.150305
    17  H    0.153572
    18  H    0.156251
    19  H    0.154231
    20  H    0.160957
    21  C   -0.171354
    22  C   -0.220146
    23  C   -0.169761
    24  C    0.159423
    25  C   -0.171017
    26  C   -0.218805
    27  H    0.225625
    28  H    0.225187
    29  H    0.277954
    30  H    0.275790
    31  H    0.223521
    32  N    0.488278
    33  O   -0.460537
    34  O   -0.460052
 Sum of Mulliken charges =  -0.00000

 Dipole moment (field-independent basis, Debye):
    X=              3.1026    Y=              3.7251    Z=              1.7867  Tot=              5.1667
 Quadrupole moment (field-independent basis, Debye-Ang):
   XX=           -114.9115   YY=            -90.7860   ZZ=            -92.8893
   XY=            -12.8962   XZ=             -4.9475   YZ=             -1.8020

 Normal termination of Gaussian 16 at Thu May  6 10:41:50 2021.
