 Gaussian 16, Revision A.03,
 Gaussian 16:  EM64L-G16RevA.03 25-Dec-2016

 -------------
 #p 6-31g* mp2
 -------------

 ------------------------------------------------------
 Input file generated by CHIRIPA (05-May-2021 14:57:21)
 ------------------------------------------------------
 Symbolic Z-matrix:
 Charge =  0 Multiplicity = 1

                         Standard orientation:
 ---------------------------------------------------------------------
 Center     Atomic      Atomic             Coordinates (Angstroms)
 Number     Number       Type             X           Y           Z
 ---------------------------------------------------------------------
      1          6           0        2.155736   -2.189893    0.592001
      2          6           0        1.612379   -1.217443   -0.253945
      3          6           0        2.322901   -0.047827   -0.539786
      4          6           0        3.579763    0.117452    0.040101
      5          6           0        4.148029   -0.833000    0.886863
      6          6           0        3.419598   -1.994912    1.158706
      7          1           0        1.596829   -3.095486    0.808612
      8          1           0        0.631064   -1.366187   -0.695467
      9          1           0        1.925992    0.721269   -1.191226
     10          1           0        5.128547   -0.656476    1.312117
     11          1           0        3.844065   -2.748425    1.816041
     12          7           0        4.341440    1.351594   -0.255097
     13          8           0        5.446800    1.473356    0.268345
     14          8           0        3.818661    2.173784   -1.004324
     15          6           0       -4.174012    2.248579    0.993314
     16          6           0       -4.515626    1.025153    1.579020
     17          6           0       -4.122170   -0.179305    0.988241
     18          6           0       -3.384644   -0.123126   -0.193363
     19          6           0       -3.028822    1.079906   -0.801143
     20          6           0       -3.433007    2.272009   -0.192807
     21          1           0       -4.483826    3.179432    1.459065
     22          1           0       -5.091031    1.003920    2.500163
     23          1           0       -4.372991   -1.140467    1.420299
     24          1           0       -2.454493    1.069073   -1.719537
     25          1           0       -3.166275    3.220667   -0.649914
     26          7           0       -2.962430   -1.391692   -0.828088
     27          8           0       -2.313291   -1.315181   -1.868954
     28          8           0       -3.288632   -2.438484   -0.272700
 ---------------------------------------------------------------------

 SCF Done:  E(RHF) =  -868.340057038     A.U. after   16 cycles
 E2 =    -0.2598506299D+01 EUMP2 =    -0.87093856333731D+03

 The electronic state is 1-A.
 Alpha  occ. eigenvalues --  -20.61753 -20.61729 -20.60516 -20.60508 -15.86753
 Alpha  occ. eigenvalues --  -15.85560 -11.31827 -11.30780 -11.28357 -11.28351
 Alpha  occ. eigenvalues --  -11.28016 -11.27336 -11.27294 -11.27291 -11.27274
 Alpha  occ. eigenvalues --  -11.26957 -11.26321 -11.26143  -1.60809  -1.59592
 Alpha  occ. eigenvalues --   -1.40367  -1.39150  -1.19967  -1.18916  -1.09412
 Alpha  occ. eigenvalues --   -1.08326  -1.05320  -1.04287  -0.96294  -0.95195
 Alpha  occ. eigenvalues --   -0.86731  -0.85681  -0.83133  -0.82026  -0.78223
 Alpha  occ. eigenvalues --   -0.77105  -0.72968  -0.72122  -0.71782  -0.71060
 Alpha  occ. eigenvalues --   -0.70913  -0.70003  -0.65616  -0.65309  -0.64556
 Alpha  occ. eigenvalues --   -0.64247  -0.62671  -0.61627  -0.55816  -0.54754
 Alpha  occ. eigenvalues --   -0.53668  -0.53401  -0.52640  -0.52349  -0.49752
 Alpha  occ. eigenvalues --   -0.49705  -0.48547  -0.48523  -0.45814  -0.44589
 Alpha  occ. eigenvalues --   -0.37922  -0.36910  -0.36878  -0.35897
 Alpha virt. eigenvalues --    0.04253   0.05405   0.10741   0.11760   0.15798
 Alpha virt. eigenvalues --    0.16952   0.20894   0.22015   0.26788   0.27369
 Alpha virt. eigenvalues --    0.28231   0.28841   0.30549   0.31500   0.32218

 Mulliken charges:
               1
     1  C   -0.172049
     2  C   -0.226106
     3  C   -0.172890
     4  C    0.158272
     5  C   -0.172475
     6  C   -0.218730
     7  H    0.229815
     8  H    0.238336
     9  H    0.272375
    10  H    0.273642
    11  H    0.222042
    12  N    0.488209
    13  O   -0.461634
    14  O   -0.462997
    15  C   -0.169527
    16  C   -0.218270
    17  C   -0.170879
    18  C    0.156916
    19  C   -0.172435
    20  C   -0.217773
    21  H    0.228846
    22  H    0.225516
    23  H    0.275613
    24  H    0.274845
    25  H    0.227538
    26  N    0.486548
    27  O   -0.464881
    28  O   -0.457867
 Sum of Mulliken charges =  -0.00000

 Dipole moment (field-independent basis, Debye):
    X=             -4.5349    Y=              0.1433    Z=              3.3429  Tot=              5.6357
 Quadrupole moment (field-independent basis, Debye-Ang):
   XX=           -111.1072   YY=           -105.6873   ZZ=           -102.1383
   XY=            -31.7340   XZ=             -3.4716   YZ=             -4.3861

 Normal termination of Gaussian 16 at Thu May  6 12:51:37 2021.
