 Gaussian 16, Revision A.03,
 Gaussian 16:  EM64L-G16RevA.03 25-Dec-2016

 -------------
 #p 6-31g* mp2
 -------------

 ------------------------------------------------------
 Input file generated by CHIRIPA (05-May-2021 14:55:25)
 ------------------------------------------------------
 Symbolic Z-matrix:
 Charge =  0 Multiplicity = 1

                         Standard orientation:
 ---------------------------------------------------------------------
 Center     Atomic      Atomic             Coordinates (Angstroms)
 Number     Number       Type             X           Y           Z
 ---------------------------------------------------------------------
      1          6           0       -0.535772   -1.941774    0.949061
      2          6           0       -0.890980   -0.771586    1.628037
      3          6           0       -1.963119    0.008692    1.185057
      4          6           0       -2.661390   -0.412768    0.054535
      5          6           0       -2.331805   -1.573588   -0.643433
      6          6           0       -1.256048   -2.338341   -0.182512
      7          1           0        0.298497   -2.541883    1.300147
      8          1           0       -0.333394   -0.461170    2.507119
      9          1           0       -2.259567    0.919083    1.691737
     10          1           0       -2.906500   -1.857347   -1.516717
     11          1           0       -0.982438   -3.246656   -0.711801
     12          7           0       -3.798331    0.405060   -0.423924
     13          8           0       -4.397581    0.012072   -1.422472
     14          8           0       -4.068687    1.423575    0.208666
     15          6           0        2.506562    0.952104   -0.461413
     16          6           0        1.769107    1.924106    0.460192
     17          6           0        0.450204    2.417894   -0.135177
     18          1           0        2.698914    1.444393   -1.424532
     19          1           0        1.854858    0.093330   -0.673984
     20          1           0        2.422525    2.780124    0.672075
     21          1           0        1.578657    1.429510    1.421295
     22          1           0       -0.223070    1.576966   -0.330478
     23          1           0        0.625592    2.935254   -1.083955
     24          1           0       -0.060368    3.111520    0.540144
     25          6           0        3.826900    0.449639    0.119932
     26          6           0        4.564356   -0.522363   -0.801674
     27          6           0        5.883258   -1.016151   -0.206305
     28          1           0        4.478605    1.308412    0.332503
     29          1           0        3.634548   -0.042650    1.083050
     30          1           0        4.754806   -0.027767   -1.762777
     31          1           0        3.910938   -1.378381   -1.013557
     32          1           0        5.707871   -1.533510    0.742473
     33          1           0        6.556533   -0.175224   -0.011004
     34          1           0        6.393830   -1.709777   -0.881626
 ---------------------------------------------------------------------

 SCF Done:  E(RHF) =  -669.534579482     A.U. after   15 cycles
 E2 =    -0.2094053320D+01 EUMP2 =    -0.67162863280144D+03

 The electronic state is 1-A.
 Alpha  occ. eigenvalues --  -20.60816 -20.60809 -15.85872 -11.31275 -11.27871
 Alpha  occ. eigenvalues --  -11.27843 -11.27639 -11.26887 -11.26868 -11.22082
 Alpha  occ. eigenvalues --  -11.21944 -11.21854 -11.21706 -11.21530 -11.21098
 Alpha  occ. eigenvalues --   -1.59890  -1.39442  -1.19486  -1.08873  -1.08816
 Alpha  occ. eigenvalues --   -1.04895  -1.03881  -0.96323  -0.95681  -0.87335
 Alpha  occ. eigenvalues --   -0.86271  -0.82509  -0.79963  -0.78645  -0.77547
 Alpha  occ. eigenvalues --   -0.72088  -0.71219  -0.70578  -0.65497  -0.65123
 Alpha  occ. eigenvalues --   -0.64866  -0.62241  -0.61318  -0.59691  -0.57939
 Alpha  occ. eigenvalues --   -0.55709  -0.55371  -0.53251  -0.53024  -0.52938
 Alpha  occ. eigenvalues --   -0.52660  -0.50234  -0.48852  -0.48839  -0.48256
 Alpha  occ. eigenvalues --   -0.47005  -0.46184  -0.46090  -0.44833  -0.44146
 Alpha  occ. eigenvalues --   -0.37447  -0.36403
 Alpha virt. eigenvalues --    0.04971   0.11103   0.16375   0.20376   0.22786
 Alpha virt. eigenvalues --    0.23907   0.25691   0.26435   0.27151   0.28199
 Alpha virt. eigenvalues --    0.28756   0.29873   0.31106   0.31532   0.31897

 Mulliken charges:
               1
     1  C   -0.171483
     2  C   -0.214850
     3  C   -0.174037
     4  C    0.160435
     5  C   -0.171049
     6  C   -0.219043
     7  H    0.226326
     8  H    0.224573
     9  H    0.277043
    10  H    0.276306
    11  H    0.224119
    12  N    0.488320
    13  O   -0.460362
    14  O   -0.459787
    15  C   -0.300612
    16  C   -0.297279
    17  C   -0.481760
    18  H    0.152092
    19  H    0.150029
    20  H    0.153250
    21  H    0.141344
    22  H    0.162599
    23  H    0.157603
    24  H    0.159643
    25  C   -0.297419
    26  C   -0.299142
    27  C   -0.475578
    28  H    0.151522
    29  H    0.143511
    30  H    0.154444
    31  H    0.148153
    32  H    0.152972
    33  H    0.156987
    34  H    0.161131
 Sum of Mulliken charges =  -0.00000

 Dipole moment (field-independent basis, Debye):
    X=              3.9281    Y=             -2.8746    Z=              1.6260  Tot=              5.1320
 Quadrupole moment (field-independent basis, Debye-Ang):
   XX=           -117.3578   YY=            -90.2235   ZZ=            -92.0375
   XY=              7.4815   XZ=             -4.3705   YZ=              1.6197

 Normal termination of Gaussian 16 at Wed May  5 22:27:35 2021.
