 Gaussian 16, Revision A.03,
 Gaussian 16:  EM64L-G16RevA.03 25-Dec-2016

 -------------
 #p 6-31g* mp2
 -------------

 ------------------------------------------------------
 Input file generated by CHIRIPA (05-May-2021 14:53:14)
 ------------------------------------------------------
 Symbolic Z-matrix:
 Charge =  0 Multiplicity = 1

                         Standard orientation:
 ---------------------------------------------------------------------
 Center     Atomic      Atomic             Coordinates (Angstroms)
 Number     Number       Type             X           Y           Z
 ---------------------------------------------------------------------
      1          6           0       -2.852632   -0.539546    0.323070
      2          6           0       -2.833714   -1.776761   -0.575221
      3          6           0       -2.303951   -3.019347    0.141106
      4          1           0       -1.835944   -0.346429    0.691845
      5          1           0       -3.471753   -0.746237    1.207017
      6          1           0       -2.215938   -1.567321   -1.457889
      7          1           0       -3.850531   -1.966842   -0.942054
      8          1           0       -2.924295   -3.256030    1.011598
      9          1           0       -1.280414   -2.854238    0.492832
     10          1           0       -2.299087   -3.892034   -0.519390
     11          6           0       -3.379729    0.710738   -0.378847
     12          6           0       -3.398648    1.947953    0.519444
     13          6           0       -3.928411    3.190539   -0.196883
     14          1           0       -2.760608    0.917429   -1.262794
     15          1           0       -4.396418    0.517621   -0.747622
     16          1           0       -2.381830    2.138034    0.886277
     17          1           0       -4.016424    1.738512    1.402112
     18          1           0       -4.951948    3.025430   -0.548609
     19          1           0       -3.308067    3.427222   -1.067375
     20          1           0       -3.933275    4.063226    0.463613
     21          6           0        3.530248    2.202397   -0.103579
     22          6           0        3.136804    1.682446    1.133909
     23          6           0        2.528789    0.426165    1.215291
     24          6           0        2.328585   -0.286257    0.033908
     25          6           0        2.709452    0.204726   -1.213957
     26          6           0        3.315695    1.463180   -1.271503
     27          1           0        4.001881    3.179150   -0.157539
     28          1           0        3.302176    2.254304    2.042576
     29          1           0        2.214378   -0.000238    2.160141
     30          1           0        2.531386   -0.388796   -2.102463
     31          1           0        3.620219    1.864478   -2.233932
     32          7           0        1.685845   -1.617375    0.107446
     33          8           0        1.520622   -2.225208   -0.947959
     34          8           0        1.359459   -2.027669    1.219097
 ---------------------------------------------------------------------

 SCF Done:  E(RHF) =  -669.536716996     A.U. after   15 cycles
 E2 =    -0.2091979215D+01 EUMP2 =    -0.67162869621030D+03

 The electronic state is 1-A.
 Alpha  occ. eigenvalues --  -20.61088 -20.61075 -15.86084 -11.31375 -11.27926
 Alpha  occ. eigenvalues --  -11.27923 -11.27655 -11.26921 -11.26912 -11.21340
 Alpha  occ. eigenvalues --  -11.20931 -11.20925 -11.20668 -11.20550 -11.19475
 Alpha  occ. eigenvalues --   -1.60125  -1.39680  -1.19534  -1.08945  -1.07819
 Alpha  occ. eigenvalues --   -1.04921  -1.02806  -0.95792  -0.95233  -0.86324
 Alpha  occ. eigenvalues --   -0.86249  -0.82625  -0.78931  -0.77686  -0.77565
 Alpha  occ. eigenvalues --   -0.72290  -0.71444  -0.70639  -0.65186  -0.64923
 Alpha  occ. eigenvalues --   -0.64460  -0.62267  -0.60198  -0.58705  -0.56833
 Alpha  occ. eigenvalues --   -0.55431  -0.54517  -0.53254  -0.53011  -0.51922
 Alpha  occ. eigenvalues --   -0.51660  -0.49394  -0.49059  -0.48851  -0.47195
 Alpha  occ. eigenvalues --   -0.45979  -0.45268  -0.45081  -0.44800  -0.43079
 Alpha  occ. eigenvalues --   -0.37508  -0.36520
 Alpha virt. eigenvalues --    0.04800   0.11131   0.16298   0.21273   0.23331
 Alpha virt. eigenvalues --    0.25058   0.27109   0.27213   0.27973   0.28220
 Alpha virt. eigenvalues --    0.28914   0.30841   0.32173   0.32208   0.32456

 Mulliken charges:
               1
     1  C   -0.297162
     2  C   -0.299890
     3  C   -0.484397
     4  H    0.147548
     5  H    0.148442
     6  H    0.152306
     7  H    0.146523
     8  H    0.147133
     9  H    0.181832
    10  H    0.158105
    11  C   -0.297400
    12  C   -0.298542
    13  C   -0.475055
    14  H    0.146989
    15  H    0.149044
    16  H    0.148813
    17  H    0.151969
    18  H    0.155577
    19  H    0.153225
    20  H    0.157908
    21  C   -0.170345
    22  C   -0.218581
    23  C   -0.170971
    24  C    0.159280
    25  C   -0.170886
    26  C   -0.218625
    27  H    0.226407
    28  H    0.224271
    29  H    0.276310
    30  H    0.276031
    31  H    0.224169
    32  N    0.487702
    33  O   -0.458247
    34  O   -0.459483
 Sum of Mulliken charges =  -0.00000

 Dipole moment (field-independent basis, Debye):
    X=              2.5707    Y=              4.6134    Z=             -0.2449  Tot=              5.2869
 Quadrupole moment (field-independent basis, Debye-Ang):
   XX=            -84.7823   YY=            -99.0863   ZZ=            -89.9034
   XY=             11.0492   XZ=             -1.4522   YZ=              1.0409

 Normal termination of Gaussian 16 at Thu May  6 13:47:55 2021.
