 Gaussian 16, Revision A.03,
 Gaussian 16:  EM64L-G16RevA.03 25-Dec-2016

 -------------
 #p 6-31g* mp2
 -------------

 ------------------------------------------------------
 Input file generated by CHIRIPA (05-May-2021 14:51:12)
 ------------------------------------------------------
 Symbolic Z-matrix:
 Charge =  0 Multiplicity = 1

                         Standard orientation:
 ---------------------------------------------------------------------
 Center     Atomic      Atomic             Coordinates (Angstroms)
 Number     Number       Type             X           Y           Z
 ---------------------------------------------------------------------
      1          6           0       -3.690350   -0.568630    0.482658
      2          6           0       -2.353931   -0.781437   -0.229157
      3          6           0       -1.254026   -1.272161    0.712752
      4          1           0       -3.553342    0.155470    1.297430
      5          1           0       -4.002154   -1.511972    0.951996
      6          1           0       -2.045420    0.161672   -0.698181
      7          1           0       -2.494179   -1.504970   -1.042451
      8          1           0       -1.536406   -2.225404    1.171216
      9          1           0       -1.085098   -0.549293    1.517442
     10          1           0       -0.307341   -1.417668    0.183153
     11          6           0       -4.799891   -0.078091   -0.445792
     12          6           0       -6.136310    0.134716    0.266023
     13          6           0       -7.236215    0.625440   -0.675886
     14          1           0       -4.488087    0.865251   -0.915130
     15          1           0       -4.936899   -0.802191   -1.260564
     16          1           0       -5.996063    0.858249    1.079316
     17          1           0       -6.444821   -0.808393    0.735047
     18          1           0       -7.405143   -0.097428   -1.480576
     19          1           0       -6.953835    1.578683   -1.134351
     20          1           0       -8.182901    0.770947   -0.146287
     21          6           0        3.731603    0.816537    0.258167
     22          6           0        2.288581    0.446244   -0.086150
     23          6           0        1.272887    1.442358    0.474132
     24          1           0        3.837726    0.875599    1.350045
     25          1           0        3.948091    1.820798   -0.131692
     26          1           0        2.075312   -0.557581    0.303039
     27          1           0        2.185928    0.387869   -1.177329
     28          1           0        1.457443    2.445546    0.076446
     29          1           0        1.346198    1.494724    1.565225
     30          1           0        0.247833    1.158451    0.216217
     31          6           0        4.758639   -0.169817   -0.295034
     32          6           0        6.201660    0.200477    0.049284
     33          6           0        7.217355   -0.795637   -0.510997
     34          1           0        4.542150   -1.174076    0.094826
     35          1           0        4.652515   -0.228878   -1.386910
     36          1           0        6.304313    0.258852    1.140463
     37          1           0        6.414930    1.204302   -0.339904
     38          1           0        7.144043   -0.848003   -1.602090
     39          1           0        7.032798   -1.798825   -0.113312
     40          1           0        8.242410   -0.511731   -0.253084
 ---------------------------------------------------------------------

 SCF Done:  E(RHF) =  -470.732340279     A.U. after   11 cycles
 E2 =    -0.1583493597D+01 EUMP2 =    -0.47231583387614D+03

 The electronic state is 1-A.
 Alpha  occ. eigenvalues --  -11.21625 -11.21601 -11.21588 -11.21567 -11.21408
 Alpha  occ. eigenvalues --  -11.21385 -11.21349 -11.21325 -11.21070 -11.21060
 Alpha  occ. eigenvalues --  -11.21006 -11.20968  -1.08448  -1.08397  -1.03596
 Alpha  occ. eigenvalues --   -1.03447  -0.96083  -0.95851  -0.87064  -0.86902
 Alpha  occ. eigenvalues --   -0.79612  -0.79561  -0.78251  -0.78223  -0.65099
 Alpha  occ. eigenvalues --   -0.65029  -0.61105  -0.60872  -0.59607  -0.59080
 Alpha  occ. eigenvalues --   -0.57775  -0.57336  -0.55372  -0.55125  -0.52736
 Alpha  occ. eigenvalues --   -0.52556  -0.52421  -0.52278  -0.49983  -0.49796
 Alpha  occ. eigenvalues --   -0.47987  -0.47815  -0.46644  -0.46585  -0.45793
 Alpha  occ. eigenvalues --   -0.45764  -0.45713  -0.45689  -0.43807  -0.43692
 Alpha virt. eigenvalues --    0.21367   0.23046   0.23482   0.25344   0.26270
 Alpha virt. eigenvalues --    0.26517   0.26957   0.27410   0.27629   0.29475
 Alpha virt. eigenvalues --    0.29735   0.30846   0.31132   0.31866   0.32548

 Mulliken charges:
               1
     1  C   -0.298138
     2  C   -0.303493
     3  C   -0.483155
     4  H    0.149870
     5  H    0.149714
     6  H    0.153289
     7  H    0.152425
     8  H    0.155580
     9  H    0.157335
    10  H    0.166166
    11  C   -0.298346
    12  C   -0.299668
    13  C   -0.475715
    14  H    0.149590
    15  H    0.149638
    16  H    0.152031
    17  H    0.151920
    18  H    0.155159
    19  H    0.155220
    20  H    0.160265
    21  C   -0.298064
    22  C   -0.302040
    23  C   -0.481436
    24  H    0.149706
    25  H    0.149462
    26  H    0.153999
    27  H    0.151321
    28  H    0.154059
    29  H    0.154148
    30  H    0.169411
    31  C   -0.298344
    32  C   -0.299620
    33  C   -0.475698
    34  H    0.149512
    35  H    0.149519
    36  H    0.151954
    37  H    0.151898
    38  H    0.155132
    39  H    0.155184
    40  H    0.160211
 Sum of Mulliken charges =  -0.00000

 Dipole moment (field-independent basis, Debye):
    X=             -0.0171    Y=             -0.0147    Z=              0.0059  Tot=              0.0233
 Quadrupole moment (field-independent basis, Debye-Ang):
   XX=            -86.3514   YY=            -84.1230   ZZ=            -84.4253
   XY=              1.0947   XZ=             -0.1992   YZ=             -0.2943

 Normal termination of Gaussian 16 at Wed May  5 15:19:05 2021.
