 Gaussian 16, Revision A.03,
 Gaussian 16:  EM64L-G16RevA.03 25-Dec-2016

 -------------
 #p 6-31g* mp2
 -------------

 ------------------------------------------------------
 Input file generated by CHIRIPA (05-May-2021 14:51:10)
 ------------------------------------------------------
 Symbolic Z-matrix:
 Charge =  0 Multiplicity = 1

                         Standard orientation:
 ---------------------------------------------------------------------
 Center     Atomic      Atomic             Coordinates (Angstroms)
 Number     Number       Type             X           Y           Z
 ---------------------------------------------------------------------
      1          6           0        3.136300    0.486822    0.000910
      2          6           0        2.724992    1.957129    0.084630
      3          6           0        3.657411    2.782201    0.972124
      4          1           0        3.154692    0.059620    1.012890
      5          1           0        4.163274    0.421960   -0.384462
      6          1           0        1.698603    2.019133    0.468424
      7          1           0        2.707391    2.380830   -0.927685
      8          1           0        4.682403    2.750111    0.588768
      9          1           0        3.667884    2.386359    1.992811
     10          1           0        3.344948    3.830121    1.017838
     11          6           0        2.213773   -0.350949   -0.882726
     12          6           0        2.625081   -1.821255   -0.966447
     13          6           0        1.692662   -2.646327   -1.853941
     14          1           0        1.186798   -0.286087   -0.497355
     15          1           0        2.195381    0.076254   -1.894707
     16          1           0        2.642682   -2.244956    0.045869
     17          1           0        3.651470   -1.883259   -1.350241
     18          1           0        1.682189   -2.250485   -2.874627
     19          1           0        0.667669   -2.614237   -1.470585
     20          1           0        2.005125   -3.694247   -1.899655
     21          6           0       -2.740209    0.397876   -0.160925
     22          6           0       -4.189636    0.733485   -0.513787
     23          6           0       -4.303650    1.666268   -1.719902
     24          1           0       -2.193611    1.329208    0.041053
     25          1           0       -2.256216   -0.066089   -1.031490
     26          1           0       -4.671151    1.195418    0.357635
     27          1           0       -4.732895   -0.198768   -0.714763
     28          1           0       -3.848491    1.209412   -2.604612
     29          1           0       -3.786397    2.611519   -1.526123
     30          1           0       -5.348301    1.893103   -1.954656
     31          6           0       -2.609865   -0.533749    1.042742
     32          6           0       -1.160437   -0.869358    1.395605
     33          6           0       -1.046422   -1.802142    2.601718
     34          1           0       -3.093856   -0.069785    1.913306
     35          1           0       -3.156462   -1.465082    0.840764
     36          1           0       -0.617178    0.062894    1.596579
     37          1           0       -0.678922   -1.331291    0.524182
     38          1           0       -1.563676   -2.747393    2.407939
     39          1           0       -1.501582   -1.345286    3.486429
     40          1           0       -0.001771   -2.028977    2.836472
 ---------------------------------------------------------------------

 SCF Done:  E(RHF) =  -470.732947819     A.U. after   11 cycles
 E2 =    -0.1583972101D+01 EUMP2 =    -0.47231691992001D+03

 The electronic state is 1-A.
 Alpha  occ. eigenvalues --  -11.21710 -11.21636 -11.21576 -11.21568 -11.21471
 Alpha  occ. eigenvalues --  -11.21407 -11.21332 -11.21222 -11.21166 -11.21090
 Alpha  occ. eigenvalues --  -11.21087 -11.21056  -1.08512  -1.08369  -1.03607
 Alpha  occ. eigenvalues --   -1.03501  -0.96040  -0.95950  -0.87060  -0.86968
 Alpha  occ. eigenvalues --   -0.79715  -0.79546  -0.78414  -0.78087  -0.65177
 Alpha  occ. eigenvalues --   -0.64987  -0.61109  -0.60808  -0.59418  -0.59307
 Alpha  occ. eigenvalues --   -0.57654  -0.57560  -0.55327  -0.55240  -0.52742
 Alpha  occ. eigenvalues --   -0.52655  -0.52473  -0.52375  -0.49986  -0.49904
 Alpha  occ. eigenvalues --   -0.48127  -0.47858  -0.46837  -0.46509  -0.46193
 Alpha  occ. eigenvalues --   -0.45770  -0.45708  -0.45123  -0.43844  -0.43741
 Alpha virt. eigenvalues --    0.20156   0.22706   0.23228   0.24767   0.25157
 Alpha virt. eigenvalues --    0.26285   0.26717   0.27991   0.28331   0.29940
 Alpha virt. eigenvalues --    0.30202   0.31420   0.31684   0.32048   0.32199

 Mulliken charges:
               1
     1  C   -0.297523
     2  C   -0.300540
     3  C   -0.475668
     4  H    0.149086
     5  H    0.149156
     6  H    0.152070
     7  H    0.152050
     8  H    0.155255
     9  H    0.155021
    10  H    0.159983
    11  C   -0.306884
    12  C   -0.299234
    13  C   -0.478495
    14  H    0.160045
    15  H    0.148688
    16  H    0.151563
    17  H    0.151901
    18  H    0.155392
    19  H    0.155962
    20  H    0.160435
    21  C   -0.299266
    22  C   -0.299628
    23  C   -0.475781
    24  H    0.149737
    25  H    0.150099
    26  H    0.152027
    27  H    0.152087
    28  H    0.155488
    29  H    0.155333
    30  H    0.160337
    31  C   -0.297607
    32  C   -0.309130
    33  C   -0.475110
    34  H    0.149834
    35  H    0.149902
    36  H    0.152953
    37  H    0.159138
    38  H    0.155662
    39  H    0.155640
    40  H    0.160023
 Sum of Mulliken charges =  -0.00000

 Dipole moment (field-independent basis, Debye):
    X=             -0.0558    Y=             -0.0039    Z=              0.0109  Tot=              0.0570
 Quadrupole moment (field-independent basis, Debye-Ang):
   XX=            -84.8892   YY=            -85.0923   ZZ=            -84.8345
   XY=             -0.0986   XZ=             -1.0157   YZ=              0.4281

 Normal termination of Gaussian 16 at Wed May  5 21:24:59 2021.
