 Gaussian 16, Revision A.03,
 Gaussian 16:  EM64L-G16RevA.03 25-Dec-2016

 -------------
 #p 6-31g* mp2
 -------------

 ------------------------------------------------------
 Input file generated by CHIRIPA (05-May-2021 14:53:12)
 ------------------------------------------------------
 Symbolic Z-matrix:
 Charge =  0 Multiplicity = 1

                         Standard orientation:
 ---------------------------------------------------------------------
 Center     Atomic      Atomic             Coordinates (Angstroms)
 Number     Number       Type             X           Y           Z
 ---------------------------------------------------------------------
      1          6           0        3.316776   -0.638827    0.593463
      2          6           0        3.402086   -1.846304   -0.340725
      3          6           0        3.498330   -3.172314    0.414409
      4          1           0        4.199097   -0.626526    1.247912
      5          1           0        2.442614   -0.752571    1.249435
      6          1           0        4.275037   -1.729645   -0.995677
      7          1           0        2.519554   -1.855624   -0.993156
      8          1           0        2.622226   -3.315182    1.055215
      9          1           0        4.387684   -3.188487    1.052679
     10          1           0        3.558329   -4.022143   -0.272650
     11          6           0        3.220059    0.694078   -0.146630
     12          6           0        3.134748    1.901554    0.787558
     13          6           0        3.038505    3.227565    0.032424
     14          1           0        4.094220    0.807822   -0.802601
     15          1           0        2.337737    0.681777   -0.801078
     16          1           0        4.017281    1.910875    1.439989
     17          1           0        2.261797    1.784895    1.442511
     18          1           0        2.149150    3.243738   -0.605846
     19          1           0        3.914608    3.370433   -0.608382
     20          1           0        2.978505    4.077393    0.719484
     21          6           0       -4.929427   -0.209679    0.653272
     22          6           0       -4.192810   -1.364892    0.371492
     23          6           0       -2.875550   -1.272635   -0.087705
     24          6           0       -2.323750   -0.003398   -0.254575
     25          6           0       -3.031942    1.166090    0.017550
     26          6           0       -4.347668    1.049905    0.475715
     27          1           0       -5.952110   -0.290640    1.009587
     28          1           0       -4.642039   -2.344421    0.508457
     29          1           0       -2.282593   -2.150619   -0.313454
     30          1           0       -2.557014    2.128615   -0.128764
     31          1           0       -4.917355    1.948771    0.693752
     32          7           0       -0.930038    0.106937   -0.740160
     33          8           0       -0.466793    1.236888   -0.878915
     34          8           0       -0.327281   -0.938623   -0.972810
 ---------------------------------------------------------------------

 SCF Done:  E(RHF) =  -669.537453091     A.U. after   15 cycles
 E2 =    -0.2092985123D+01 EUMP2 =    -0.67163043821340D+03

 The electronic state is 1-A.
 Alpha  occ. eigenvalues --  -20.61332 -20.61327 -15.86304 -11.31499 -11.28036
 Alpha  occ. eigenvalues --  -11.28033 -11.27751 -11.27012 -11.27003 -11.20101
 Alpha  occ. eigenvalues --  -11.19971 -11.19890 -11.19802 -11.19643 -11.19411
 Alpha  occ. eigenvalues --   -1.60348  -1.39909  -1.19647  -1.09078  -1.06778
 Alpha  occ. eigenvalues --   -1.05021  -1.02031  -0.95939  -0.94505  -0.86428
 Alpha  occ. eigenvalues --   -0.85532  -0.82779  -0.78103  -0.77847  -0.76584
 Alpha  occ. eigenvalues --   -0.72518  -0.71644  -0.70754  -0.65304  -0.65028
 Alpha  occ. eigenvalues --   -0.63378  -0.62367  -0.59408  -0.57891  -0.56132
 Alpha  occ. eigenvalues --   -0.55533  -0.53784  -0.53358  -0.53109  -0.51273
 Alpha  occ. eigenvalues --   -0.50955  -0.49343  -0.49295  -0.48406  -0.46441
 Alpha  occ. eigenvalues --   -0.45331  -0.45072  -0.44183  -0.43837  -0.42246
 Alpha  occ. eigenvalues --   -0.37617  -0.36614
 Alpha virt. eigenvalues --    0.04658   0.11044   0.16173   0.21164   0.24536
 Alpha virt. eigenvalues --    0.25652   0.27125   0.27871   0.28380   0.29206
 Alpha virt. eigenvalues --    0.29595   0.30866   0.32136   0.32802   0.33075

 Mulliken charges:
               1
     1  C   -0.292568
     2  C   -0.306548
     3  C   -0.474083
     4  H    0.140651
     5  H    0.145449
     6  H    0.145273
     7  H    0.174389
     8  H    0.151792
     9  H    0.149901
    10  H    0.155303
    11  C   -0.311798
    12  C   -0.293717
    13  C   -0.479119
    14  H    0.140610
    15  H    0.181965
    16  H    0.143611
    17  H    0.147952
    18  H    0.168127
    19  H    0.150093
    20  H    0.151316
    21  C   -0.170062
    22  C   -0.218633
    23  C   -0.170485
    24  C    0.158602
    25  C   -0.170183
    26  C   -0.218634
    27  H    0.226821
    28  H    0.224636
    29  H    0.276278
    30  H    0.276341
    31  H    0.224637
    32  N    0.491634
    33  O   -0.459274
    34  O   -0.460279
 Sum of Mulliken charges =  -0.00000

 Dipole moment (field-independent basis, Debye):
    X=             -5.5322    Y=             -0.3871    Z=              1.4718  Tot=              5.7377
 Quadrupole moment (field-independent basis, Debye-Ang):
   XX=            -73.2045   YY=            -91.7617   ZZ=            -96.8519
   XY=              0.7274   XZ=             -3.6354   YZ=              0.6915

 Normal termination of Gaussian 16 at Wed May  5 20:08:23 2021.
