 Gaussian 16, Revision A.03,
 Gaussian 16:  EM64L-G16RevA.03 25-Dec-2016

 -------------
 #p 6-31g* mp2
 -------------

 ------------------------------------------------------
 Input file generated by CHIRIPA (05-May-2021 14:51:12)
 ------------------------------------------------------
 Symbolic Z-matrix:
 Charge =  0 Multiplicity = 1

                         Standard orientation:
 ---------------------------------------------------------------------
 Center     Atomic      Atomic             Coordinates (Angstroms)
 Number     Number       Type             X           Y           Z
 ---------------------------------------------------------------------
      1          6           0       -2.575073    0.266893    0.720791
      2          6           0       -3.004464   -1.158185    0.370420
      3          6           0       -3.385569   -1.980403    1.601887
      4          1           0       -1.723959    0.226561    1.414276
      5          1           0       -3.392661    0.767095    1.258140
      6          1           0       -2.186827   -1.655094   -0.167324
      7          1           0       -3.854533   -1.114455   -0.322462
      8          1           0       -4.216839   -1.510031    2.136995
      9          1           0       -2.539658   -2.053742    2.293015
     10          1           0       -3.689278   -2.995715    1.328458
     11          6           0       -2.191023    1.101297   -0.499867
     12          6           0       -1.761633    2.526376   -0.149497
     13          6           0       -1.380528    3.348594   -1.380963
     14          1           0       -1.373436    0.601096   -1.037216
     15          1           0       -3.042138    1.141630   -1.193353
     16          1           0       -0.911564    2.482645    0.543386
     17          1           0       -2.579269    3.023284    0.388247
     18          1           0       -2.226438    3.421932   -2.072091
     19          1           0       -0.549257    2.878221   -1.916071
     20          1           0       -1.076819    4.363905   -1.107534
     21          6           0        2.473910    0.053608    0.065522
     22          6           0        3.763044    0.338673    0.836792
     23          6           0        3.930603    1.818813    1.181620
     24          1           0        2.466846    0.649639   -0.857322
     25          1           0        1.615430    0.391459    0.662401
     26          1           0        4.618758   -0.000876    0.239234
     27          1           0        3.767127   -0.258250    1.757813
     28          1           0        3.095972    2.167566    1.798356
     29          1           0        3.952442    2.426402    0.271148
     30          1           0        4.858627    2.000066    1.732781
     31          6           0        2.292187   -1.421798   -0.286446
     32          6           0        1.003053   -1.706864   -1.057715
     33          6           0        0.835493   -3.187003   -1.402544
     34          1           0        3.150667   -1.759650   -0.883324
     35          1           0        2.299251   -2.017829    0.636398
     36          1           0        0.998969   -1.109940   -1.978737
     37          1           0        0.147338   -1.367315   -0.460158
     38          1           0        0.813655   -3.794593   -0.492071
     39          1           0        1.670124   -3.535756   -2.019280
     40          1           0       -0.092531   -3.368255   -1.953705
 ---------------------------------------------------------------------

 SCF Done:  E(RHF) =  -470.732969086     A.U. after   11 cycles
 E2 =    -0.1584447470D+01 EUMP2 =    -0.47231741655557D+03

 The electronic state is 1-A.
 Alpha  occ. eigenvalues --  -11.21672 -11.21666 -11.21584 -11.21561 -11.21493
 Alpha  occ. eigenvalues --  -11.21432 -11.21391 -11.21288 -11.21146 -11.21118
 Alpha  occ. eigenvalues --  -11.21079 -11.21033  -1.08531  -1.08396  -1.03613
 Alpha  occ. eigenvalues --   -1.03504  -0.96051  -0.95959  -0.87066  -0.86976
 Alpha  occ. eigenvalues --   -0.79694  -0.79572  -0.78400  -0.78154  -0.65355
 Alpha  occ. eigenvalues --   -0.64873  -0.61138  -0.60786  -0.59429  -0.59313
 Alpha  occ. eigenvalues --   -0.57661  -0.57569  -0.55345  -0.55246  -0.52744
 Alpha  occ. eigenvalues --   -0.52654  -0.52480  -0.52376  -0.50018  -0.49884
 Alpha  occ. eigenvalues --   -0.48049  -0.47894  -0.46857  -0.46549  -0.46151
 Alpha  occ. eigenvalues --   -0.45818  -0.45690  -0.45226  -0.43856  -0.43759
 Alpha virt. eigenvalues --    0.19691   0.22552   0.23653   0.24379   0.25525
 Alpha virt. eigenvalues --    0.26273   0.26971   0.27608   0.28471   0.30142
 Alpha virt. eigenvalues --    0.31120   0.31396   0.31738   0.31777   0.32186

 Mulliken charges:
               1
     1  C   -0.298821
     2  C   -0.306066
     3  C   -0.475266
     4  H    0.148386
     5  H    0.149974
     6  H    0.157609
     7  H    0.152288
     8  H    0.155307
     9  H    0.154436
    10  H    0.160387
    11  C   -0.303490
    12  C   -0.299814
    13  C   -0.475644
    14  H    0.155669
    15  H    0.149273
    16  H    0.152220
    17  H    0.151540
    18  H    0.154908
    19  H    0.155379
    20  H    0.160124
    21  C   -0.300172
    22  C   -0.299688
    23  C   -0.475772
    24  H    0.149718
    25  H    0.150105
    26  H    0.152332
    27  H    0.152115
    28  H    0.155074
    29  H    0.155482
    30  H    0.160558
    31  C   -0.297546
    32  C   -0.309540
    33  C   -0.476160
    34  H    0.149970
    35  H    0.149707
    36  H    0.152097
    37  H    0.161134
    38  H    0.155451
    39  H    0.155721
    40  H    0.161015
 Sum of Mulliken charges =  -0.00000

 Dipole moment (field-independent basis, Debye):
    X=              0.0359    Y=             -0.0257    Z=             -0.0208  Tot=              0.0488
 Quadrupole moment (field-independent basis, Debye-Ang):
   XX=            -83.7284   YY=            -86.2437   ZZ=            -84.7315
   XY=             -0.7066   XZ=             -0.1662   YZ=              0.1043

 Normal termination of Gaussian 16 at Wed May  5 19:55:41 2021.
