 Gaussian 16, Revision A.03,
 Gaussian 16:  EM64L-G16RevA.03 25-Dec-2016

 -------------
 #p 6-31g* mp2
 -------------

 ------------------------------------------------------
 Input file generated by CHIRIPA (05-May-2021 14:51:08)
 ------------------------------------------------------
 Symbolic Z-matrix:
 Charge =  0 Multiplicity = 1

                         Standard orientation:
 ---------------------------------------------------------------------
 Center     Atomic      Atomic             Coordinates (Angstroms)
 Number     Number       Type             X           Y           Z
 ---------------------------------------------------------------------
      1          6           0        2.925265   -0.360963   -0.488916
      2          6           0        4.058239    0.621085   -0.189018
      3          6           0        4.603609    1.296659   -1.447575
      4          1           0        3.287305   -1.125670   -1.189697
      5          1           0        2.112733    0.172763   -1.001090
      6          1           0        4.867809    0.085960    0.323673
      7          1           0        3.693515    1.383433    0.511280
      8          1           0        3.812665    1.855173   -1.958525
      9          1           0        4.993631    0.550328   -2.147198
     10          1           0        5.412606    1.994520   -1.210140
     11          6           0        2.369617   -1.044341    0.759274
     12          6           0        1.236643   -2.026389    0.459377
     13          6           0        0.691273   -2.701963    1.717933
     14          1           0        3.182149   -1.578066    1.271448
     15          1           0        2.007577   -0.279633    1.460056
     16          1           0        1.601367   -2.788737   -0.240922
     17          1           0        0.427073   -1.491264   -0.053315
     18          1           0        0.301251   -1.955631    2.417557
     19          1           0        1.482217   -3.260477    2.228884
     20          1           0       -0.117724   -3.399823    1.480498
     21          6           0       -2.698118    1.324438    0.305554
     22          6           0       -1.458457    2.217116    0.239583
     23          6           0       -1.574943    3.457006    1.126657
     24          1           0       -3.579290    1.908886    0.007391
     25          1           0       -2.864887    1.016847    1.347173
     26          1           0       -1.293276    2.521805   -0.801808
     27          1           0       -0.580106    1.630423    0.537754
     28          1           0       -1.716409    3.169750    2.173591
     29          1           0       -2.433631    4.066196    0.826417
     30          1           0       -0.677925    4.080968    1.064294
     31          6           0       -2.596765    0.080865   -0.575913
     32          6           0       -3.836425   -0.811813   -0.509943
     33          6           0       -3.719939   -2.051702   -1.397015
     34          1           0       -2.429996    0.388457   -1.617533
     35          1           0       -1.715593   -0.503583   -0.277750
     36          1           0       -4.714776   -0.225120   -0.808113
     37          1           0       -4.001606   -1.116501    0.531450
     38          1           0       -2.861251   -2.660892   -1.096777
     39          1           0       -3.578473   -1.764446   -2.443950
     40          1           0       -4.616957   -2.675665   -1.334652
 ---------------------------------------------------------------------

 SCF Done:  E(RHF) =  -470.733430821     A.U. after   11 cycles
 E2 =    -0.1583466833D+01 EUMP2 =    -0.47231689765391D+03

 The electronic state is 1-A.
 Alpha  occ. eigenvalues --  -11.21680 -11.21627 -11.21622 -11.21602 -11.21446
 Alpha  occ. eigenvalues --  -11.21425 -11.21382 -11.21358 -11.21135 -11.21130
 Alpha  occ. eigenvalues --  -11.21083 -11.21067  -1.08489  -1.08439  -1.03574
 Alpha  occ. eigenvalues --   -1.03552  -0.96022  -0.95999  -0.87037  -0.87016
 Alpha  occ. eigenvalues --   -0.79661  -0.79596  -0.78357  -0.78199  -0.65272
 Alpha  occ. eigenvalues --   -0.64935  -0.61009  -0.60920  -0.59404  -0.59355
 Alpha  occ. eigenvalues --   -0.57642  -0.57602  -0.55364  -0.55234  -0.52715
 Alpha  occ. eigenvalues --   -0.52696  -0.52466  -0.52407  -0.50001  -0.49916
 Alpha  occ. eigenvalues --   -0.48011  -0.47906  -0.46832  -0.46601  -0.46081
 Alpha  occ. eigenvalues --   -0.45784  -0.45767  -0.45297  -0.43826  -0.43804
 Alpha virt. eigenvalues --    0.19539   0.22793   0.23905   0.24560   0.25654
 Alpha virt. eigenvalues --    0.26865   0.27016   0.27566   0.27978   0.29700
 Alpha virt. eigenvalues --    0.30840   0.31586   0.31660   0.31750   0.32297

 Mulliken charges:
               1
     1  C   -0.299336
     2  C   -0.299607
     3  C   -0.475769
     4  H    0.149730
     5  H    0.150975
     6  H    0.151853
     7  H    0.151930
     8  H    0.155408
     9  H    0.155159
    10  H    0.160221
    11  C   -0.298151
    12  C   -0.309270
    13  C   -0.475563
    14  H    0.149751
    15  H    0.149494
    16  H    0.152587
    17  H    0.159649
    18  H    0.154615
    19  H    0.155832
    20  H    0.159946
    21  C   -0.297609
    22  C   -0.301451
    23  C   -0.475709
    24  H    0.150043
    25  H    0.149577
    26  H    0.152038
    27  H    0.152100
    28  H    0.155322
    29  H    0.155620
    30  H    0.160276
    31  C   -0.308504
    32  C   -0.298927
    33  C   -0.476059
    34  H    0.149372
    35  H    0.159348
    36  H    0.152021
    37  H    0.152099
    38  H    0.155369
    39  H    0.155254
    40  H    0.160365
 Sum of Mulliken charges =  -0.00000

 Dipole moment (field-independent basis, Debye):
    X=             -0.0087    Y=              0.0012    Z=             -0.0089  Tot=              0.0125
 Quadrupole moment (field-independent basis, Debye-Ang):
   XX=            -84.3536   YY=            -85.1264   ZZ=            -85.1826
   XY=             -1.1184   XZ=              0.6082   YZ=             -0.4116

 Normal termination of Gaussian 16 at Thu May  6 11:33:07 2021.
