 Gaussian 16, Revision A.03,
 Gaussian 16:  EM64L-G16RevA.03 25-Dec-2016

 -------------
 #p 6-31g* mp2
 -------------

 ------------------------------------------------------
 Input file generated by CHIRIPA (05-May-2021 14:57:21)
 ------------------------------------------------------
 Symbolic Z-matrix:
 Charge =  0 Multiplicity = 1

                         Standard orientation:
 ---------------------------------------------------------------------
 Center     Atomic      Atomic             Coordinates (Angstroms)
 Number     Number       Type             X           Y           Z
 ---------------------------------------------------------------------
      1          6           0        4.350619   -2.094192    1.008081
      2          6           0        5.348155   -1.136105    0.799482
      3          6           0        5.029277    0.116466    0.266631
      4          6           0        3.696669    0.378446   -0.047715
      5          6           0        2.680283   -0.555234    0.148475
      6          6           0        3.022209   -1.801215    0.682486
      7          1           0        4.607283   -3.064659    1.422462
      8          1           0        6.380655   -1.360867    1.051413
      9          1           0        5.781668    0.876614    0.094869
     10          1           0        1.659884   -0.302020   -0.112459
     11          1           0        2.245427   -2.543346    0.843409
     12          7           0        3.346888    1.700998   -0.612434
     13          8           0        2.165388    1.907184   -0.881102
     14          8           0        4.260852    2.506387   -0.775699
     15          6           0       -5.458117    1.326114    1.074040
     16          6           0       -4.094540    1.617550    1.184691
     17          6           0       -3.141662    0.800829    0.568623
     18          6           0       -3.589600   -0.304190   -0.153577
     19          6           0       -4.941071   -0.620866   -0.282154
     20          6           0       -5.876294    0.209804    0.342260
     21          1           0       -6.191477    1.965980    1.555860
     22          1           0       -3.766883    2.483826    1.752363
     23          1           0       -2.079766    1.003233    0.638107
     24          1           0       -5.237193   -1.491419   -0.854753
     25          1           0       -6.934609   -0.018963    0.254633
     26          7           0       -2.590177   -1.176200   -0.810198
     27          8           0       -3.010564   -2.143810   -1.440789
     28          8           0       -1.405367   -0.875560   -0.681836
 ---------------------------------------------------------------------

 SCF Done:  E(RHF) =  -868.339775387     A.U. after   16 cycles
 E2 =    -0.2598350931D+01 EUMP2 =    -0.87093812631731D+03

 The electronic state is 1-A.
 Alpha  occ. eigenvalues --  -20.61058 -20.61035 -20.60190 -20.60179 -15.86097
 Alpha  occ. eigenvalues --  -15.85234 -11.31247 -11.30453 -11.27812 -11.27762
 Alpha  occ. eigenvalues --  -11.27517 -11.27093 -11.26867 -11.26799 -11.26788
 Alpha  occ. eigenvalues --  -11.26743 -11.26095 -11.25934  -1.60112  -1.59268
 Alpha  occ. eigenvalues --   -1.39673  -1.38821  -1.19405  -1.18634  -1.08842
 Alpha  occ. eigenvalues --   -1.08073  -1.04775  -1.03997  -0.95710  -0.94917
 Alpha  occ. eigenvalues --   -0.86185  -0.85413  -0.82552  -0.81740  -0.77616
 Alpha  occ. eigenvalues --   -0.76787  -0.72335  -0.71459  -0.71419  -0.70590
 Alpha  occ. eigenvalues --   -0.70516  -0.69742  -0.65065  -0.64777  -0.64284
 Alpha  occ. eigenvalues --   -0.63996  -0.62119  -0.61312  -0.55295  -0.54549
 Alpha  occ. eigenvalues --   -0.53120  -0.52863  -0.52370  -0.52072  -0.49081
 Alpha  occ. eigenvalues --   -0.49052  -0.48219  -0.48202  -0.45123  -0.44260
 Alpha  occ. eigenvalues --   -0.37383  -0.36653  -0.36369  -0.35603
 Alpha virt. eigenvalues --    0.04907   0.05709   0.11286   0.12039   0.16435
 Alpha virt. eigenvalues --    0.17212   0.21311   0.22214   0.27156   0.27647
 Alpha virt. eigenvalues --    0.28380   0.29226   0.30894   0.31682   0.32264

 Mulliken charges:
               1
     1  C   -0.171094
     2  C   -0.219607
     3  C   -0.171693
     4  C    0.156451
     5  C   -0.177035
     6  C   -0.221504
     7  H    0.223419
     8  H    0.220429
     9  H    0.272783
    10  H    0.293843
    11  H    0.228684
    12  N    0.487590
    13  O   -0.459993
    14  O   -0.464045
    15  C   -0.170238
    16  C   -0.218802
    17  C   -0.170231
    18  C    0.157148
    19  C   -0.170896
    20  C   -0.218789
    21  H    0.226287
    22  H    0.225911
    23  H    0.279059
    24  H    0.275062
    25  H    0.223524
    26  N    0.494093
    27  O   -0.459274
    28  O   -0.471083
 Sum of Mulliken charges =  -0.00000

 Dipole moment (field-independent basis, Debye):
    X=             -2.6258    Y=             -1.6016    Z=              4.2992  Tot=              5.2861
 Quadrupole moment (field-independent basis, Debye-Ang):
   XX=            -64.2584   YY=           -109.3020   ZZ=           -106.7033
   XY=            -23.4554   XZ=              1.0356   YZ=              1.2032

 Normal termination of Gaussian 16 at Thu May  6 19:26:33 2021.
