 Gaussian 16, Revision A.03,
 Gaussian 16:  EM64L-G16RevA.03 25-Dec-2016

 -------------
 #p 6-31g* mp2
 -------------

 ------------------------------------------------------
 Input file generated by CHIRIPA (05-May-2021 14:55:20)
 ------------------------------------------------------
 Symbolic Z-matrix:
 Charge =  0 Multiplicity = 1

                         Standard orientation:
 ---------------------------------------------------------------------
 Center     Atomic      Atomic             Coordinates (Angstroms)
 Number     Number       Type             X           Y           Z
 ---------------------------------------------------------------------
      1          6           0       -0.681516   -2.108236    0.676233
      2          6           0       -1.793823   -2.540595   -0.053397
      3          6           0       -2.822233   -1.649695   -0.374675
      4          6           0       -2.705228   -0.327602    0.051553
      5          6           0       -1.609645    0.133455    0.779848
      6          6           0       -0.593133   -0.774941    1.089798
      7          1           0        0.112756   -2.807104    0.921410
      8          1           0       -1.865140   -3.575466   -0.375888
      9          1           0       -3.694493   -1.957689   -0.938341
     10          1           0       -1.566762    1.171206    1.087502
     11          1           0        0.269531   -0.436364    1.656563
     12          7           0       -3.787661    0.624815   -0.282573
     13          8           0       -3.660763    1.784396    0.104603
     14          8           0       -4.742474    0.193704   -0.925311
     15          6           0        3.072608    1.317017   -0.404416
     16          6           0        2.070737    2.082004    0.461052
     17          6           0        1.757278    3.474175   -0.087944
     18          1           0        4.000712    1.899762   -0.481729
     19          1           0        2.673159    1.228634   -1.424232
     20          1           0        2.471339    2.167714    1.479280
     21          1           0        1.144979    1.497281    0.536471
     22          1           0        1.334040    3.404750   -1.095243
     23          1           0        2.667937    4.078993   -0.147078
     24          1           0        1.039092    4.003410    0.546074
     25          6           0        3.396076   -0.076513    0.131466
     26          6           0        4.397948   -0.841500   -0.734001
     27          6           0        4.711406   -2.233671   -0.185005
     28          1           0        3.795525    0.011871    1.151282
     29          1           0        2.467972   -0.659258    0.208778
     30          1           0        5.323705   -0.256776   -0.809420
     31          1           0        3.997344   -0.927210   -1.752229
     32          1           0        3.800747   -2.838489   -0.125871
     33          1           0        5.134643   -2.164247    0.822293
     34          1           0        5.429592   -2.762906   -0.819023
 ---------------------------------------------------------------------

 SCF Done:  E(RHF) =  -669.534835948     A.U. after   15 cycles
 E2 =    -0.2093410399D+01 EUMP2 =    -0.67162824634705D+03

 The electronic state is 1-A.
 Alpha  occ. eigenvalues --  -20.60797 -20.60791 -15.85850 -11.31239 -11.27804
 Alpha  occ. eigenvalues --  -11.27787 -11.27538 -11.26825 -11.26762 -11.22273
 Alpha  occ. eigenvalues --  -11.22237 -11.22159 -11.21972 -11.21806 -11.21438
 Alpha  occ. eigenvalues --   -1.59871  -1.39424  -1.19412  -1.09110  -1.08795
 Alpha  occ. eigenvalues --   -1.04821  -1.04153  -0.96589  -0.95631  -0.87600
 Alpha  occ. eigenvalues --   -0.86209  -0.82476  -0.80243  -0.78984  -0.77487
 Alpha  occ. eigenvalues --   -0.72067  -0.71195  -0.70511  -0.65792  -0.65064
 Alpha  occ. eigenvalues --   -0.64770  -0.62214  -0.61496  -0.59956  -0.58216
 Alpha  occ. eigenvalues --   -0.55872  -0.55305  -0.53301  -0.53132  -0.53021
 Alpha  occ. eigenvalues --   -0.52884  -0.50525  -0.48831  -0.48822  -0.48553
 Alpha  occ. eigenvalues --   -0.47278  -0.46454  -0.46376  -0.44824  -0.44410
 Alpha  occ. eigenvalues --   -0.37377  -0.36361
 Alpha virt. eigenvalues --    0.04978   0.11102   0.16335   0.20254   0.22693
 Alpha virt. eigenvalues --    0.23167   0.25590   0.26065   0.26747   0.27439
 Alpha virt. eigenvalues --    0.29909   0.30437   0.31101   0.31456   0.32211

 Mulliken charges:
               1
     1  C   -0.173562
     2  C   -0.218515
     3  C   -0.171042
     4  C    0.157765
     5  C   -0.171917
     6  C   -0.218737
     7  H    0.226419
     8  H    0.223741
     9  H    0.275835
    10  H    0.276675
    11  H    0.229299
    12  N    0.488156
    13  O   -0.460085
    14  O   -0.460302
    15  C   -0.296898
    16  C   -0.308422
    17  C   -0.476109
    18  H    0.152550
    19  H    0.153298
    20  H    0.150347
    21  H    0.149308
    22  H    0.159726
    23  H    0.156952
    24  H    0.162776
    25  C   -0.302915
    26  C   -0.299941
    27  C   -0.475119
    28  H    0.148550
    29  H    0.144412
    30  H    0.155045
    31  H    0.154465
    32  H    0.148931
    33  H    0.155848
    34  H    0.163468
 Sum of Mulliken charges =  -0.00000

 Dipole moment (field-independent basis, Debye):
    X=              3.8741    Y=             -3.2853    Z=              1.0825  Tot=              5.1936
 Quadrupole moment (field-independent basis, Debye-Ang):
   XX=           -113.7781   YY=            -90.7744   ZZ=            -93.9343
   XY=             10.7584   XZ=             -1.6111   YZ=              1.8135

 Normal termination of Gaussian 16 at Thu May  6 15:46:24 2021.
