 Gaussian 16, Revision A.03,
 Gaussian 16:  EM64L-G16RevA.03 25-Dec-2016

 -------------
 #p 6-31g* mp2
 -------------

 ------------------------------------------------------
 Input file generated by CHIRIPA (05-May-2021 14:53:11)
 ------------------------------------------------------
 Symbolic Z-matrix:
 Charge =  0 Multiplicity = 1

                         Standard orientation:
 ---------------------------------------------------------------------
 Center     Atomic      Atomic             Coordinates (Angstroms)
 Number     Number       Type             X           Y           Z
 ---------------------------------------------------------------------
      1          6           0       -2.875975    0.619157   -0.416416
      2          6           0       -3.087444    2.115800   -0.185499
      3          6           0       -1.830512    2.940419   -0.464641
      4          1           0       -2.055575    0.268076    0.224390
      5          1           0       -2.553162    0.457379   -1.454209
      6          1           0       -3.411097    2.274579    0.851156
      7          1           0       -3.907563    2.463320   -0.826788
      8          1           0       -1.507909    2.811531   -1.502868
      9          1           0       -1.008622    2.621718    0.184611
     10          1           0       -2.004072    4.007364   -0.293275
     11          6           0       -4.123583   -0.218471   -0.141496
     12          6           0       -3.912113   -1.715115   -0.372413
     13          6           0       -5.169046   -2.539734   -0.093271
     14          1           0       -4.446396   -0.056693    0.896297
     15          1           0       -4.943983    0.132610   -0.782302
     16          1           0       -3.091995   -2.062634    0.268876
     17          1           0       -3.588461   -1.873893   -1.409068
     18          1           0       -5.990936   -2.221033   -0.742523
     19          1           0       -5.491649   -2.410846    0.944956
     20          1           0       -4.995486   -3.606678   -0.264637
     21          6           0        1.498262    0.356342    2.356941
     22          6           0        2.161638   -0.866017    2.207637
     23          6           0        2.849630   -1.160888    1.026846
     24          6           0        2.853688   -0.206099    0.011143
     25          6           0        2.202322    1.020661    0.129765
     26          6           0        1.520682    1.294126    1.319358
     27          1           0        0.966280    0.577091    3.277627
     28          1           0        2.145918   -1.596203    3.011767
     29          1           0        3.371640   -2.099348    0.884671
     30          1           0        2.235806    1.728618   -0.689438
     31          1           0        1.006380    2.244249    1.432522
     32          7           0        3.578672   -0.506935   -1.243567
     33          8           0        3.567208    0.351061   -2.123537
     34          8           0        4.144651   -1.595030   -1.323278
 ---------------------------------------------------------------------

 SCF Done:  E(RHF) =  -669.535474363     A.U. after   15 cycles
 E2 =    -0.2091569998D+01 EUMP2 =    -0.67162704436078D+03

 The electronic state is 1-A.
 Alpha  occ. eigenvalues --  -20.60774 -20.60769 -15.85829 -11.31209 -11.27792
 Alpha  occ. eigenvalues --  -11.27783 -11.27549 -11.26807 -11.26795 -11.22097
 Alpha  occ. eigenvalues --  -11.21842 -11.21740 -11.21725 -11.21667 -11.21286
 Alpha  occ. eigenvalues --   -1.59849  -1.39402  -1.19393  -1.08798  -1.08776
 Alpha  occ. eigenvalues --   -1.04800  -1.03919  -0.96379  -0.95615  -0.87404
 Alpha  occ. eigenvalues --   -0.86196  -0.82449  -0.79985  -0.78580  -0.77488
 Alpha  occ. eigenvalues --   -0.72047  -0.71172  -0.70499  -0.65443  -0.65046
 Alpha  occ. eigenvalues --   -0.64812  -0.62187  -0.61297  -0.59740  -0.57974
 Alpha  occ. eigenvalues --   -0.55704  -0.55290  -0.53148  -0.53085  -0.52977
 Alpha  occ. eigenvalues --   -0.52690  -0.50313  -0.48809  -0.48800  -0.48292
 Alpha  occ. eigenvalues --   -0.47008  -0.46127  -0.46041  -0.44804  -0.44157
 Alpha  occ. eigenvalues --   -0.37373  -0.36375
 Alpha virt. eigenvalues --    0.05039   0.11166   0.16426   0.20599   0.22658
 Alpha virt. eigenvalues --    0.23990   0.25718   0.26463   0.27301   0.28223
 Alpha virt. eigenvalues --    0.28761   0.30048   0.31301   0.31612   0.32137

 Mulliken charges:
               1
     1  C   -0.299807
     2  C   -0.299186
     3  C   -0.479954
     4  H    0.149303
     5  H    0.152903
     6  H    0.149863
     7  H    0.154900
     8  H    0.160192
     9  H    0.146613
    10  H    0.161129
    11  C   -0.298483
    12  C   -0.299807
    13  C   -0.475889
    14  H    0.147780
    15  H    0.150848
    16  H    0.150958
    17  H    0.154417
    18  H    0.156045
    19  H    0.154112
    20  H    0.161318
    21  C   -0.172244
    22  C   -0.218730
    23  C   -0.170484
    24  C    0.158359
    25  C   -0.170357
    26  C   -0.219367
    27  H    0.225744
    28  H    0.223512
    29  H    0.275802
    30  H    0.276682
    31  H    0.226319
    32  N    0.488132
    33  O   -0.460163
    34  O   -0.460459
 Sum of Mulliken charges =  -0.00000

 Dipole moment (field-independent basis, Debye):
    X=             -2.5927    Y=              1.0123    Z=              4.3547  Tot=              5.1682
 Quadrupole moment (field-independent basis, Debye-Ang):
   XX=           -110.1764   YY=            -91.9750   ZZ=            -93.5488
   XY=              1.5971   XZ=             13.8572   YZ=             -2.8850

 Normal termination of Gaussian 16 at Wed May  5 15:25:46 2021.
