 Gaussian 16, Revision A.03,
 Gaussian 16:  EM64L-G16RevA.03 25-Dec-2016

 -------------
 #p 6-31g* mp2
 -------------

 ------------------------------------------------------
 Input file generated by CHIRIPA (05-May-2021 14:53:12)
 ------------------------------------------------------
 Symbolic Z-matrix:
 Charge =  0 Multiplicity = 1

                         Standard orientation:
 ---------------------------------------------------------------------
 Center     Atomic      Atomic             Coordinates (Angstroms)
 Number     Number       Type             X           Y           Z
 ---------------------------------------------------------------------
      1          6           0        3.836343    0.544359    0.414734
      2          6           0        3.510710    2.038316    0.408310
      3          6           0        2.284413    2.379703    1.255330
      4          1           0        2.966353   -0.015650    0.045341
      5          1           0        4.002172    0.216786    1.450394
      6          1           0        3.346905    2.363269   -0.627156
      7          1           0        4.381645    2.594848    0.777581
      8          1           0        2.441334    2.083128    2.297453
      9          1           0        1.400715    1.850233    0.884735
     10          1           0        2.069655    3.452731    1.236628
     11          6           0        5.059765    0.187361   -0.427595
     12          6           0        5.385398   -1.306596   -0.421171
     13          6           0        6.611696   -1.647983   -1.268192
     14          1           0        4.893936    0.514934   -1.463255
     15          1           0        5.929756    0.747371   -0.058202
     16          1           0        4.514464   -1.863128   -0.790442
     17          1           0        5.549204   -1.631549    0.614294
     18          1           0        7.495393   -1.118513   -0.897596
     19          1           0        6.454774   -1.351407   -2.310314
     20          1           0        6.826454   -2.721011   -1.249490
     21          6           0       -1.567493   -1.432945    1.193005
     22          6           0       -1.362318   -0.197708    0.569618
     23          6           0       -2.411986    0.446978   -0.091538
     24          6           0       -3.659457   -0.174929   -0.109826
     25          6           0       -3.895347   -1.405158    0.501878
     26          6           0       -2.831125   -2.031673    1.157210
     27          1           0       -0.746432   -1.926695    1.704345
     28          1           0       -0.382031    0.269619    0.595809
     29          1           0       -2.280912    1.403671   -0.582433
     30          1           0       -4.883769   -1.846278    0.458834
     31          1           0       -2.993377   -2.990931    1.640473
     32          7           0       -4.778398    0.497952   -0.806678
     33          8           0       -5.867947   -0.070832   -0.808494
     34          8           0       -4.544686    1.581401   -1.337861
 ---------------------------------------------------------------------

 SCF Done:  E(RHF) =  -669.535502011     A.U. after   15 cycles
 E2 =    -0.2090882815D+01 EUMP2 =    -0.67162638482596D+03

 The electronic state is 1-A.
 Alpha  occ. eigenvalues --  -20.60735 -20.60730 -15.85789 -11.31151 -11.27723
 Alpha  occ. eigenvalues --  -11.27715 -11.27460 -11.26737 -11.26714 -11.22390
 Alpha  occ. eigenvalues --  -11.22203 -11.22172 -11.22072 -11.21997 -11.21528
 Alpha  occ. eigenvalues --   -1.59811  -1.39365  -1.19324  -1.09144  -1.08719
 Alpha  occ. eigenvalues --   -1.04729  -1.04234  -0.96696  -0.95554  -0.87712
 Alpha  occ. eigenvalues --   -0.86127  -0.82389  -0.80300  -0.78950  -0.77437
 Alpha  occ. eigenvalues --   -0.72007  -0.71134  -0.70431  -0.65784  -0.64976
 Alpha  occ. eigenvalues --   -0.64748  -0.62129  -0.61591  -0.60058  -0.58296
 Alpha  occ. eigenvalues --   -0.56011  -0.55223  -0.53368  -0.53191  -0.53055
 Alpha  occ. eigenvalues --   -0.52768  -0.50631  -0.48780  -0.48762  -0.48596
 Alpha  occ. eigenvalues --   -0.47326  -0.46494  -0.46399  -0.44771  -0.44481
 Alpha  occ. eigenvalues --   -0.37304  -0.36331
 Alpha virt. eigenvalues --    0.05101   0.11315   0.16589   0.19227   0.22509
 Alpha virt. eigenvalues --    0.23596   0.25066   0.26398   0.27027   0.28313
 Alpha virt. eigenvalues --    0.28668   0.29999   0.31078   0.31406   0.32090

 Mulliken charges:
               1
     1  C   -0.298340
     2  C   -0.300199
     3  C   -0.480220
     4  H    0.143377
     5  H    0.149644
     6  H    0.154636
     7  H    0.156018
     8  H    0.157536
     9  H    0.146565
    10  H    0.166572
    11  C   -0.298718
    12  C   -0.300055
    13  C   -0.476088
    14  H    0.151555
    15  H    0.151889
    16  H    0.150956
    17  H    0.151676
    18  H    0.156315
    19  H    0.156519
    20  H    0.161324
    21  C   -0.173172
    22  C   -0.226722
    23  C   -0.173761
    24  C    0.158718
    25  C   -0.171153
    26  C   -0.218518
    27  H    0.226537
    28  H    0.235713
    29  H    0.275628
    30  H    0.275477
    31  H    0.223258
    32  N    0.488131
    33  O   -0.460650
    34  O   -0.460448
 Sum of Mulliken charges =  -0.00000

 Dipole moment (field-independent basis, Debye):
    X=              4.1619    Y=             -2.3160    Z=              2.4571  Tot=              5.3593
 Quadrupole moment (field-independent basis, Debye-Ang):
   XX=           -121.7236   YY=            -91.1993   ZZ=            -95.3885
   XY=             11.3918   XZ=             -9.3762   YZ=             -1.3499

 Normal termination of Gaussian 16 at Thu May  6 18:39:52 2021.
