 Gaussian 16, Revision A.03,
 Gaussian 16:  EM64L-G16RevA.03 25-Dec-2016

 -------------
 #p 6-31g* mp2
 -------------

 ------------------------------------------------------
 Input file generated by CHIRIPA (05-May-2021 14:57:21)
 ------------------------------------------------------
 Symbolic Z-matrix:
 Charge =  0 Multiplicity = 1

                         Standard orientation:
 ---------------------------------------------------------------------
 Center     Atomic      Atomic             Coordinates (Angstroms)
 Number     Number       Type             X           Y           Z
 ---------------------------------------------------------------------
      1          6           0        2.410866    2.229339   -0.920647
      2          6           0        1.219635    1.506448   -1.042783
      3          6           0        1.168875    0.155848   -0.685218
      4          6           0        2.333377   -0.442923   -0.206996
      5          6           0        3.535350    0.250494   -0.073865
      6          6           0        3.562891    1.600164   -0.437429
      7          1           0        2.441279    3.278156   -1.200742
      8          1           0        0.323412    1.992475   -1.417758
      9          1           0        0.260005   -0.427453   -0.769674
     10          1           0        4.412463   -0.261379    0.303067
     11          1           0        4.489415    2.159091   -0.341518
     12          7           0        2.291931   -1.872251    0.174718
     13          8           0        3.331610   -2.376657    0.593382
     14          8           0        1.220551   -2.461087    0.048013
     15          6           0       -1.179990    2.078375    1.502424
     16          6           0       -1.056090    0.760257    1.953794
     17          6           0       -1.694532   -0.284367    1.278735
     18          6           0       -2.452374    0.026470    0.150752
     19          6           0       -2.594947    1.329517   -0.323622
     20          6           0       -1.947669    2.358304    0.367157
     21          1           0       -0.680601    2.883711    2.032931
     22          1           0       -0.460549    0.539906    2.835167
     23          1           0       -1.615490   -1.313833    1.606409
     24          1           0       -3.195449    1.518050   -1.205251
     25          1           0       -2.045662    3.381026    0.014337
     26          7           0       -3.132941   -1.071044   -0.572223
     27          8           0       -3.794828   -0.770921   -1.563420
     28          8           0       -2.991596   -2.210615   -0.134006
 ---------------------------------------------------------------------

 SCF Done:  E(RHF) =  -868.333844245     A.U. after   16 cycles
 E2 =    -0.2607282275D+01 EUMP2 =    -0.87094112652001D+03

 The electronic state is 1-A.
 Alpha  occ. eigenvalues --  -20.61017 -20.60944 -20.60926 -20.60913 -15.86049
 Alpha  occ. eigenvalues --  -15.85959 -11.31690 -11.31297 -11.28410 -11.28131
 Alpha  occ. eigenvalues --  -11.28044 -11.27894 -11.27767 -11.27653 -11.27408
 Alpha  occ. eigenvalues --  -11.27187 -11.26930 -11.26776  -1.60065  -1.59998
 Alpha  occ. eigenvalues --   -1.39599  -1.39549  -1.19972  -1.19473  -1.09255
 Alpha  occ. eigenvalues --   -1.08901  -1.05346  -1.04879  -0.96028  -0.95730
 Alpha  occ. eigenvalues --   -0.86700  -0.86296  -0.82830  -0.82558  -0.77836
 Alpha  occ. eigenvalues --   -0.77613  -0.72244  -0.72175  -0.71452  -0.71335
 Alpha  occ. eigenvalues --   -0.70933  -0.70624  -0.65523  -0.65287  -0.65137
 Alpha  occ. eigenvalues --   -0.64914  -0.62619  -0.62331  -0.55776  -0.55519
 Alpha  occ. eigenvalues --   -0.54069  -0.53362  -0.53031  -0.52676  -0.49041
 Alpha  occ. eigenvalues --   -0.48981  -0.48935  -0.48930  -0.44969  -0.44915
 Alpha  occ. eigenvalues --   -0.38238  -0.37727  -0.36794  -0.35983
 Alpha virt. eigenvalues --    0.04533   0.04959   0.10445   0.11343   0.15982
 Alpha virt. eigenvalues --    0.16437   0.20795   0.21494   0.26497   0.27480
 Alpha virt. eigenvalues --    0.27869   0.28146   0.30284   0.31169   0.32248

 Mulliken charges:
               1
     1  C   -0.175618
     2  C   -0.217285
     3  C   -0.169284
     4  C    0.153646
     5  C   -0.172513
     6  C   -0.219724
     7  H    0.222414
     8  H    0.222762
     9  H    0.280434
    10  H    0.275079
    11  H    0.222359
    12  N    0.487216
    13  O   -0.460567
    14  O   -0.459070
    15  C   -0.164112
    16  C   -0.215225
    17  C   -0.174157
    18  C    0.149207
    19  C   -0.178116
    20  C   -0.228136
    21  H    0.226517
    22  H    0.228800
    23  H    0.289826
    24  H    0.277095
    25  H    0.222209
    26  N    0.487726
    27  O   -0.462656
    28  O   -0.448826
 Sum of Mulliken charges =  -0.00000

 Dipole moment (field-independent basis, Debye):
    X=              2.3293    Y=              8.6286    Z=              1.4336  Tot=              9.0517
 Quadrupole moment (field-independent basis, Debye-Ang):
   XX=           -111.6900   YY=           -107.9063   ZZ=           -101.9931
   XY=              1.4249   XZ=             -6.5909   YZ=             -2.1097

 Normal termination of Gaussian 16 at Wed May  5 16:14:14 2021.
