 Gaussian 16, Revision A.03,
 Gaussian 16:  EM64L-G16RevA.03 25-Dec-2016

 -------------
 #p 6-31g* mp2
 -------------

 ------------------------------------------------------
 Input file generated by CHIRIPA (05-May-2021 14:55:22)
 ------------------------------------------------------
 Symbolic Z-matrix:
 Charge =  0 Multiplicity = 1

                         Standard orientation:
 ---------------------------------------------------------------------
 Center     Atomic      Atomic             Coordinates (Angstroms)
 Number     Number       Type             X           Y           Z
 ---------------------------------------------------------------------
      1          6           0       -5.412584   -0.086174    0.070343
      2          6           0       -4.742440   -1.191776    0.604264
      3          6           0       -3.347573   -1.270003    0.551603
      4          6           0       -2.651226   -0.219984   -0.044930
      5          6           0       -3.290152    0.894739   -0.585723
      6          6           0       -4.685583    0.951725   -0.521902
      7          1           0       -6.496370   -0.033656    0.115586
      8          1           0       -5.304451   -1.999296    1.064808
      9          1           0       -2.803397   -2.114290    0.957153
     10          1           0       -2.702640    1.684187   -1.038515
     11          1           0       -5.203365    1.811570   -0.937369
     12          7           0       -1.174244   -0.291556   -0.106587
     13          8           0       -0.583787    0.646622   -0.637454
     14          8           0       -0.635011   -1.284477    0.377119
     15          6           0        4.194628   -0.291196    0.225733
     16          6           0        3.957458   -1.583848   -0.555794
     17          6           0        4.944559   -2.690113   -0.182159
     18          1           0        5.221446    0.055474    0.045711
     19          1           0        4.120114   -0.502407    1.301481
     20          1           0        4.031027   -1.369985   -1.629791
     21          1           0        2.931022   -1.927378   -0.374042
     22          1           0        4.866883   -2.932206    0.882715
     23          1           0        5.973137   -2.371647   -0.380167
     24          1           0        4.756924   -3.605091   -0.752658
     25          6           0        3.215679    0.824158   -0.136726
     26          6           0        3.452849    2.116810    0.644802
     27          6           0        2.465748    3.223074    0.271167
     28          1           0        3.290192    1.035368   -1.212473
     29          1           0        2.188860    0.477488    0.043298
     30          1           0        4.479284    2.460339    0.463050
     31          1           0        3.379279    1.902947    1.718798
     32          1           0        1.437169    2.904608    0.469175
     33          1           0        2.543424    3.465168   -0.793708
     34          1           0        2.653383    4.138053    0.841665
 ---------------------------------------------------------------------

 SCF Done:  E(RHF) =  -669.537062050     A.U. after   15 cycles
 E2 =    -0.2091944016D+01 EUMP2 =    -0.67162900606621D+03

 The electronic state is 1-A.
 Alpha  occ. eigenvalues --  -20.61195 -20.61189 -15.86177 -11.31424 -11.27972
 Alpha  occ. eigenvalues --  -11.27967 -11.27695 -11.26959 -11.26949 -11.20167
 Alpha  occ. eigenvalues --  -11.20130 -11.19941 -11.19881 -11.19695 -11.19425
 Alpha  occ. eigenvalues --   -1.60223  -1.39781  -1.19580  -1.09001  -1.06863
 Alpha  occ. eigenvalues --   -1.04962  -1.02118  -0.95853  -0.94568  -0.86366
 Alpha  occ. eigenvalues --   -0.85593  -0.82690  -0.78178  -0.77754  -0.76624
 Alpha  occ. eigenvalues --   -0.72381  -0.71521  -0.70687  -0.65235  -0.64965
 Alpha  occ. eigenvalues --   -0.63495  -0.62308  -0.59525  -0.57946  -0.56178
 Alpha  occ. eigenvalues --   -0.55472  -0.53857  -0.53299  -0.53052  -0.51341
 Alpha  occ. eigenvalues --   -0.51001  -0.49239  -0.49157  -0.48483  -0.46494
 Alpha  occ. eigenvalues --   -0.45277  -0.45124  -0.44214  -0.43904  -0.42319
 Alpha  occ. eigenvalues --   -0.37554  -0.36558
 Alpha virt. eigenvalues --    0.04752   0.11099   0.16256   0.21232   0.24395
 Alpha virt. eigenvalues --    0.25632   0.27168   0.27973   0.28307   0.29145
 Alpha virt. eigenvalues --    0.29418   0.30857   0.32239   0.32775   0.33049

 Mulliken charges:
               1
     1  C   -0.170263
     2  C   -0.218628
     3  C   -0.170551
     4  C    0.158335
     5  C   -0.170608
     6  C   -0.218589
     7  H    0.226505
     8  H    0.224269
     9  H    0.276015
    10  H    0.276423
    11  H    0.224402
    12  N    0.489041
    13  O   -0.457916
    14  O   -0.459598
    15  C   -0.296352
    16  C   -0.302231
    17  C   -0.474619
    18  H    0.142139
    19  H    0.146056
    20  H    0.148090
    21  H    0.165740
    22  H    0.153065
    23  H    0.150971
    24  H    0.156319
    25  C   -0.309341
    26  C   -0.298003
    27  C   -0.476348
    28  H    0.144013
    29  H    0.181742
    30  H    0.144846
    31  H    0.147281
    32  H    0.164822
    33  H    0.151992
    34  H    0.150981
 Sum of Mulliken charges =  -0.00000

 Dipole moment (field-independent basis, Debye):
    X=             -5.7925    Y=              0.1394    Z=              0.1785  Tot=              5.7969
 Quadrupole moment (field-independent basis, Debye-Ang):
   XX=            -69.6941   YY=            -92.7462   ZZ=            -94.0750
   XY=              1.1122   XZ=             -1.0843   YZ=             -2.8109

 Normal termination of Gaussian 16 at Thu May  6 20:47:22 2021.
