 Gaussian 16, Revision A.03,
 Gaussian 16:  EM64L-G16RevA.03 25-Dec-2016

 -------------
 #p 6-31g* mp2
 -------------

 ------------------------------------------------------
 Input file generated by CHIRIPA (05-May-2021 14:53:16)
 ------------------------------------------------------
 Symbolic Z-matrix:
 Charge =  0 Multiplicity = 1

                         Standard orientation:
 ---------------------------------------------------------------------
 Center     Atomic      Atomic             Coordinates (Angstroms)
 Number     Number       Type             X           Y           Z
 ---------------------------------------------------------------------
      1          6           0       -2.971776    1.253096   -0.340190
      2          6           0       -1.717133    1.087521   -1.198352
      3          6           0       -0.965621    2.402673   -1.406676
      4          1           0       -3.638195    1.986784   -0.814039
      5          1           0       -2.687871    1.672676    0.634872
      6          1           0       -2.003147    0.667087   -2.171001
      7          1           0       -1.053709    0.353999   -0.722504
      8          1           0       -0.652104    2.823587   -0.445875
      9          1           0       -1.606936    3.138453   -1.902602
     10          1           0       -0.072197    2.261284   -2.022844
     11          6           0       -3.733866   -0.052951   -0.122965
     12          6           0       -4.988508    0.112624    0.735197
     13          6           0       -5.740021   -1.202528    0.943521
     14          1           0       -4.017771   -0.472531   -1.098027
     15          1           0       -3.067446   -0.786640    0.350884
     16          1           0       -5.651932    0.846145    0.259349
     17          1           0       -4.702494    0.533058    1.707846
     18          1           0       -5.098705   -1.938309    1.439447
     19          1           0       -6.053538   -1.623443   -0.017280
     20          1           0       -6.633445   -1.061139    1.559689
     21          6           0        4.217883    1.304263    0.997605
     22          6           0        4.528228    0.552565   -0.140445
     23          6           0        3.649997   -0.432440   -0.601990
     24          6           0        2.464855   -0.640221    0.101966
     25          6           0        2.127399    0.092266    1.239013
     26          6           0        3.020569    1.072123    1.682495
     27          1           0        4.905916    2.067439    1.349128
     28          1           0        5.457358    0.730674   -0.674336
     29          1           0        3.865330   -1.028892   -1.480224
     30          1           0        1.193623   -0.108189    1.750187
     31          1           0        2.776938    1.654380    2.566614
     32          7           0        1.527204   -1.680276   -0.377089
     33          8           0        0.489485   -1.843990    0.260855
     34          8           0        1.847746   -2.312064   -1.381446
 ---------------------------------------------------------------------

 SCF Done:  E(RHF) =  -669.536412785     A.U. after   15 cycles
 E2 =    -0.2091823210D+01 EUMP2 =    -0.67162823599522D+03

 The electronic state is 1-A.
 Alpha  occ. eigenvalues --  -20.60993 -20.60985 -15.86000 -11.31298 -11.27862
 Alpha  occ. eigenvalues --  -11.27852 -11.27587 -11.26861 -11.26851 -11.21054
 Alpha  occ. eigenvalues --  -11.20915 -11.20830 -11.20745 -11.20625 -11.20527
 Alpha  occ. eigenvalues --   -1.60037  -1.39597  -1.19462  -1.08871  -1.07822
 Alpha  occ. eigenvalues --   -1.04856  -1.02991  -0.95718  -0.95462  -0.86477
 Alpha  occ. eigenvalues --   -0.86258  -0.82556  -0.79036  -0.77657  -0.77565
 Alpha  occ. eigenvalues --   -0.72229  -0.71344  -0.70573  -0.65122  -0.64862
 Alpha  occ. eigenvalues --   -0.64451  -0.62207  -0.60394  -0.58827  -0.57062
 Alpha  occ. eigenvalues --   -0.55362  -0.54762  -0.53181  -0.52950  -0.52175
 Alpha  occ. eigenvalues --   -0.51881  -0.49409  -0.48998  -0.48982  -0.47375
 Alpha  occ. eigenvalues --   -0.46135  -0.45345  -0.45151  -0.44600  -0.43225
 Alpha  occ. eigenvalues --   -0.37434  -0.36452
 Alpha virt. eigenvalues --    0.04889   0.11165   0.16352   0.21225   0.23332
 Alpha virt. eigenvalues --    0.24678   0.26889   0.27414   0.27886   0.28336
 Alpha virt. eigenvalues --    0.28701   0.30852   0.31760   0.32162   0.32263

 Mulliken charges:
               1
     1  C   -0.296472
     2  C   -0.308626
     3  C   -0.474802
     4  H    0.146592
     5  H    0.143524
     6  H    0.153641
     7  H    0.164530
     8  H    0.148892
     9  H    0.153738
    10  H    0.157941
    11  C   -0.301255
    12  C   -0.299019
    13  C   -0.475541
    14  H    0.150135
    15  H    0.161850
    16  H    0.149370
    17  H    0.148694
    18  H    0.157556
    19  H    0.155489
    20  H    0.157401
    21  C   -0.170343
    22  C   -0.218450
    23  C   -0.170851
    24  C    0.158848
    25  C   -0.170892
    26  C   -0.218305
    27  H    0.226105
    28  H    0.223882
    29  H    0.275802
    30  H    0.275304
    31  H    0.223854
    32  N    0.488362
    33  O   -0.459426
    34  O   -0.457527
 Sum of Mulliken charges =  -0.00000

 Dipole moment (field-independent basis, Debye):
    X=              3.4850    Y=              3.4646    Z=              1.6754  Tot=              5.1919
 Quadrupole moment (field-independent basis, Debye-Ang):
   XX=            -77.3721   YY=           -100.9782   ZZ=            -91.3095
   XY=              6.0722   XZ=              2.5943   YZ=              0.5138

 Normal termination of Gaussian 16 at Thu May  6 18:53:15 2021.
