 Gaussian 16, Revision A.03,
 Gaussian 16:  EM64L-G16RevA.03 25-Dec-2016

 -------------
 #p 6-31g* mp2
 -------------

 ------------------------------------------------------
 Input file generated by CHIRIPA (05-May-2021 14:57:26)
 ------------------------------------------------------
 Symbolic Z-matrix:
 Charge =  0 Multiplicity = 1

                         Standard orientation:
 ---------------------------------------------------------------------
 Center     Atomic      Atomic             Coordinates (Angstroms)
 Number     Number       Type             X           Y           Z
 ---------------------------------------------------------------------
      1          6           0       -4.184107   -2.360269    0.814856
      2          6           0       -2.991385   -1.709254    1.146691
      3          6           0       -2.732409   -0.418439    0.676291
      4          6           0       -3.692480    0.194492   -0.127370
      5          6           0       -4.890280   -0.427948   -0.475411
      6          6           0       -5.128083   -1.718670    0.006289
      7          1           0       -4.377062   -3.362969    1.184663
      8          1           0       -2.256471   -2.205095    1.774455
      9          1           0       -1.817393    0.108659    0.917811
     10          1           0       -5.603812    0.091972   -1.103083
     11          1           0       -6.055242   -2.221835   -0.253030
     12          7           0       -3.429520    1.560970   -0.631343
     13          8           0       -4.291441    2.079314   -1.337777
     14          8           0       -2.366471    2.087797   -0.310380
     15          6           0        2.426019    1.941657    1.043644
     16          6           0        3.805817    2.064544    0.849789
     17          6           0        4.541629    1.012194    0.296898
     18          6           0        3.862445   -0.154022   -0.052303
     19          6           0        2.488669   -0.306859    0.128447
     20          6           0        1.773001    0.758434    0.682990
     21          1           0        1.862247    2.764175    1.473784
     22          1           0        4.315601    2.982279    1.128941
     23          1           0        5.610659    1.080502    0.135887
     24          1           0        2.008329   -1.234040   -0.159694
     25          1           0        0.701520    0.660187    0.832395
     26          7           0        4.630753   -1.274948   -0.638498
     27          8           0        4.008889   -2.291970   -0.937814
     28          8           0        5.840271   -1.115285   -0.787543
 ---------------------------------------------------------------------

 SCF Done:  E(RHF) =  -868.337937760     A.U. after   16 cycles
 E2 =    -0.2599250922D+01 EUMP2 =    -0.87093718868212D+03

 The electronic state is 1-A.
 Alpha  occ. eigenvalues --  -20.61497 -20.61456 -20.60711 -20.60701 -15.86529
 Alpha  occ. eigenvalues --  -15.85762 -11.31851 -11.31068 -11.28515 -11.28339
 Alpha  occ. eigenvalues --  -11.28064 -11.27672 -11.27622 -11.27414 -11.27335
 Alpha  occ. eigenvalues --  -11.27304 -11.26666 -11.26593  -1.60545  -1.59785
 Alpha  occ. eigenvalues --   -1.40107  -1.39341  -1.19997  -1.19232  -1.09384
 Alpha  occ. eigenvalues --   -1.08620  -1.05403  -1.04643  -0.96241  -0.95468
 Alpha  occ. eigenvalues --   -0.86798  -0.86030  -0.83082  -0.82319  -0.78160
 Alpha  occ. eigenvalues --   -0.77386  -0.72753  -0.71982  -0.71859  -0.71107
 Alpha  occ. eigenvalues --   -0.71107  -0.70303  -0.65650  -0.65419  -0.64883
 Alpha  occ. eigenvalues --   -0.64647  -0.62790  -0.61981  -0.55866  -0.55081
 Alpha  occ. eigenvalues --   -0.53711  -0.53517  -0.52951  -0.52714  -0.49523
 Alpha  occ. eigenvalues --   -0.49485  -0.48742  -0.48732  -0.45520  -0.44761
 Alpha  occ. eigenvalues --   -0.37936  -0.37170  -0.36997  -0.36246
 Alpha virt. eigenvalues --    0.04392   0.05168   0.10649   0.11424   0.15927
 Alpha virt. eigenvalues --    0.16687   0.18647   0.22006   0.24636   0.27229
 Alpha virt. eigenvalues --    0.28484   0.29093   0.29942   0.31072   0.32283

 Mulliken charges:
               1
     1  C   -0.169755
     2  C   -0.220701
     3  C   -0.176861
     4  C    0.158752
     5  C   -0.169261
     6  C   -0.218047
     7  H    0.228892
     8  H    0.224742
     9  H    0.274820
    10  H    0.277587
    11  H    0.226362
    12  N    0.487799
    13  O   -0.455832
    14  O   -0.467943
    15  C   -0.171388
    16  C   -0.218789
    17  C   -0.170877
    18  C    0.158628
    19  C   -0.173848
    20  C   -0.220208
    21  H    0.231648
    22  H    0.224141
    23  H    0.275324
    24  H    0.272134
    25  H    0.227093
    26  N    0.488310
    27  O   -0.462367
    28  O   -0.460354
 Sum of Mulliken charges =  -0.00000

 Dipole moment (field-independent basis, Debye):
    X=             -3.8812    Y=             -0.8391    Z=              3.8169  Tot=              5.5079
 Quadrupole moment (field-independent basis, Debye-Ang):
   XX=           -110.5258   YY=           -107.1123   ZZ=           -105.8163
   XY=             36.9427   XZ=              4.6180   YZ=              0.6052

 Normal termination of Gaussian 16 at Thu May  6 13:06:55 2021.
