 Gaussian 16, Revision A.03,
 Gaussian 16:  EM64L-G16RevA.03 25-Dec-2016

 -------------
 #p 6-31g* mp2
 -------------

 ------------------------------------------------------
 Input file generated by CHIRIPA (05-May-2021 14:55:22)
 ------------------------------------------------------
 Symbolic Z-matrix:
 Charge =  0 Multiplicity = 1

                         Standard orientation:
 ---------------------------------------------------------------------
 Center     Atomic      Atomic             Coordinates (Angstroms)
 Number     Number       Type             X           Y           Z
 ---------------------------------------------------------------------
      1          6           0       -2.660463    2.104246    1.140398
      2          6           0       -1.597843    1.298566    1.562582
      3          6           0       -1.375167    0.050635    0.972979
      4          6           0       -2.238477   -0.362164   -0.040719
      5          6           0       -3.305841    0.417685   -0.483280
      6          6           0       -3.509573    1.662014    0.120613
      7          1           0       -2.826085    3.072270    1.603967
      8          1           0       -0.936811    1.639437    2.354345
      9          1           0       -0.560154   -0.593276    1.280470
     10          1           0       -3.947911    0.050786   -1.274829
     11          1           0       -4.335618    2.285600   -0.209289
     12          7           0       -2.012767   -1.681386   -0.672469
     13          8           0       -2.787595   -2.022183   -1.563612
     14          8           0       -1.065302   -2.349616   -0.264530
     15          6           0        3.005810    0.713500   -0.624996
     16          6           0        2.656154    2.128269   -0.162234
     17          6           0        2.847170    3.173885   -1.261322
     18          1           0        4.047628    0.695436   -0.973181
     19          1           0        2.382073    0.454031   -1.491614
     20          1           0        3.279392    2.384471    0.704110
     21          1           0        1.615105    2.142923    0.185068
     22          1           0        2.213605    2.945621   -2.124509
     23          1           0        3.887349    3.188540   -1.602519
     24          1           0        2.591533    4.178045   -0.908939
     25          6           0        2.819923   -0.342964    0.462689
     26          6           0        3.169579   -1.757735   -0.000073
     27          6           0        2.978562   -2.803350    1.099015
     28          1           0        3.443660   -0.083495    1.329306
     29          1           0        1.778105   -0.324900    0.810874
     30          1           0        4.210628   -1.772388   -0.347376
     31          1           0        2.546340   -2.013935   -0.866417
     32          1           0        1.938384   -2.818005    1.440211
     33          1           0        3.612127   -2.575085    1.962202
     34          1           0        3.234199   -3.807509    0.746632
 ---------------------------------------------------------------------

 SCF Done:  E(RHF) =  -669.535891982     A.U. after   15 cycles
 E2 =    -0.2092605096D+01 EUMP2 =    -0.67162849707853D+03

 The electronic state is 1-A.
 Alpha  occ. eigenvalues --  -20.60896 -20.60890 -15.85942 -11.31286 -11.27858
 Alpha  occ. eigenvalues --  -11.27852 -11.27593 -11.26872 -11.26861 -11.21765
 Alpha  occ. eigenvalues --  -11.21403 -11.21341 -11.21223 -11.21173 -11.20566
 Alpha  occ. eigenvalues --   -1.59964  -1.39518  -1.19464  -1.08858  -1.08367
 Alpha  occ. eigenvalues --   -1.04864  -1.03391  -0.95852  -0.95696  -0.86875
 Alpha  occ. eigenvalues --   -0.86259  -0.82527  -0.79484  -0.78212  -0.77564
 Alpha  occ. eigenvalues --   -0.72160  -0.71284  -0.70575  -0.65116  -0.65072
 Alpha  occ. eigenvalues --   -0.64799  -0.62213  -0.60758  -0.59253  -0.57464
 Alpha  occ. eigenvalues --   -0.55380  -0.55113  -0.53190  -0.52967  -0.52532
 Alpha  occ. eigenvalues --   -0.52277  -0.49795  -0.48917  -0.48912  -0.47795
 Alpha  occ. eigenvalues --   -0.46507  -0.45738  -0.45602  -0.44917  -0.43677
 Alpha  occ. eigenvalues --   -0.37436  -0.36442
 Alpha virt. eigenvalues --    0.04902   0.11128   0.16348   0.20110   0.23053
 Alpha virt. eigenvalues --    0.23789   0.25461   0.27118   0.27721   0.28135
 Alpha virt. eigenvalues --    0.29781   0.30051   0.31536   0.31883   0.32052

 Mulliken charges:
               1
     1  C   -0.170765
     2  C   -0.220292
     3  C   -0.174552
     4  C    0.158027
     5  C   -0.170507
     6  C   -0.218438
     7  H    0.226326
     8  H    0.225332
     9  H    0.281733
    10  H    0.275913
    11  H    0.223960
    12  N    0.488362
    13  O   -0.459451
    14  O   -0.462213
    15  C   -0.298174
    16  C   -0.301111
    17  C   -0.475322
    18  H    0.150865
    19  H    0.153284
    20  H    0.150043
    21  H    0.147473
    22  H    0.156698
    23  H    0.156492
    24  H    0.157627
    25  C   -0.300027
    26  C   -0.299729
    27  C   -0.477549
    28  H    0.147024
    29  H    0.141908
    30  H    0.149634
    31  H    0.163391
    32  H    0.161872
    33  H    0.149264
    34  H    0.162901
 Sum of Mulliken charges =  -0.00000

 Dipole moment (field-independent basis, Debye):
    X=             -0.8887    Y=              4.5402    Z=              2.1191  Tot=              5.0886
 Quadrupole moment (field-independent basis, Debye-Ang):
   XX=            -87.4712   YY=            -99.2700   ZZ=            -94.0779
   XY=            -11.1975   XZ=             -2.2816   YZ=             -0.7024

 Normal termination of Gaussian 16 at Wed May  5 22:19:11 2021.
