 Gaussian 16, Revision A.03,
 Gaussian 16:  EM64L-G16RevA.03 25-Dec-2016

 -------------
 #p 6-31g* mp2
 -------------

 ------------------------------------------------------
 Input file generated by CHIRIPA (05-May-2021 14:51:12)
 ------------------------------------------------------
 Symbolic Z-matrix:
 Charge =  0 Multiplicity = 1

                         Standard orientation:
 ---------------------------------------------------------------------
 Center     Atomic      Atomic             Coordinates (Angstroms)
 Number     Number       Type             X           Y           Z
 ---------------------------------------------------------------------
      1          6           0       -3.515928   -0.546020   -0.110435
      2          6           0       -3.897442    0.769213   -0.790577
      3          6           0       -5.236678    0.688768   -1.523904
      4          1           0       -3.475028   -1.343335   -0.865128
      5          1           0       -4.306957   -0.827028    0.598581
      6          1           0       -3.105274    1.048367   -1.497088
      7          1           0       -3.937251    1.563528   -0.034207
      8          1           0       -6.042399    0.434230   -0.827754
      9          1           0       -5.205694   -0.083858   -2.298947
     10          1           0       -5.489909    1.639754   -2.002818
     11          6           0       -2.179529   -0.481395    0.626851
     12          6           0       -1.798016   -1.796628    1.306993
     13          6           0       -0.458780   -1.716183    2.040321
     14          1           0       -1.388500   -0.200388   -0.082164
     15          1           0       -2.220430    0.315920    1.381544
     16          1           0       -1.758206   -2.590943    0.550623
     17          1           0       -2.590184   -2.075782    2.013505
     18          1           0       -0.489764   -0.943557    2.815364
     19          1           0        0.346941   -1.461645    1.344170
     20          1           0       -0.205549   -2.667169    2.519234
     21          6           0        2.563692    1.212297   -0.379564
     22          6           0        2.336636    2.006494    0.907169
     23          6           0        1.768119    3.401992    0.647997
     24          1           0        3.246518    1.772424   -1.032980
     25          1           0        1.611984    1.126577   -0.922058
     26          1           0        3.288209    2.089504    1.447757
     27          1           0        1.654422    1.444324    1.557679
     28          1           0        0.805996    3.335872    0.129780
     29          1           0        2.449066    3.984717    0.019234
     30          1           0        1.613616    3.952263    1.581373
     31          6           0        3.131766   -0.184883   -0.136853
     32          6           0        3.358822   -0.979080   -1.423585
     33          6           0        3.927338   -2.374577   -1.164412
     34          1           0        4.083473   -0.099162    0.405642
     35          1           0        2.448940   -0.745008    0.516563
     36          1           0        4.041036   -0.416908   -2.074096
     37          1           0        2.407249   -1.062089   -1.964173
     38          1           0        3.246391   -2.957302   -0.535649
     39          1           0        4.889462   -2.308456   -0.646196
     40          1           0        4.081842   -2.924847   -2.097788
 ---------------------------------------------------------------------

 SCF Done:  E(RHF) =  -470.733405490     A.U. after   11 cycles
 E2 =    -0.1583266267D+01 EUMP2 =    -0.47231667175660D+03

 The electronic state is 1-A.
 Alpha  occ. eigenvalues --  -11.21678 -11.21647 -11.21611 -11.21555 -11.21476
 Alpha  occ. eigenvalues --  -11.21411 -11.21392 -11.21332 -11.21154 -11.21103
 Alpha  occ. eigenvalues --  -11.21074 -11.21034  -1.08498  -1.08418  -1.03593
 Alpha  occ. eigenvalues --   -1.03513  -0.96049  -0.95962  -0.87066  -0.86977
 Alpha  occ. eigenvalues --   -0.79661  -0.79573  -0.78320  -0.78222  -0.65207
 Alpha  occ. eigenvalues --   -0.64993  -0.61011  -0.60891  -0.59409  -0.59331
 Alpha  occ. eigenvalues --   -0.57675  -0.57560  -0.55419  -0.55182  -0.52735
 Alpha  occ. eigenvalues --   -0.52663  -0.52492  -0.52370  -0.50084  -0.49828
 Alpha  occ. eigenvalues --   -0.48004  -0.47893  -0.46777  -0.46563  -0.45968
 Alpha  occ. eigenvalues --   -0.45801  -0.45700  -0.45483  -0.43848  -0.43770
 Alpha virt. eigenvalues --    0.19855   0.23156   0.24038   0.24515   0.25614
 Alpha virt. eigenvalues --    0.25920   0.26947   0.27878   0.28560   0.29335
 Alpha virt. eigenvalues --    0.30948   0.31561   0.31797   0.31950   0.32170

 Mulliken charges:
               1
     1  C   -0.298346
     2  C   -0.299727
     3  C   -0.475753
     4  H    0.149798
     5  H    0.149861
     6  H    0.151720
     7  H    0.152155
     8  H    0.155296
     9  H    0.155257
    10  H    0.160473
    11  C   -0.299129
    12  C   -0.299335
    13  C   -0.483912
    14  H    0.149176
    15  H    0.150023
    16  H    0.152086
    17  H    0.152456
    18  H    0.155819
    19  H    0.161732
    20  H    0.160932
    21  C   -0.298351
    22  C   -0.301085
    23  C   -0.475829
    24  H    0.149710
    25  H    0.149120
    26  H    0.151727
    27  H    0.154156
    28  H    0.155566
    29  H    0.154887
    30  H    0.160037
    31  C   -0.306930
    32  C   -0.299185
    33  C   -0.475807
    34  H    0.150043
    35  H    0.157433
    36  H    0.152130
    37  H    0.150984
    38  H    0.155225
    39  H    0.155414
    40  H    0.160172
 Sum of Mulliken charges =  -0.00000

 Dipole moment (field-independent basis, Debye):
    X=             -0.0223    Y=             -0.0121    Z=              0.0210  Tot=              0.0329
 Quadrupole moment (field-independent basis, Debye-Ang):
   XX=            -84.6270   YY=            -85.6500   ZZ=            -84.3728
   XY=              0.7227   XZ=             -1.0198   YZ=              0.2993

 Normal termination of Gaussian 16 at Wed May  5 21:32:10 2021.
