 Gaussian 16, Revision A.03,
 Gaussian 16:  EM64L-G16RevA.03 25-Dec-2016

 -------------
 #p 6-31g* mp2
 -------------

 ------------------------------------------------------
 Input file generated by CHIRIPA (05-May-2021 14:53:11)
 ------------------------------------------------------
 Symbolic Z-matrix:
 Charge =  0 Multiplicity = 1

                         Standard orientation:
 ---------------------------------------------------------------------
 Center     Atomic      Atomic             Coordinates (Angstroms)
 Number     Number       Type             X           Y           Z
 ---------------------------------------------------------------------
      1          6           0       -3.031693    0.631045    0.075638
      2          6           0       -3.318766    1.975965   -0.592767
      3          6           0       -2.660938    3.149525    0.133740
      4          1           0       -3.383020    0.663465    1.116053
      5          1           0       -1.944841    0.474848    0.117460
      6          1           0       -4.404798    2.128948   -0.634563
      7          1           0       -2.966889    1.940274   -1.631769
      8          1           0       -1.573773    3.023804    0.163188
      9          1           0       -3.019852    3.213550    1.166059
     10          1           0       -2.879139    4.101125   -0.360938
     11          6           0       -3.682579   -0.551848   -0.639093
     12          6           0       -3.395506   -1.896768    0.029312
     13          6           0       -4.053334   -3.070328   -0.697195
     14          1           0       -4.769431   -0.395651   -0.680915
     15          1           0       -3.331252   -0.584268   -1.679508
     16          1           0       -3.747383   -1.861078    1.068314
     17          1           0       -2.309474   -2.049752    0.071108
     18          1           0       -3.694420   -3.134353   -1.729514
     19          1           0       -5.140499   -2.944607   -0.726643
     20          1           0       -3.835133   -4.021928   -0.202517
     21          6           0        4.425576   -0.213858   -1.535555
     22          6           0        4.362277   -1.148867   -0.497156
     23          6           0        3.367694   -1.057281    0.481089
     24          6           0        2.448473   -0.013252    0.389830
     25          6           0        2.485293    0.933772   -0.632463
     26          6           0        3.488535    0.822649   -1.599781
     27          1           0        5.201555   -0.292593   -2.291237
     28          1           0        5.088667   -1.954880   -0.444756
     29          1           0        3.295530   -1.767498    1.295829
     30          1           0        1.747180    1.726204   -0.658120
     31          1           0        3.535266    1.550218   -2.405080
     32          7           0        1.390969    0.094047    1.419672
     33          8           0        0.592964    1.023160    1.316834
     34          8           0        1.380127   -0.752995    2.310197
 ---------------------------------------------------------------------

 SCF Done:  E(RHF) =  -669.536118330     A.U. after   15 cycles
 E2 =    -0.2091641765D+01 EUMP2 =    -0.67162776009447D+03

 The electronic state is 1-A.
 Alpha  occ. eigenvalues --  -20.61015 -20.61010 -15.86033 -11.31340 -11.27905
 Alpha  occ. eigenvalues --  -11.27896 -11.27633 -11.26904 -11.26894 -11.20839
 Alpha  occ. eigenvalues --  -11.20718 -11.20563 -11.20506 -11.20172 -11.20067
 Alpha  occ. eigenvalues --   -1.60067  -1.39625  -1.19507  -1.08914  -1.07524
 Alpha  occ. eigenvalues --   -1.04901  -1.02695  -0.95758  -0.95134  -0.86302
 Alpha  occ. eigenvalues --   -0.86150  -0.82594  -0.78763  -0.77661  -0.77273
 Alpha  occ. eigenvalues --   -0.72255  -0.71378  -0.70615  -0.65165  -0.64902
 Alpha  occ. eigenvalues --   -0.64165  -0.62249  -0.60107  -0.58508  -0.56734
 Alpha  occ. eigenvalues --   -0.55404  -0.54425  -0.53234  -0.52992  -0.51878
 Alpha  occ. eigenvalues --   -0.51539  -0.49111  -0.49015  -0.48984  -0.47072
 Alpha  occ. eigenvalues --   -0.45824  -0.45306  -0.44842  -0.44400  -0.42924
 Alpha  occ. eigenvalues --   -0.37483  -0.36501
 Alpha virt. eigenvalues --    0.04843   0.11152   0.16312   0.21075   0.23605
 Alpha virt. eigenvalues --    0.24787   0.26754   0.27428   0.27888   0.28674
 Alpha virt. eigenvalues --    0.28993   0.30663   0.31648   0.32431   0.32583

 Mulliken charges:
               1
     1  C   -0.303530
     2  C   -0.298796
     3  C   -0.477227
     4  H    0.151665
     5  H    0.165701
     6  H    0.147792
     7  H    0.144475
     8  H    0.164952
     9  H    0.157077
    10  H    0.152232
    11  C   -0.298044
    12  C   -0.298058
    13  C   -0.475188
    14  H    0.146174
    15  H    0.144034
    16  H    0.154360
    17  H    0.152485
    18  H    0.151906
    19  H    0.153778
    20  H    0.158790
    21  C   -0.170528
    22  C   -0.218519
    23  C   -0.170796
    24  C    0.157935
    25  C   -0.170973
    26  C   -0.218530
    27  H    0.226220
    28  H    0.224035
    29  H    0.276000
    30  H    0.275552
    31  H    0.224128
    32  N    0.490204
    33  O   -0.461420
    34  O   -0.457886
 Sum of Mulliken charges =  -0.00000

 Dipole moment (field-independent basis, Debye):
    X=              4.0265    Y=             -0.3986    Z=             -3.4419  Tot=              5.3121
 Quadrupole moment (field-independent basis, Debye-Ang):
   XX=            -76.6725   YY=            -93.1904   ZZ=            -97.0188
   XY=             -3.1709   XZ=             -7.9893   YZ=             -2.5432

 Normal termination of Gaussian 16 at Wed May  5 20:03:59 2021.
