 Gaussian 16, Revision A.03,
 Gaussian 16:  EM64L-G16RevA.03 25-Dec-2016

 -------------
 #p 6-31g* mp2
 -------------

 ------------------------------------------------------
 Input file generated by CHIRIPA (05-May-2021 14:51:08)
 ------------------------------------------------------
 Symbolic Z-matrix:
 Charge =  0 Multiplicity = 1

                         Standard orientation:
 ---------------------------------------------------------------------
 Center     Atomic      Atomic             Coordinates (Angstroms)
 Number     Number       Type             X           Y           Z
 ---------------------------------------------------------------------
      1          6           0        3.378825   -0.142333    0.173066
      2          6           0        4.421440   -0.452067   -0.901645
      3          6           0        5.546404    0.582324   -0.949455
      4          1           0        2.955019    0.854092   -0.012597
      5          1           0        3.875088   -0.093438    1.152213
      6          1           0        3.923136   -0.501731   -1.878293
      7          1           0        4.842676   -1.447950   -0.713512
      8          1           0        6.069576    0.627181    0.011211
      9          1           0        5.144811    1.578776   -1.160188
     10          1           0        6.280534    0.341508   -1.724645
     11          6           0        2.247799   -1.167464    0.233185
     12          6           0        1.205184   -0.857729    1.307896
     13          6           0        0.080221   -1.892121    1.355706
     14          1           0        1.751537   -1.216359   -0.745961
     15          1           0        2.671606   -2.163889    0.418848
     16          1           0        0.783948    0.138153    1.119763
     17          1           0        1.703489   -0.808065    2.284545
     18          1           0        0.481813   -2.888572    1.566440
     19          1           0       -0.442952   -1.936977    0.395040
     20          1           0       -0.653910   -1.651305    2.130897
     21          6           0       -2.120040    0.968033   -0.134192
     22          6           0       -2.157337    2.435487    0.293799
     23          6           0       -0.762755    3.047934    0.427389
     24          1           0       -1.534512    0.394176    0.597101
     25          1           0       -1.589296    0.886300   -1.092850
     26          1           0       -2.689061    2.514596    1.250683
     27          1           0       -2.743005    3.005883   -0.438497
     28          1           0       -0.227271    2.998357   -0.526235
     29          1           0       -0.173020    2.504279    1.172542
     30          1           0       -0.812841    4.097324    0.734197
     31          6           0       -3.506584    0.341763   -0.272060
     32          6           0       -3.469288   -1.125690   -0.700050
     33          6           0       -4.863869   -1.738137   -0.833640
     34          1           0       -4.037328    0.423497    0.686599
     35          1           0       -4.092113    0.915620   -1.003353
     36          1           0       -2.883620   -1.696086    0.032244
     37          1           0       -2.937564   -1.204799   -1.656935
     38          1           0       -5.453606   -1.194482   -1.578793
     39          1           0       -5.399354   -1.688561    0.119983
     40          1           0       -4.813784   -2.787528   -1.140448
 ---------------------------------------------------------------------

 SCF Done:  E(RHF) =  -470.731761178     A.U. after   11 cycles
 E2 =    -0.1585191401D+01 EUMP2 =    -0.47231695257913D+03

 The electronic state is 1-A.
 Alpha  occ. eigenvalues --  -11.21611 -11.21585 -11.21564 -11.21553 -11.21382
 Alpha  occ. eigenvalues --  -11.21369 -11.21322 -11.21294 -11.21120 -11.21065
 Alpha  occ. eigenvalues --  -11.21054 -11.21047  -1.08476  -1.08366  -1.03552
 Alpha  occ. eigenvalues --   -1.03510  -0.96028  -0.95940  -0.87004  -0.86998
 Alpha  occ. eigenvalues --   -0.79716  -0.79487  -0.78300  -0.78190  -0.65288
 Alpha  occ. eigenvalues --   -0.64865  -0.61020  -0.60856  -0.59403  -0.59306
 Alpha  occ. eigenvalues --   -0.57645  -0.57549  -0.55396  -0.55175  -0.52726
 Alpha  occ. eigenvalues --   -0.52643  -0.52481  -0.52326  -0.49970  -0.49921
 Alpha  occ. eigenvalues --   -0.48016  -0.47910  -0.46871  -0.46352  -0.45995
 Alpha  occ. eigenvalues --   -0.45726  -0.45655  -0.45264  -0.43781  -0.43763
 Alpha virt. eigenvalues --    0.21154   0.22919   0.23606   0.24125   0.25954
 Alpha virt. eigenvalues --    0.26145   0.26599   0.27725   0.29130   0.30051
 Alpha virt. eigenvalues --    0.30276   0.30933   0.31656   0.31913   0.32428

 Mulliken charges:
               1
     1  C   -0.298970
     2  C   -0.299623
     3  C   -0.475716
     4  H    0.150594
     5  H    0.149361
     6  H    0.151783
     7  H    0.151862
     8  H    0.155162
     9  H    0.155315
    10  H    0.160138
    11  C   -0.297571
    12  C   -0.309444
    13  C   -0.483544
    14  H    0.149809
    15  H    0.149498
    16  H    0.161102
    17  H    0.151547
    18  H    0.156719
    19  H    0.162326
    20  H    0.158200
    21  C   -0.309036
    22  C   -0.299152
    23  C   -0.479759
    24  H    0.164201
    25  H    0.147504
    26  H    0.151719
    27  H    0.151887
    28  H    0.154525
    29  H    0.158532
    30  H    0.160855
    31  C   -0.296893
    32  C   -0.305491
    33  C   -0.475346
    34  H    0.149002
    35  H    0.149274
    36  H    0.158814
    37  H    0.150586
    38  H    0.154945
    39  H    0.155083
    40  H    0.160200
 Sum of Mulliken charges =  -0.00000

 Dipole moment (field-independent basis, Debye):
    X=              0.0058    Y=             -0.0089    Z=              0.0146  Tot=              0.0180
 Quadrupole moment (field-independent basis, Debye-Ang):
   XX=            -86.3173   YY=            -85.2124   ZZ=            -83.4689
   XY=             -1.3837   XZ=              0.3125   YZ=             -0.5931

 Normal termination of Gaussian 16 at Thu May  6 02:06:20 2021.
