 Gaussian 16, Revision A.03,
 Gaussian 16:  EM64L-G16RevA.03 25-Dec-2016

 -------------
 #p 6-31g* mp2
 -------------

 ------------------------------------------------------
 Input file generated by CHIRIPA (05-May-2021 14:57:26)
 ------------------------------------------------------
 Symbolic Z-matrix:
 Charge =  0 Multiplicity = 1

                         Standard orientation:
 ---------------------------------------------------------------------
 Center     Atomic      Atomic             Coordinates (Angstroms)
 Number     Number       Type             X           Y           Z
 ---------------------------------------------------------------------
      1          6           0        3.690029    1.976195   -0.974593
      2          6           0        4.625729    1.154748   -0.337246
      3          6           0        4.230389   -0.053926    0.243583
      4          6           0        2.885205   -0.411817    0.168187
      5          6           0        1.929199    0.385030   -0.459808
      6          6           0        2.347118    1.589397   -1.033735
      7          1           0        4.005909    2.913449   -1.423115
      8          1           0        5.669318    1.452598   -0.289792
      9          1           0        4.933824   -0.708906    0.743181
     10          1           0        0.895922    0.061331   -0.491060
     11          1           0        1.618245    2.225348   -1.528059
     12          7           0        2.454724   -1.689105    0.779432
     13          8           0        1.263685   -1.981793    0.699455
     14          8           0        3.316504   -2.373372    1.326928
     15          6           0       -2.662416    2.321432    1.268481
     16          6           0       -1.858670    2.082488    0.148919
     17          6           0       -2.012653    0.911218   -0.598720
     18          6           0       -2.984551   -0.003662   -0.196599
     19          6           0       -3.800677    0.205771    0.913971
     20          6           0       -3.629150    1.383963    1.646767
     21          1           0       -2.535983    3.233991    1.843499
     22          1           0       -1.107086    2.808768   -0.147197
     23          1           0       -1.403952    0.700972   -1.469752
     24          1           0       -4.541400   -0.536875    1.184569
     25          1           0       -4.254768    1.566882    2.515783
     26          7           0       -3.156853   -1.247297   -0.980233
     27          8           0       -4.020266   -2.037556   -0.605209
     28          8           0       -2.425227   -1.408250   -1.954633
 ---------------------------------------------------------------------

 SCF Done:  E(RHF) =  -868.336053543     A.U. after   16 cycles
 E2 =    -0.2601454873D+01 EUMP2 =    -0.87093750841596D+03

 The electronic state is 1-A.
 Alpha  occ. eigenvalues --  -20.60775 -20.60748 -20.60691 -20.60684 -15.85825
 Alpha  occ. eigenvalues --  -15.85755 -11.31369 -11.31365 -11.28065 -11.27990
 Alpha  occ. eigenvalues --  -11.27963 -11.27877 -11.27787 -11.27709 -11.27137
 Alpha  occ. eigenvalues --  -11.27126 -11.26997 -11.26954  -1.59837  -1.59749
 Alpha  occ. eigenvalues --   -1.39384  -1.39303  -1.19583  -1.19544  -1.08940
 Alpha  occ. eigenvalues --   -1.08885  -1.05085  -1.04966  -0.95748  -0.95685
 Alpha  occ. eigenvalues --   -0.86447  -0.86357  -0.82626  -0.82506  -0.77682
 Alpha  occ. eigenvalues --   -0.77477  -0.72045  -0.71976  -0.71164  -0.71058
 Alpha  occ. eigenvalues --   -0.70793  -0.70564  -0.65255  -0.65202  -0.65166
 Alpha  occ. eigenvalues --   -0.64926  -0.62658  -0.62104  -0.55551  -0.55443
 Alpha  occ. eigenvalues --   -0.53398  -0.53346  -0.53169  -0.52940  -0.48817
 Alpha  occ. eigenvalues --   -0.48784  -0.48748  -0.48715  -0.44750  -0.44657
 Alpha  occ. eigenvalues --   -0.37565  -0.37490  -0.36754  -0.36485
 Alpha virt. eigenvalues --    0.04886   0.05050   0.10946   0.11011   0.16278
 Alpha virt. eigenvalues --    0.16511   0.18795   0.22190   0.24862   0.27082
 Alpha virt. eigenvalues --    0.28115   0.29166   0.30423   0.31663   0.32510

 Mulliken charges:
               1
     1  C   -0.170287
     2  C   -0.219040
     3  C   -0.169246
     4  C    0.158066
     5  C   -0.172838
     6  C   -0.222659
     7  H    0.225334
     8  H    0.224291
     9  H    0.276984
    10  H    0.280661
    11  H    0.214845
    12  N    0.487307
    13  O   -0.455993
    14  O   -0.460369
    15  C   -0.170324
    16  C   -0.216703
    17  C   -0.177459
    18  C    0.165486
    19  C   -0.168614
    20  C   -0.216589
    21  H    0.225926
    22  H    0.216655
    23  H    0.268449
    24  H    0.278345
    25  H    0.225366
    26  N    0.490190
    27  O   -0.457320
    28  O   -0.460463
 Sum of Mulliken charges =  -0.00000

 Dipole moment (field-independent basis, Debye):
    X=              1.9633    Y=              8.6362    Z=              0.7786  Tot=              8.8907
 Quadrupole moment (field-independent basis, Debye-Ang):
   XX=            -91.7324   YY=           -109.3921   ZZ=           -105.5340
   XY=             -0.3469   XZ=            -15.8159   YZ=             -0.3156

 Normal termination of Gaussian 16 at Thu May  6 18:09:38 2021.
