 Gaussian 16, Revision A.03,
 Gaussian 16:  EM64L-G16RevA.03 25-Dec-2016

 -------------
 #p 6-31g* mp2
 -------------

 ------------------------------------------------------
 Input file generated by CHIRIPA (05-May-2021 14:53:16)
 ------------------------------------------------------
 Symbolic Z-matrix:
 Charge =  0 Multiplicity = 1

                         Standard orientation:
 ---------------------------------------------------------------------
 Center     Atomic      Atomic             Coordinates (Angstroms)
 Number     Number       Type             X           Y           Z
 ---------------------------------------------------------------------
      1          6           0       -2.719713   -0.651875   -0.325855
      2          6           0       -3.825169   -1.638485    0.051706
      3          6           0       -3.319261   -3.076560    0.169139
      4          1           0       -2.269372   -0.962600   -1.278529
      5          1           0       -1.921498   -0.700357    0.427735
      6          1           0       -4.621700   -1.587156   -0.701633
      7          1           0       -4.273060   -1.325266    1.003496
      8          1           0       -2.539761   -3.149432    0.934429
      9          1           0       -2.890382   -3.412810   -0.780387
     10          1           0       -4.125845   -3.765054    0.439803
     11          6           0       -3.209935    0.789902   -0.447063
     12          6           0       -2.104479    1.776512   -0.824624
     13          6           0       -2.610386    3.214587   -0.942057
     14          1           0       -4.008150    0.838384   -1.200653
     15          1           0       -3.660276    1.100627    0.505610
     16          1           0       -1.656588    1.463293   -1.776414
     17          1           0       -1.307947    1.725184   -0.071286
     18          1           0       -3.039266    3.550837    0.007469
     19          1           0       -3.389887    3.287459   -1.707348
     20          1           0       -1.803803    3.903081   -1.212721
     21          6           0        0.678415    0.896520    1.969263
     22          6           0        1.667263    1.715599    1.414458
     23          6           0        2.580068    1.199707    0.489694
     24          6           0        2.474611   -0.145801    0.140729
     25          6           0        1.500590   -0.987289    0.675962
     26          6           0        0.598377   -0.449937    1.598898
     27          1           0       -0.026561    1.305612    2.686932
     28          1           0        1.731799    2.761645    1.700235
     29          1           0        3.355477    1.811384    0.044711
     30          1           0        1.461317   -2.026140    0.371557
     31          1           0       -0.168540   -1.088396    2.028146
     32          7           0        3.435351   -0.703313   -0.837310
     33          8           0        3.321285   -1.891999   -1.128261
     34          8           0        4.284253    0.058951   -1.294425
 ---------------------------------------------------------------------

 SCF Done:  E(RHF) =  -669.534105379     A.U. after   15 cycles
 E2 =    -0.2094409567D+01 EUMP2 =    -0.67162851494593D+03

 The electronic state is 1-A.
 Alpha  occ. eigenvalues --  -20.60821 -20.60816 -15.85875 -11.31276 -11.27844
 Alpha  occ. eigenvalues --  -11.27836 -11.27603 -11.26882 -11.26863 -11.22099
 Alpha  occ. eigenvalues --  -11.21872 -11.21823 -11.21770 -11.21643 -11.21451
 Alpha  occ. eigenvalues --   -1.59895  -1.39448  -1.19463  -1.08932  -1.08807
 Alpha  occ. eigenvalues --   -1.04870  -1.03973  -0.96439  -0.95681  -0.87455
 Alpha  occ. eigenvalues --   -0.86274  -0.82513  -0.80025  -0.78705  -0.77536
 Alpha  occ. eigenvalues --   -0.72094  -0.71218  -0.70570  -0.65627  -0.65115
 Alpha  occ. eigenvalues --   -0.64821  -0.62225  -0.61379  -0.59799  -0.58041
 Alpha  occ. eigenvalues --   -0.55763  -0.55371  -0.53339  -0.53038  -0.53012
 Alpha  occ. eigenvalues --   -0.52819  -0.50396  -0.48860  -0.48845  -0.48344
 Alpha  occ. eigenvalues --   -0.47072  -0.46202  -0.46147  -0.44845  -0.44218
 Alpha  occ. eigenvalues --   -0.37351  -0.36397
 Alpha virt. eigenvalues --    0.04967   0.11067   0.16359   0.19844   0.23053
 Alpha virt. eigenvalues --    0.23296   0.25788   0.26678   0.27461   0.28264
 Alpha virt. eigenvalues --    0.29019   0.29920   0.31313   0.31570   0.32055

 Mulliken charges:
               1
     1  C   -0.302979
     2  C   -0.299899
     3  C   -0.474741
     4  H    0.153409
     5  H    0.146612
     6  H    0.154902
     7  H    0.149516
     8  H    0.146214
     9  H    0.159301
    10  H    0.163055
    11  C   -0.297814
    12  C   -0.306273
    13  C   -0.475639
    14  H    0.151521
    15  H    0.145157
    16  H    0.154962
    17  H    0.155678
    18  H    0.151550
    19  H    0.157109
    20  H    0.159959
    21  C   -0.173032
    22  C   -0.217528
    23  C   -0.170269
    24  C    0.159022
    25  C   -0.170202
    26  C   -0.215380
    27  H    0.226531
    28  H    0.224328
    29  H    0.276082
    30  H    0.276573
    31  H    0.224433
    32  N    0.488001
    33  O   -0.459974
    34  O   -0.460187
 Sum of Mulliken charges =  -0.00000

 Dipole moment (field-independent basis, Debye):
    X=             -3.2987    Y=              1.9384    Z=              3.3802  Tot=              5.1053
 Quadrupole moment (field-independent basis, Debye-Ang):
   XX=           -111.2409   YY=            -92.6971   ZZ=            -93.4204
   XY=              8.1579   XZ=              8.3533   YZ=             -0.1630

 Normal termination of Gaussian 16 at Thu May  6 01:08:54 2021.
