 Gaussian 16, Revision A.03,
 Gaussian 16:  EM64L-G16RevA.03 25-Dec-2016

 -------------
 #p 6-31g* mp2
 -------------

 ------------------------------------------------------
 Input file generated by CHIRIPA (05-May-2021 14:57:23)
 ------------------------------------------------------
 Symbolic Z-matrix:
 Charge =  0 Multiplicity = 1

                         Standard orientation:
 ---------------------------------------------------------------------
 Center     Atomic      Atomic             Coordinates (Angstroms)
 Number     Number       Type             X           Y           Z
 ---------------------------------------------------------------------
      1          6           0       -3.766850    2.474247    0.259766
      2          6           0       -2.607594    2.017366    0.895302
      3          6           0       -2.191741    0.690982    0.745905
      4          6           0       -2.962517   -0.155093   -0.049930
      5          6           0       -4.122233    0.270266   -0.696009
      6          6           0       -4.519143    1.600779   -0.532464
      7          1           0       -4.082537    3.506217    0.381317
      8          1           0       -2.021387    2.693476    1.511161
      9          1           0       -1.298449    0.310948    1.226551
     10          1           0       -4.685885   -0.427282   -1.303578
     11          1           0       -5.419874    1.952838   -1.027221
     12          7           0       -2.532299   -1.561461   -0.215579
     13          8           0       -3.228835   -2.286956   -0.922072
     14          8           0       -1.506704   -1.911649    0.364215
     15          6           0        1.870882   -2.161725    0.839374
     16          6           0        2.108072   -1.101703    1.720633
     17          6           0        2.751372    0.058353    1.279064
     18          6           0        3.145812    0.124879   -0.056331
     19          6           0        2.923751   -0.914296   -0.958603
     20          6           0        2.278760   -2.064808   -0.495078
     21          1           0        1.370493   -3.059177    1.190923
     22          1           0        1.792412   -1.174191    2.757527
     23          1           0        2.947576    0.893942    1.939907
     24          1           0        3.250051   -0.812767   -1.986532
     25          1           0        2.095874   -2.886467   -1.181719
     26          7           0        3.827741    1.347927   -0.535421
     27          8           0        4.165420    1.381826   -1.716718
     28          8           0        4.011645    2.249495    0.279435
 ---------------------------------------------------------------------

 SCF Done:  E(RHF) =  -868.339789376     A.U. after   16 cycles
 E2 =    -0.2599579288D+01 EUMP2 =    -0.87093936866413D+03

 The electronic state is 1-A.
 Alpha  occ. eigenvalues --  -20.61357 -20.61330 -20.60482 -20.60466 -15.86382
 Alpha  occ. eigenvalues --  -15.85528 -11.31514 -11.30663 -11.28056 -11.28049
 Alpha  occ. eigenvalues --  -11.27746 -11.27325 -11.27215 -11.27017 -11.27002
 Alpha  occ. eigenvalues --  -11.26789 -11.26190 -11.26034  -1.60416  -1.59561
 Alpha  occ. eigenvalues --   -1.39977  -1.39121  -1.19664  -1.18823  -1.09102
 Alpha  occ. eigenvalues --   -1.08202  -1.05032  -1.04214  -0.95981  -0.95082
 Alpha  occ. eigenvalues --   -0.86440  -0.85588  -0.82828  -0.81944  -0.77896
 Alpha  occ. eigenvalues --   -0.77062  -0.72646  -0.71749  -0.71720  -0.70890
 Alpha  occ. eigenvalues --   -0.70768  -0.69816  -0.65321  -0.65031  -0.64456
 Alpha  occ. eigenvalues --   -0.64186  -0.62385  -0.61581  -0.55536  -0.54563
 Alpha  occ. eigenvalues --   -0.53373  -0.53128  -0.52511  -0.52286  -0.49385
 Alpha  occ. eigenvalues --   -0.49350  -0.48517  -0.48482  -0.45435  -0.44581
 Alpha  occ. eigenvalues --   -0.37629  -0.36640  -0.36615  -0.35849
 Alpha virt. eigenvalues --    0.04606   0.05519   0.11034   0.11814   0.16154
 Alpha virt. eigenvalues --    0.17089   0.21138   0.22113   0.26994   0.27721
 Alpha virt. eigenvalues --    0.28193   0.29064   0.30721   0.31665   0.32145

 Mulliken charges:
               1
     1  C   -0.169686
     2  C   -0.218299
     3  C   -0.170666
     4  C    0.157331
     5  C   -0.170633
     6  C   -0.218550
     7  H    0.227745
     8  H    0.225681
     9  H    0.273723
    10  H    0.275542
    11  H    0.224684
    12  N    0.491584
    13  O   -0.459403
    14  O   -0.470462
    15  C   -0.150608
    16  C   -0.226065
    17  C   -0.176514
    18  C    0.156183
    19  C   -0.172219
    20  C   -0.218373
    21  H    0.235833
    22  H    0.220456
    23  H    0.270447
    24  H    0.273806
    25  H    0.226726
    26  N    0.488256
    27  O   -0.461538
    28  O   -0.464980
 Sum of Mulliken charges =  -0.00000

 Dipole moment (field-independent basis, Debye):
    X=             -4.1822    Y=              0.4256    Z=              2.2141  Tot=              4.7512
 Quadrupole moment (field-independent basis, Debye-Ang):
   XX=           -109.3962   YY=           -106.9163   ZZ=            -99.9734
   XY=            -28.9079   XZ=              6.1164   YZ=              2.7440

 Normal termination of Gaussian 16 at Wed May  5 17:51:52 2021.
