 Gaussian 16, Revision A.03,
 Gaussian 16:  EM64L-G16RevA.03 25-Dec-2016

 -------------
 #p 6-31g* mp2
 -------------

 ------------------------------------------------------
 Input file generated by CHIRIPA (05-May-2021 14:51:11)
 ------------------------------------------------------
 Symbolic Z-matrix:
 Charge =  0 Multiplicity = 1

                         Standard orientation:
 ---------------------------------------------------------------------
 Center     Atomic      Atomic             Coordinates (Angstroms)
 Number     Number       Type             X           Y           Z
 ---------------------------------------------------------------------
      1          6           0       -2.125029   -0.576474    0.308441
      2          6           0       -2.919833   -1.821088   -0.088054
      3          6           0       -2.317562   -3.110225    0.471580
      4          1           0       -1.089932   -0.682501   -0.044089
      5          1           0       -2.077131   -0.514285    1.404449
      6          1           0       -2.967396   -1.880160   -1.182980
      7          1           0       -3.953207   -1.712002    0.265295
      8          1           0       -2.284974   -3.077067    1.565399
      9          1           0       -1.293562   -3.246181    0.108895
     10          1           0       -2.901443   -3.987481    0.176002
     11          6           0       -2.714722    0.720193   -0.243505
     12          6           0       -1.919918    1.964807    0.152990
     13          6           0       -2.522189    3.253944   -0.406643
     14          1           0       -2.762620    0.658004   -1.339513
     15          1           0       -3.749819    0.826219    0.109026
     16          1           0       -0.886545    1.855721   -0.200358
     17          1           0       -1.872355    2.023879    1.247917
     18          1           0       -3.546189    3.389900   -0.043958
     19          1           0       -2.554778    3.220786   -1.500462
     20          1           0       -1.938309    4.131200   -0.111066
     21          6           0        2.746534   -0.761389    0.003251
     22          6           0        1.798612   -1.901511   -0.370312
     23          6           0        2.466656   -3.274720   -0.294090
     24          1           0        3.618411   -0.784159   -0.664775
     25          1           0        3.127493   -0.928900    1.020209
     26          1           0        1.418479   -1.731174   -1.385742
     27          1           0        0.928799   -1.875906    0.298557
     28          1           0        2.830714   -3.470275    0.719725
     29          1           0        3.323176   -3.324721   -0.974145
     30          1           0        1.771126   -4.075132   -0.565082
     31          6           0        2.093217    0.617670   -0.068187
     32          6           0        3.041139    1.757792    0.305375
     33          6           0        2.373095    3.131001    0.229153
     34          1           0        1.712258    0.785182   -1.085146
     35          1           0        1.221341    0.640441    0.599839
     36          1           0        3.910952    1.732188   -0.363494
     37          1           0        3.421273    1.587455    1.320806
     38          1           0        1.516576    3.181002    0.909209
     39          1           0        2.009038    3.326556   -0.784662
     40          1           0        3.068625    3.931415    0.500146
 ---------------------------------------------------------------------

 SCF Done:  E(RHF) =  -470.732195591     A.U. after   11 cycles
 E2 =    -0.1585610449D+01 EUMP2 =    -0.47231780603914D+03

 The electronic state is 1-A.
 Alpha  occ. eigenvalues --  -11.21635 -11.21633 -11.21557 -11.21491 -11.21443
 Alpha  occ. eigenvalues --  -11.21382 -11.21322 -11.21252 -11.21115 -11.21091
 Alpha  occ. eigenvalues --  -11.21039 -11.21006  -1.08511  -1.08343  -1.03600
 Alpha  occ. eigenvalues --   -1.03452  -0.96030  -0.95917  -0.87045  -0.86937
 Alpha  occ. eigenvalues --   -0.79753  -0.79445  -0.78605  -0.77925  -0.65200
 Alpha  occ. eigenvalues --   -0.64916  -0.61061  -0.60830  -0.59482  -0.59183
 Alpha  occ. eigenvalues --   -0.57745  -0.57443  -0.55316  -0.55198  -0.52723
 Alpha  occ. eigenvalues --   -0.52620  -0.52511  -0.52299  -0.49964  -0.49875
 Alpha  occ. eigenvalues --   -0.48231  -0.47677  -0.46859  -0.46688  -0.46356
 Alpha  occ. eigenvalues --   -0.45812  -0.45642  -0.44674  -0.43820  -0.43708
 Alpha virt. eigenvalues --    0.21515   0.21834   0.23416   0.24863   0.25302
 Alpha virt. eigenvalues --    0.25696   0.26198   0.27231   0.29046   0.29999
 Alpha virt. eigenvalues --    0.30406   0.30758   0.31546   0.31761   0.32195

 Mulliken charges:
               1
     1  C   -0.308612
     2  C   -0.298794
     3  C   -0.480530
     4  H    0.161659
     5  H    0.147449
     6  H    0.151547
     7  H    0.151709
     8  H    0.154531
     9  H    0.160044
    10  H    0.160137
    11  C   -0.297103
    12  C   -0.307468
    13  C   -0.475587
    14  H    0.148865
    15  H    0.149086
    16  H    0.161740
    17  H    0.149956
    18  H    0.154759
    19  H    0.154710
    20  H    0.160499
    21  C   -0.297361
    22  C   -0.307733
    23  C   -0.476197
    24  H    0.149607
    25  H    0.149654
    26  H    0.150713
    27  H    0.160324
    28  H    0.155665
    29  H    0.155387
    30  H    0.160821
    31  C   -0.304603
    32  C   -0.299320
    33  C   -0.477813
    34  H    0.148439
    35  H    0.156765
    36  H    0.151928
    37  H    0.152013
    38  H    0.157679
    39  H    0.155073
    40  H    0.160362
 Sum of Mulliken charges =  -0.00000

 Dipole moment (field-independent basis, Debye):
    X=              0.0691    Y=             -0.0058    Z=              0.0057  Tot=              0.0696
 Quadrupole moment (field-independent basis, Debye-Ang):
   XX=            -84.7958   YY=            -86.9766   ZZ=            -83.2284
   XY=              0.6716   XZ=             -0.7851   YZ=              0.3520

 Normal termination of Gaussian 16 at Wed May  5 19:50:20 2021.
