 Gaussian 16, Revision A.03,
 Gaussian 16:  EM64L-G16RevA.03 25-Dec-2016

 -------------
 #p 6-31g* mp2
 -------------

 ------------------------------------------------------
 Input file generated by CHIRIPA (05-May-2021 14:53:16)
 ------------------------------------------------------
 Symbolic Z-matrix:
 Charge =  0 Multiplicity = 1

                         Standard orientation:
 ---------------------------------------------------------------------
 Center     Atomic      Atomic             Coordinates (Angstroms)
 Number     Number       Type             X           Y           Z
 ---------------------------------------------------------------------
      1          6           0        3.477644   -0.304427    0.241442
      2          6           0        4.562656   -1.164431   -0.407502
      3          6           0        4.398304   -2.653501   -0.101799
      4          1           0        3.495860   -0.461191    1.328658
      5          1           0        2.492637   -0.644679   -0.106960
      6          1           0        5.545394   -0.821761   -0.059050
      7          1           0        4.541981   -1.005456   -1.493281
      8          1           0        3.431494   -3.016893   -0.464877
      9          1           0        4.440608   -2.832154    0.977503
     10          1           0        5.184454   -3.249733   -0.575438
     11          6           0        3.628411    1.186585   -0.055005
     12          6           0        2.543399    2.046589    0.593939
     13          6           0        2.707751    3.535659    0.288236
     14          1           0        4.613418    1.526837    0.293396
     15          1           0        3.610195    1.343349   -1.142221
     16          1           0        2.564074    1.887615    1.679717
     17          1           0        1.560661    1.703919    0.245486
     18          1           0        2.665447    3.714312   -0.791067
     19          1           0        3.674561    3.899052    0.651313
     20          1           0        1.921600    4.131892    0.761875
     21          6           0       -4.954003    0.928415   -0.044233
     22          6           0       -3.818873    1.496509   -0.631830
     23          6           0       -2.606705    0.800283   -0.653417
     24          6           0       -2.565222   -0.467662   -0.075591
     25          6           0       -3.678850   -1.060527    0.517398
     26          6           0       -4.880498   -0.346043    0.527497
     27          1           0       -5.891559    1.476351   -0.031927
     28          1           0       -3.873021    2.486100   -1.076602
     29          1           0       -1.712633    1.216384   -1.101651
     30          1           0       -3.593927   -2.048782    0.952781
     31          1           0       -5.760452   -0.789717    0.984531
     32          7           0       -1.287523   -1.214390   -0.092363
     33          8           0       -1.277102   -2.329948    0.423446
     34          8           0       -0.320675   -0.669978   -0.621002
 ---------------------------------------------------------------------

 SCF Done:  E(RHF) =  -669.536668298     A.U. after   15 cycles
 E2 =    -0.2091649231D+01 EUMP2 =    -0.67162831752888D+03

 The electronic state is 1-A.
 Alpha  occ. eigenvalues --  -20.61098 -20.61086 -15.86104 -11.31367 -11.27922
 Alpha  occ. eigenvalues --  -11.27918 -11.27649 -11.26916 -11.26906 -11.20687
 Alpha  occ. eigenvalues --  -11.20508 -11.20399 -11.20322 -11.19859 -11.19836
 Alpha  occ. eigenvalues --   -1.60137  -1.39696  -1.19528  -1.08944  -1.07275
 Alpha  occ. eigenvalues --   -1.04916  -1.02507  -0.95796  -0.94954  -0.86319
 Alpha  occ. eigenvalues --   -0.85975  -0.82634  -0.78580  -0.77697  -0.77027
 Alpha  occ. eigenvalues --   -0.72331  -0.71437  -0.70637  -0.65189  -0.64919
 Alpha  occ. eigenvalues --   -0.63889  -0.62264  -0.59908  -0.58358  -0.56561
 Alpha  occ. eigenvalues --   -0.55423  -0.54239  -0.53249  -0.53007  -0.51716
 Alpha  occ. eigenvalues --   -0.51382  -0.49188  -0.49082  -0.48801  -0.46897
 Alpha  occ. eigenvalues --   -0.45628  -0.45183  -0.44619  -0.44263  -0.42708
 Alpha  occ. eigenvalues --   -0.37502  -0.36513
 Alpha virt. eigenvalues --    0.04804   0.11138   0.16290   0.21125   0.23869
 Alpha virt. eigenvalues --    0.25183   0.26836   0.27482   0.28031   0.28901
 Alpha virt. eigenvalues --    0.29178   0.30867   0.31847   0.32496   0.32537

 Mulliken charges:
               1
     1  C   -0.312640
     2  C   -0.298034
     3  C   -0.476348
     4  H    0.144222
     5  H    0.182529
     6  H    0.145668
     7  H    0.149331
     8  H    0.164068
     9  H    0.152779
    10  H    0.154434
    11  C   -0.295659
    12  C   -0.303349
    13  C   -0.475113
    14  H    0.143984
    15  H    0.147049
    16  H    0.149170
    17  H    0.160780
    18  H    0.152438
    19  H    0.153874
    20  H    0.154235
    21  C   -0.170372
    22  C   -0.218568
    23  C   -0.170881
    24  C    0.157714
    25  C   -0.170370
    26  C   -0.218616
    27  H    0.226311
    28  H    0.224269
    29  H    0.276053
    30  H    0.276027
    31  H    0.224087
    32  N    0.491460
    33  O   -0.457565
    34  O   -0.462968
 Sum of Mulliken charges =  -0.00000

 Dipole moment (field-independent basis, Debye):
    X=             -4.9168    Y=              2.4369    Z=              0.0180  Tot=              5.4876
 Quadrupole moment (field-independent basis, Debye-Ang):
   XX=            -72.2030   YY=            -96.4602   ZZ=            -93.7740
   XY=             -3.0576   XZ=             -0.7118   YZ=             -2.2523

 Normal termination of Gaussian 16 at Thu May  6 02:46:11 2021.
