 Gaussian 16, Revision A.03,
 Gaussian 16:  EM64L-G16RevA.03 25-Dec-2016

 -------------
 #p 6-31g* mp2
 -------------

 ------------------------------------------------------
 Input file generated by CHIRIPA (05-May-2021 14:55:21)
 ------------------------------------------------------
 Symbolic Z-matrix:
 Charge =  0 Multiplicity = 1

                         Standard orientation:
 ---------------------------------------------------------------------
 Center     Atomic      Atomic             Coordinates (Angstroms)
 Number     Number       Type             X           Y           Z
 ---------------------------------------------------------------------
      1          6           0        4.078896    0.182592   -1.778801
      2          6           0        4.507193    0.295385   -0.452015
      3          6           0        3.654545   -0.049040    0.601032
      4          6           0        2.374428   -0.504736    0.289691
      5          6           0        1.918517   -0.628070   -1.021882
      6          6           0        2.788200   -0.277964   -2.059005
      7          1           0        4.747870    0.452356   -2.590649
      8          1           0        5.509025    0.652766   -0.231430
      9          1           0        3.960365    0.028614    1.637305
     10          1           0        0.914155   -0.987411   -1.210424
     11          1           0        2.452879   -0.366574   -3.088449
     12          7           0        1.462750   -0.872370    1.396077
     13          8           0        0.339768   -1.271233    1.095319
     14          8           0        1.888423   -0.754698    2.543070
     15          6           0       -3.881367    0.198201    0.017849
     16          6           0       -4.090899   -1.046627   -0.844987
     17          6           0       -5.395100   -1.776657   -0.522637
     18          1           0       -3.888389   -0.092371    1.077312
     19          1           0       -4.729997    0.881549   -0.124477
     20          1           0       -3.241449   -1.726807   -0.702132
     21          1           0       -4.083185   -0.753086   -1.902527
     22          1           0       -6.254953   -1.118272   -0.683208
     23          1           0       -5.408435   -2.097525    0.524008
     24          1           0       -5.524735   -2.663352   -1.150991
     25          6           0       -2.581823    0.938811   -0.292653
     26          6           0       -2.372291    2.183638    0.570182
     27          6           0       -1.068090    2.913668    0.247832
     28          1           0       -1.733193    0.255462   -0.150328
     29          1           0       -2.574801    1.229382   -1.352118
     30          1           0       -2.380005    1.890097    1.627721
     31          1           0       -3.221741    2.863818    0.427325
     32          1           0       -1.054756    3.234536   -0.798814
     33          1           0       -0.208238    2.255283    0.408402
     34          1           0       -0.938455    3.800363    0.876185
 ---------------------------------------------------------------------

 SCF Done:  E(RHF) =  -669.536525967     A.U. after   15 cycles
 E2 =    -0.2091981251D+01 EUMP2 =    -0.67162850721759D+03

 The electronic state is 1-A.
 Alpha  occ. eigenvalues --  -20.61011 -20.61000 -15.86030 -11.31309 -11.27862
 Alpha  occ. eigenvalues --  -11.27859 -11.27590 -11.26858 -11.26846 -11.21000
 Alpha  occ. eigenvalues --  -11.20971 -11.20685 -11.20670 -11.20590 -11.20545
 Alpha  occ. eigenvalues --   -1.60063  -1.39621  -1.19469  -1.08883  -1.07760
 Alpha  occ. eigenvalues --   -1.04855  -1.02951  -0.95733  -0.95407  -0.86433
 Alpha  occ. eigenvalues --   -0.86260  -0.82567  -0.79016  -0.77700  -0.77510
 Alpha  occ. eigenvalues --   -0.72257  -0.71375  -0.70576  -0.65130  -0.64860
 Alpha  occ. eigenvalues --   -0.64350  -0.62204  -0.60335  -0.58784  -0.57029
 Alpha  occ. eigenvalues --   -0.55363  -0.54689  -0.53188  -0.52948  -0.52137
 Alpha  occ. eigenvalues --   -0.51854  -0.49359  -0.49018  -0.49003  -0.47351
 Alpha  occ. eigenvalues --   -0.46043  -0.45358  -0.45117  -0.44630  -0.43175
 Alpha  occ. eigenvalues --   -0.37442  -0.36448
 Alpha virt. eigenvalues --    0.04861   0.11165   0.16336   0.21107   0.23425
 Alpha virt. eigenvalues --    0.24733   0.26028   0.27412   0.27724   0.28265
 Alpha virt. eigenvalues --    0.29099   0.31115   0.31696   0.32169   0.32304

 Mulliken charges:
               1
     1  C   -0.170249
     2  C   -0.218502
     3  C   -0.170715
     4  C    0.157548
     5  C   -0.170720
     6  C   -0.218554
     7  H    0.226140
     8  H    0.223913
     9  H    0.275842
    10  H    0.277248
    11  H    0.224267
    12  N    0.489333
    13  O   -0.461975
    14  O   -0.458198
    15  C   -0.296858
    16  C   -0.300924
    17  C   -0.475421
    18  H    0.155309
    19  H    0.145553
    20  H    0.157260
    21  H    0.146385
    22  H    0.153067
    23  H    0.157536
    24  H    0.157708
    25  C   -0.309988
    26  C   -0.298560
    27  C   -0.474573
    28  H    0.169036
    29  H    0.140593
    30  H    0.158263
    31  H    0.148521
    32  H    0.150318
    33  H    0.152178
    34  H    0.159221
 Sum of Mulliken charges =  -0.00000

 Dipole moment (field-independent basis, Debye):
    X=              3.4099    Y=              1.1684    Z=             -3.7568  Tot=              5.2064
 Quadrupole moment (field-independent basis, Debye-Ang):
   XX=            -78.2064   YY=            -97.1073   ZZ=            -94.6477
   XY=              1.8546   XZ=             -5.8681   YZ=              2.9792

 Normal termination of Gaussian 16 at Thu May  6 07:46:13 2021.
