 Gaussian 16, Revision A.03,
 Gaussian 16:  EM64L-G16RevA.03 25-Dec-2016

 -------------
 #p 6-31g* mp2
 -------------

 ------------------------------------------------------
 Input file generated by CHIRIPA (05-May-2021 14:55:25)
 ------------------------------------------------------
 Symbolic Z-matrix:
 Charge =  0 Multiplicity = 1

                         Standard orientation:
 ---------------------------------------------------------------------
 Center     Atomic      Atomic             Coordinates (Angstroms)
 Number     Number       Type             X           Y           Z
 ---------------------------------------------------------------------
      1          6           0        1.004711   -1.852051    0.949982
      2          6           0        2.284189   -2.381572    0.752332
      3          6           0        3.313239   -1.581780    0.246429
      4          6           0        3.026401   -0.250728   -0.052427
      5          6           0        1.761962    0.305994    0.133438
      6          6           0        0.748134   -0.512320    0.640450
      7          1           0        0.211233   -2.480543    1.343410
      8          1           0        2.486336   -3.421677    0.991836
      9          1           0        4.312889   -1.965997    0.083657
     10          1           0        1.590862    1.346483   -0.114607
     11          1           0       -0.244570   -0.098392    0.792924
     12          7           0        4.107753    0.605781   -0.588590
     13          8           0        3.829374    1.775349   -0.844034
     14          8           0        5.213219    0.091325   -0.743239
     15          6           0       -4.331422    0.225187   -0.237738
     16          6           0       -4.329142   -1.283512   -0.486348
     17          6           0       -5.708186   -1.821667   -0.868999
     18          1           0       -5.051402    0.458044    0.558723
     19          1           0       -4.688377    0.738152   -1.141534
     20          1           0       -3.970985   -1.793398    0.417177
     21          1           0       -3.608945   -1.512826   -1.282178
     22          1           0       -6.069801   -1.339612   -1.783033
     23          1           0       -6.433899   -1.621778   -0.074023
     24          1           0       -5.683642   -2.902072   -1.042150
     25          6           0       -2.959921    0.778053    0.145734
     26          6           0       -2.962202    2.286752    0.394342
     27          6           0       -1.583157    2.824907    0.776994
     28          1           0       -2.602967    0.265088    1.049529
     29          1           0       -2.239941    0.545196   -0.650727
     30          1           0       -3.682399    2.516066    1.190174
     31          1           0       -3.320359    2.796639   -0.509181
     32          1           0       -0.857445    2.625018   -0.017982
     33          1           0       -1.221541    2.342852    1.691028
     34          1           0       -1.607702    3.905312    0.950145
 ---------------------------------------------------------------------

 SCF Done:  E(RHF) =  -669.535075228     A.U. after   15 cycles
 E2 =    -0.2092748073D+01 EUMP2 =    -0.67162782330027D+03

 The electronic state is 1-A.
 Alpha  occ. eigenvalues --  -20.60663 -20.60658 -15.85713 -11.31045 -11.27615
 Alpha  occ. eigenvalues --  -11.27572 -11.27328 -11.26634 -11.26476 -11.22559
 Alpha  occ. eigenvalues --  -11.22498 -11.22423 -11.22241 -11.22077 -11.21721
 Alpha  occ. eigenvalues --   -1.59739  -1.39293  -1.19205  -1.09393  -1.08607
 Alpha  occ. eigenvalues --   -1.04614  -1.04398  -0.96875  -0.95452  -0.87890
 Alpha  occ. eigenvalues --   -0.86005  -0.82298  -0.80490  -0.79276  -0.77308
 Alpha  occ. eigenvalues --   -0.71933  -0.71061  -0.70324  -0.66008  -0.64853
 Alpha  occ. eigenvalues --   -0.64613  -0.62001  -0.61785  -0.60203  -0.58497
 Alpha  occ. eigenvalues --   -0.56166  -0.55110  -0.53530  -0.53376  -0.52932
 Alpha  occ. eigenvalues --   -0.52645  -0.50808  -0.48813  -0.48690  -0.48649
 Alpha  occ. eigenvalues --   -0.47511  -0.46685  -0.46670  -0.44706  -0.44681
 Alpha  occ. eigenvalues --   -0.37192  -0.36196
 Alpha virt. eigenvalues --    0.05179   0.11413   0.16632   0.19941   0.22381
 Alpha virt. eigenvalues --    0.23486   0.24571   0.25784   0.26480   0.28302
 Alpha virt. eigenvalues --    0.29204   0.30178   0.30850   0.31391   0.31611

 Mulliken charges:
               1
     1  C   -0.174528
     2  C   -0.218488
     3  C   -0.171479
     4  C    0.159785
     5  C   -0.179061
     6  C   -0.228565
     7  H    0.225071
     8  H    0.222628
     9  H    0.274937
    10  H    0.277821
    11  H    0.242164
    12  N    0.488103
    13  O   -0.460752
    14  O   -0.461031
    15  C   -0.296852
    16  C   -0.300659
    17  C   -0.476192
    18  H    0.152417
    19  H    0.153928
    20  H    0.147708
    21  H    0.153287
    22  H    0.157710
    23  H    0.156580
    24  H    0.161651
    25  C   -0.308233
    26  C   -0.298678
    27  C   -0.484054
    28  H    0.142561
    29  H    0.151746
    30  H    0.155756
    31  H    0.157396
    32  H    0.154042
    33  H    0.153734
    34  H    0.169549
 Sum of Mulliken charges =  -0.00000

 Dipole moment (field-independent basis, Debye):
    X=             -4.1350    Y=             -2.8801    Z=              1.8375  Tot=              5.3638
 Quadrupole moment (field-independent basis, Debye-Ang):
   XX=           -116.1481   YY=            -90.2609   ZZ=            -94.8931
   XY=            -11.8124   XZ=              5.8487   YZ=             -0.7719

 Normal termination of Gaussian 16 at Thu May  6 01:37:45 2021.
