 Gaussian 16, Revision A.03,
 Gaussian 16:  EM64L-G16RevA.03 25-Dec-2016

 -------------
 #p 6-31g* mp2
 -------------

 ------------------------------------------------------
 Input file generated by CHIRIPA (05-May-2021 14:53:15)
 ------------------------------------------------------
 Symbolic Z-matrix:
 Charge =  0 Multiplicity = 1

                         Standard orientation:
 ---------------------------------------------------------------------
 Center     Atomic      Atomic             Coordinates (Angstroms)
 Number     Number       Type             X           Y           Z
 ---------------------------------------------------------------------
      1          6           0        4.132808    0.456591   -0.123658
      2          6           0        3.518399    1.495420    0.815129
      3          6           0        2.064777    1.818968    0.468585
      4          1           0        4.074008    0.825197   -1.156914
      5          1           0        3.532333   -0.462834   -0.085146
      6          1           0        4.120652    2.412137    0.775902
      7          1           0        3.578842    1.124381    1.846290
      8          1           0        1.445274    0.918151    0.526429
      9          1           0        1.990162    2.213223   -0.550039
     10          1           0        1.645285    2.563672    1.152181
     11          6           0        5.585693    0.122657    0.210017
     12          6           0        6.200102   -0.916173   -0.728770
     13          6           0        7.653725   -1.239721   -0.382227
     14          1           0        6.186169    1.042081    0.171504
     15          1           0        5.644494   -0.245950    1.243272
     16          1           0        6.139659   -0.545134   -1.759931
     17          1           0        5.597850   -1.832889   -0.689544
     18          1           0        7.728339   -1.633976    0.636398
     19          1           0        8.273227   -0.338904   -0.440071
     20          1           0        8.073216   -1.984425   -1.065823
     21          6           0       -1.316781   -0.607838    0.235270
     22          6           0       -2.223275   -1.604391    0.611664
     23          6           0       -3.599300   -1.403893    0.467083
     24          6           0       -4.035999   -0.189380   -0.059740
     25          6           0       -3.157803    0.822784   -0.443908
     26          6           0       -1.786111    0.600439   -0.290388
     27          1           0       -0.249534   -0.772077    0.351056
     28          1           0       -1.861646   -2.543742    1.020184
     29          1           0       -4.323108   -2.158383    0.750393
     30          1           0       -3.548414    1.748772   -0.848123
     31          1           0       -1.084425    1.376157   -0.583548
     32          7           0       -5.490442    0.034443   -0.217534
     33          8           0       -5.849746    1.113216   -0.684212
     34          8           0       -6.243591   -0.873133    0.128454
 ---------------------------------------------------------------------

 SCF Done:  E(RHF) =  -669.535330753     A.U. after   15 cycles
 E2 =    -0.2091275069D+01 EUMP2 =    -0.67162660582159D+03

 The electronic state is 1-A.
 Alpha  occ. eigenvalues --  -20.60710 -20.60705 -15.85763 -11.31116 -11.27684
 Alpha  occ. eigenvalues --  -11.27668 -11.27408 -11.26704 -11.26651 -11.22599
 Alpha  occ. eigenvalues --  -11.22389 -11.22287 -11.22212 -11.22078 -11.21574
 Alpha  occ. eigenvalues --   -1.59786  -1.39340  -1.19284  -1.09256  -1.08683
 Alpha  occ. eigenvalues --   -1.04684  -1.04373  -0.96850  -0.95522  -0.87875
 Alpha  occ. eigenvalues --   -0.86077  -0.82354  -0.80453  -0.79035  -0.77398
 Alpha  occ. eigenvalues --   -0.71981  -0.71109  -0.70429  -0.65887  -0.64937
 Alpha  occ. eigenvalues --   -0.64690  -0.62040  -0.61764  -0.60217  -0.58432
 Alpha  occ. eigenvalues --   -0.56204  -0.55166  -0.53543  -0.53276  -0.53012
 Alpha  occ. eigenvalues --   -0.52744  -0.50786  -0.48769  -0.48738  -0.48723
 Alpha  occ. eigenvalues --   -0.47468  -0.46584  -0.46485  -0.44748  -0.44608
 Alpha  occ. eigenvalues --   -0.37262  -0.36286
 Alpha virt. eigenvalues --    0.05125   0.11355   0.16609   0.19703   0.22265
 Alpha virt. eigenvalues --    0.23689   0.25078   0.25630   0.26677   0.27532
 Alpha virt. eigenvalues --    0.28900   0.29683   0.30873   0.31492   0.31864

 Mulliken charges:
               1
     1  C   -0.298094
     2  C   -0.300510
     3  C   -0.481752
     4  H    0.151363
     5  H    0.144536
     6  H    0.156651
     7  H    0.154424
     8  H    0.146284
     9  H    0.156466
    10  H    0.166143
    11  C   -0.298909
    12  C   -0.300069
    13  C   -0.476146
    14  H    0.151716
    15  H    0.150581
    16  H    0.152949
    17  H    0.151300
    18  H    0.155757
    19  H    0.156348
    20  H    0.161874
    21  C   -0.174543
    22  C   -0.218513
    23  C   -0.171149
    24  C    0.158508
    25  C   -0.171480
    26  C   -0.221577
    27  H    0.228338
    28  H    0.223088
    29  H    0.275245
    30  H    0.275468
    31  H    0.228880
    32  N    0.488057
    33  O   -0.460574
    34  O   -0.460660
 Sum of Mulliken charges =  -0.00000

 Dipole moment (field-independent basis, Debye):
    X=              5.3908    Y=             -0.7147    Z=              0.5698  Tot=              5.4677
 Quadrupole moment (field-independent basis, Debye-Ang):
   XX=           -136.6632   YY=            -89.7941   ZZ=            -94.4943
   XY=              3.9356   XZ=             -3.2218   YZ=             -2.4338

 Normal termination of Gaussian 16 at Wed May  5 15:37:55 2021.
