 Gaussian 16, Revision A.03,
 Gaussian 16:  EM64L-G16RevA.03 25-Dec-2016

 -------------
 #p 6-31g* mp2
 -------------

 ------------------------------------------------------
 Input file generated by CHIRIPA (05-May-2021 14:55:20)
 ------------------------------------------------------
 Symbolic Z-matrix:
 Charge =  0 Multiplicity = 1

                         Standard orientation:
 ---------------------------------------------------------------------
 Center     Atomic      Atomic             Coordinates (Angstroms)
 Number     Number       Type             X           Y           Z
 ---------------------------------------------------------------------
      1          6           0        3.513758   -2.275464    0.367349
      2          6           0        3.222161   -1.736196   -0.889902
      3          6           0        2.907065   -0.380873   -1.025411
      4          6           0        2.892738    0.409813    0.122588
      5          6           0        3.178710   -0.097983    1.388942
      6          6           0        3.491142   -1.456082    1.500761
      7          1           0        3.757498   -3.329390    0.463414
      8          1           0        3.238967   -2.370164   -1.771859
      9          1           0        2.677303    0.062632   -1.986624
     10          1           0        3.153960    0.559019    2.249844
     11          1           0        3.717178   -1.872157    2.478428
     12          7           0        2.560570    1.846102   -0.008329
     13          8           0        2.554702    2.521564    1.018488
     14          8           0        2.312375    2.269207   -1.135280
     15          6           0       -4.488095    0.022179   -0.295640
     16          6           0       -5.409020   -0.236512    0.897238
     17          6           0       -6.836663    0.256684    0.659773
     18          1           0       -4.474143    1.098935   -0.513234
     19          1           0       -4.904247   -0.471062   -1.184981
     20          1           0       -4.990533    0.255913    1.784370
     21          1           0       -5.420632   -1.312755    1.112138
     22          1           0       -7.277455   -0.243185   -0.208808
     23          1           0       -6.844912    1.334396    0.467242
     24          1           0       -7.477903    0.061709    1.525022
     25          6           0       -3.057463   -0.465303   -0.073421
     26          6           0       -2.136538   -0.206612   -1.266300
     27          6           0       -0.708896   -0.699808   -1.028834
     28          1           0       -2.641311    0.027938    0.815920
     29          1           0       -3.071416   -1.542059    0.144173
     30          1           0       -2.124926    0.869631   -1.481200
     31          1           0       -2.555026   -0.699037   -2.153431
     32          1           0       -0.700646   -1.777520   -0.836302
     33          1           0       -0.268103   -0.199939   -0.160252
     34          1           0       -0.067655   -0.504833   -1.894083
 ---------------------------------------------------------------------

 SCF Done:  E(RHF) =  -669.535072248     A.U. after   15 cycles
 E2 =    -0.2092312422D+01 EUMP2 =    -0.67162738466910D+03

 The electronic state is 1-A.
 Alpha  occ. eigenvalues --  -20.60768 -20.60755 -15.85814 -11.31138 -11.27739
 Alpha  occ. eigenvalues --  -11.27727 -11.27477 -11.26736 -11.26726 -11.21478
 Alpha  occ. eigenvalues --  -11.21422 -11.21262 -11.21201 -11.21031 -11.20949
 Alpha  occ. eigenvalues --   -1.59839  -1.39393  -1.19335  -1.08733  -1.08291
 Alpha  occ. eigenvalues --   -1.04739  -1.03406  -0.95880  -0.95567  -0.86904
 Alpha  occ. eigenvalues --   -0.86132  -0.82406  -0.79476  -0.78102  -0.77454
 Alpha  occ. eigenvalues --   -0.72035  -0.71166  -0.70455  -0.64992  -0.64914
 Alpha  occ. eigenvalues --   -0.64745  -0.62100  -0.60802  -0.59248  -0.57479
 Alpha  occ. eigenvalues --   -0.55255  -0.55169  -0.53269  -0.52854  -0.52427
 Alpha  occ. eigenvalues --   -0.52221  -0.49809  -0.48792  -0.48790  -0.47787
 Alpha  occ. eigenvalues --   -0.46496  -0.45645  -0.45563  -0.44802  -0.43673
 Alpha  occ. eigenvalues --   -0.37287  -0.36285
 Alpha virt. eigenvalues --    0.05059   0.11310   0.16559   0.21235   0.22986
 Alpha virt. eigenvalues --    0.24235   0.26740   0.26771   0.27601   0.27863
 Alpha virt. eigenvalues --    0.28473   0.30714   0.31266   0.31563   0.32019

 Mulliken charges:
               1
     1  C   -0.170484
     2  C   -0.218012
     3  C   -0.165446
     4  C    0.158948
     5  C   -0.172228
     6  C   -0.218400
     7  H    0.225424
     8  H    0.223244
     9  H    0.274816
    10  H    0.275390
    11  H    0.223183
    12  N    0.488264
    13  O   -0.461115
    14  O   -0.460634
    15  C   -0.298472
    16  C   -0.299594
    17  C   -0.475711
    18  H    0.152035
    19  H    0.148608
    20  H    0.152604
    21  H    0.150442
    22  H    0.154627
    23  H    0.156247
    24  H    0.159713
    25  C   -0.298619
    26  C   -0.300979
    27  C   -0.472732
    28  H    0.151125
    29  H    0.146893
    30  H    0.158493
    31  H    0.149777
    32  H    0.150752
    33  H    0.155833
    34  H    0.156009
 Sum of Mulliken charges =  -0.00000

 Dipole moment (field-independent basis, Debye):
    X=              1.1987    Y=             -5.0196    Z=              0.4538  Tot=              5.1806
 Quadrupole moment (field-independent basis, Debye-Ang):
   XX=            -89.9508   YY=            -98.8306   ZZ=            -89.6932
   XY=            -14.0056   XZ=              2.1823   YZ=              0.5238

 Normal termination of Gaussian 16 at Wed May  5 22:11:31 2021.
