 Gaussian 16, Revision A.03,
 Gaussian 16:  EM64L-G16RevA.03 25-Dec-2016

 -------------
 #p 6-31g* mp2
 -------------

 ------------------------------------------------------
 Input file generated by CHIRIPA (05-May-2021 14:53:17)
 ------------------------------------------------------
 Symbolic Z-matrix:
 Charge =  0 Multiplicity = 1

                         Standard orientation:
 ---------------------------------------------------------------------
 Center     Atomic      Atomic             Coordinates (Angstroms)
 Number     Number       Type             X           Y           Z
 ---------------------------------------------------------------------
      1          6           0        4.447592    0.035903   -0.398735
      2          6           0        5.921349   -0.232170   -0.091873
      3          6           0        6.848698    0.188668   -1.232361
      4          1           0        4.167735   -0.498442   -1.316939
      5          1           0        4.312353    1.106389   -0.606499
      6          1           0        6.053526   -1.301600    0.116608
      7          1           0        6.197680    0.302721    0.825813
      8          1           0        6.746214    1.259264   -1.437108
      9          1           0        6.601241   -0.354172   -2.150343
     10          1           0        7.897411   -0.011879   -0.991858
     11          6           0        3.508062   -0.379506    0.731949
     12          6           0        2.034305   -0.111432    0.425087
     13          6           0        1.106956   -0.532270    1.565575
     14          1           0        3.643301   -1.449991    0.939713
     15          1           0        3.787919    0.154840    1.650153
     16          1           0        1.757974   -0.646324   -0.492599
     17          1           0        1.902128    0.957998    0.216606
     18          1           0        1.354413    0.010570    2.483557
     19          1           0        1.209440   -1.602867    1.770322
     20          1           0        0.058243   -0.331723    1.325072
     21          6           0       -2.522782    2.562881    0.223991
     22          6           0       -2.329045    1.638552    1.255787
     23          6           0       -2.649599    0.290384    1.070754
     24          6           0       -3.164223   -0.100575   -0.164400
     25          6           0       -3.368675    0.796398   -1.211744
     26          6           0       -3.041065    2.139601   -1.004315
     27          1           0       -2.271028    3.608241    0.376428
     28          1           0       -1.926701    1.964431    2.210757
     29          1           0       -2.509695   -0.446343    1.852468
     30          1           0       -3.771460    0.441561   -2.152633
     31          1           0       -3.192581    2.855231   -1.807410
     32          7           0       -3.507314   -1.525191   -0.372141
     33          8           0       -3.959255   -1.844311   -1.469660
     34          8           0       -3.317790   -2.295710    0.566485
 ---------------------------------------------------------------------

 SCF Done:  E(RHF) =  -669.534932613     A.U. after   15 cycles
 E2 =    -0.2092175811D+01 EUMP2 =    -0.67162710842434D+03

 The electronic state is 1-A.
 Alpha  occ. eigenvalues --  -20.60795 -20.60789 -15.85850 -11.31240 -11.27806
 Alpha  occ. eigenvalues --  -11.27794 -11.27550 -11.26828 -11.26818 -11.21726
 Alpha  occ. eigenvalues --  -11.21683 -11.21503 -11.21444 -11.21159 -11.21150
 Alpha  occ. eigenvalues --   -1.59870  -1.39422  -1.19424  -1.08804  -1.08530
 Alpha  occ. eigenvalues --   -1.04836  -1.03630  -0.96091  -0.95635  -0.87114
 Alpha  occ. eigenvalues --   -0.86217  -0.82468  -0.79701  -0.78342  -0.77510
 Alpha  occ. eigenvalues --   -0.72067  -0.71196  -0.70525  -0.65160  -0.65071
 Alpha  occ. eigenvalues --   -0.64819  -0.62189  -0.61027  -0.59482  -0.57719
 Alpha  occ. eigenvalues --   -0.55371  -0.55319  -0.53419  -0.52919  -0.52633
 Alpha  occ. eigenvalues --   -0.52372  -0.50025  -0.48828  -0.48820  -0.48013
 Alpha  occ. eigenvalues --   -0.46728  -0.45885  -0.45809  -0.44824  -0.43904
 Alpha  occ. eigenvalues --   -0.37398  -0.36348
 Alpha virt. eigenvalues --    0.04995   0.11171   0.16453   0.21239   0.22799
 Alpha virt. eigenvalues --    0.24275   0.26539   0.26807   0.27413   0.28025
 Alpha virt. eigenvalues --    0.28563   0.30741   0.31357   0.31740   0.31852

 Mulliken charges:
               1
     1  C   -0.298225
     2  C   -0.299720
     3  C   -0.475729
     4  H    0.150890
     5  H    0.147762
     6  H    0.153032
     7  H    0.151310
     8  H    0.154319
     9  H    0.155837
    10  H    0.160561
    11  C   -0.298593
    12  C   -0.297775
    13  C   -0.483724
    14  H    0.151616
    15  H    0.148119
    16  H    0.154929
    17  H    0.148210
    18  H    0.149469
    19  H    0.160220
    20  H    0.163092
    21  C   -0.170974
    22  C   -0.215919
    23  C   -0.174865
    24  C    0.159283
    25  C   -0.171140
    26  C   -0.218125
    27  H    0.225873
    28  H    0.225006
    29  H    0.277873
    30  H    0.275852
    31  H    0.223734
    32  N    0.488289
    33  O   -0.460378
    34  O   -0.460110
 Sum of Mulliken charges =  -0.00000

 Dipole moment (field-independent basis, Debye):
    X=              1.1580    Y=              5.0025    Z=              0.6907  Tot=              5.1810
 Quadrupole moment (field-independent basis, Debye-Ang):
   XX=           -103.3467   YY=            -95.2424   ZZ=            -91.2035
   XY=            -16.8143   XZ=             -0.4248   YZ=             -1.4556

 Normal termination of Gaussian 16 at Thu May  6 12:17:40 2021.
