 Gaussian 16, Revision A.03,
 Gaussian 16:  EM64L-G16RevA.03 25-Dec-2016

 -------------
 #p 6-31g* mp2
 -------------

 ------------------------------------------------------
 Input file generated by CHIRIPA (05-May-2021 14:53:12)
 ------------------------------------------------------
 Symbolic Z-matrix:
 Charge =  0 Multiplicity = 1

                         Standard orientation:
 ---------------------------------------------------------------------
 Center     Atomic      Atomic             Coordinates (Angstroms)
 Number     Number       Type             X           Y           Z
 ---------------------------------------------------------------------
      1          6           0        4.348091   -0.017088    0.359245
      2          6           0        4.606792   -1.157726   -0.625644
      3          6           0        6.075761   -1.579694   -0.668859
      4          1           0        4.970770    0.845063    0.083727
      5          1           0        4.670923   -0.327931    1.362515
      6          1           0        4.282290   -0.845330   -1.626505
      7          1           0        3.983283   -2.017196   -0.347863
      8          1           0        6.408842   -1.917112    0.317958
      9          1           0        6.709549   -0.738588   -0.967949
     10          1           0        6.238163   -2.396273   -1.379270
     11          6           0        2.884102    0.415920    0.413743
     12          6           0        2.625401    1.556557    1.398631
     13          6           0        1.156432    1.978525    1.441846
     14          1           0        2.561270    0.726763   -0.589528
     15          1           0        2.261423   -0.446232    0.689260
     16          1           0        3.248911    2.416028    1.120850
     17          1           0        2.949903    1.244162    2.399492
     18          1           0        0.522644    1.137419    1.740936
     19          1           0        0.823351    2.315943    0.455029
     20          1           0        0.994030    2.795104    2.152257
     21          6           0       -0.996354    1.066499   -1.537951
     22          6           0       -2.298914    1.576231   -1.532142
     23          6           0       -3.320060    0.907388   -0.850632
     24          6           0       -3.001869   -0.273960   -0.182456
     25          6           0       -1.713899   -0.807122   -0.169738
     26          6           0       -0.708512   -0.121457   -0.857929
     27          1           0       -0.209225    1.592606   -2.069959
     28          1           0       -2.525361    2.498606   -2.059393
     29          1           0       -4.337107    1.279680   -0.829807
     30          1           0       -1.518773   -1.728773    0.364960
     31          1           0        0.302166   -0.519661   -0.860728
     32          7           0       -4.074570   -0.990939    0.542566
     33          8           0       -3.768402   -2.029865    1.123539
     34          8           0       -5.201209   -0.500404    0.516134
 ---------------------------------------------------------------------

 SCF Done:  E(RHF) =  -669.533824473     A.U. after   15 cycles
 E2 =    -0.2093977990D+01 EUMP2 =    -0.67162780246361D+03

 The electronic state is 1-A.
 Alpha  occ. eigenvalues --  -20.60718 -20.60712 -15.85768 -11.31124 -11.27673
 Alpha  occ. eigenvalues --  -11.27647 -11.27394 -11.26715 -11.26596 -11.22467
 Alpha  occ. eigenvalues --  -11.22365 -11.22316 -11.22166 -11.21661 -11.21577
 Alpha  occ. eigenvalues --   -1.59793  -1.39347  -1.19284  -1.09279  -1.08684
 Alpha  occ. eigenvalues --   -1.04691  -1.04231  -0.96689  -0.95528  -0.87701
 Alpha  occ. eigenvalues --   -0.86092  -0.82361  -0.80315  -0.79169  -0.77384
 Alpha  occ. eigenvalues --   -0.71988  -0.71115  -0.70415  -0.65901  -0.64933
 Alpha  occ. eigenvalues --   -0.64694  -0.62049  -0.61628  -0.60048  -0.58346
 Alpha  occ. eigenvalues --   -0.55985  -0.55198  -0.53475  -0.53331  -0.52887
 Alpha  occ. eigenvalues --   -0.52574  -0.50631  -0.48758  -0.48745  -0.48574
 Alpha  occ. eigenvalues --   -0.47353  -0.46603  -0.46583  -0.44756  -0.44538
 Alpha  occ. eigenvalues --   -0.37194  -0.36232
 Alpha virt. eigenvalues --    0.05070   0.11333   0.16441   0.19978   0.22611
 Alpha virt. eigenvalues --    0.23895   0.24797   0.25505   0.27184   0.28247
 Alpha virt. eigenvalues --    0.29227   0.30410   0.30978   0.31463   0.31859

 Mulliken charges:
               1
     1  C   -0.297502
     2  C   -0.300818
     3  C   -0.476033
     4  H    0.151914
     5  H    0.153545
     6  H    0.149404
     7  H    0.151289
     8  H    0.157398
     9  H    0.156363
    10  H    0.162189
    11  C   -0.301771
    12  C   -0.300082
    13  C   -0.476018
    14  H    0.140286
    15  H    0.147141
    16  H    0.152988
    17  H    0.155803
    18  H    0.159130
    19  H    0.150556
    20  H    0.162684
    21  C   -0.173090
    22  C   -0.218727
    23  C   -0.171461
    24  C    0.159514
    25  C   -0.175496
    26  C   -0.215347
    27  H    0.224259
    28  H    0.223025
    29  H    0.275239
    30  H    0.274642
    31  H    0.232307
    32  N    0.488007
    33  O   -0.460775
    34  O   -0.460565
 Sum of Mulliken charges =  -0.00000

 Dipole moment (field-independent basis, Debye):
    X=              3.9482    Y=              2.5415    Z=             -2.4660  Tot=              5.3036
 Quadrupole moment (field-independent basis, Debye-Ang):
   XX=           -116.0577   YY=            -93.7728   ZZ=            -93.5372
   XY=            -10.9299   XZ=              8.3039   YZ=             -1.4129

 Normal termination of Gaussian 16 at Thu May  6 10:26:51 2021.
