 Gaussian 16, Revision A.03,
 Gaussian 16:  EM64L-G16RevA.03 25-Dec-2016

 -------------
 #p 6-31g* mp2
 -------------

 ------------------------------------------------------
 Input file generated by CHIRIPA (05-May-2021 14:55:23)
 ------------------------------------------------------
 Symbolic Z-matrix:
 Charge =  0 Multiplicity = 1

                         Standard orientation:
 ---------------------------------------------------------------------
 Center     Atomic      Atomic             Coordinates (Angstroms)
 Number     Number       Type             X           Y           Z
 ---------------------------------------------------------------------
      1          6           0       -1.511341    1.833722    1.193007
      2          6           0       -2.375461    2.073240    0.119486
      3          6           0       -3.175709    1.046583   -0.390541
      4          6           0       -3.086102   -0.213148    0.199660
      5          6           0       -2.235010   -0.483103    1.270200
      6          6           0       -1.443992    0.558563    1.763931
      7          1           0       -0.893274    2.637083    1.582879
      8          1           0       -2.429847    3.062552   -0.325879
      9          1           0       -3.853375    1.204377   -1.220775
     10          1           0       -2.202728   -1.479766    1.693330
     11          1           0       -0.773816    0.369654    2.597731
     12          7           0       -3.928403   -1.307969   -0.331657
     13          8           0       -3.830942   -2.408956    0.205897
     14          8           0       -4.670110   -1.044371   -1.275598
     15          6           0        4.313375   -0.064755    0.161064
     16          6           0        5.504263   -0.879168   -0.345398
     17          6           0        6.577897   -1.084002    0.723782
     18          1           0        4.669741    0.911714    0.516673
     19          1           0        3.873940   -0.572744    1.030683
     20          1           0        5.940470   -0.370507   -1.214653
     21          1           0        5.144994   -1.853737   -0.700021
     22          1           0        6.164157   -1.612049    1.588990
     23          1           0        6.964152   -0.120392    1.071434
     24          1           0        7.419938   -1.668640    0.340343
     25          6           0        3.231664    0.148488   -0.896366
     26          6           0        2.040777    0.962902   -0.389903
     27          6           0        0.967142    1.167736   -1.459083
     28          1           0        3.671098    0.656479   -1.765985
     29          1           0        2.875298   -0.827980   -1.251975
     30          1           0        2.400044    1.937471   -0.035281
     31          1           0        1.604568    0.454241    0.479351
     32          1           0        0.580886    0.204125   -1.806736
     33          1           0        1.380881    1.695784   -2.324292
     34          1           0        0.125100    1.752374   -1.075644
 ---------------------------------------------------------------------

 SCF Done:  E(RHF) =  -669.534066705     A.U. after   15 cycles
 E2 =    -0.2093707832D+01 EUMP2 =    -0.67162777453677D+03

 The electronic state is 1-A.
 Alpha  occ. eigenvalues --  -20.60817 -20.60811 -15.85872 -11.31262 -11.27854
 Alpha  occ. eigenvalues --  -11.27832 -11.27571 -11.26850 -11.26819 -11.22009
 Alpha  occ. eigenvalues --  -11.21864 -11.21734 -11.21671 -11.21319 -11.21194
 Alpha  occ. eigenvalues --   -1.59892  -1.39445  -1.19451  -1.08865  -1.08732
 Alpha  occ. eigenvalues --   -1.04856  -1.03823  -0.96263  -0.95660  -0.87279
 Alpha  occ. eigenvalues --   -0.86251  -0.82495  -0.79903  -0.78577  -0.77535
 Alpha  occ. eigenvalues --   -0.72090  -0.71216  -0.70552  -0.65385  -0.65101
 Alpha  occ. eigenvalues --   -0.64856  -0.62197  -0.61227  -0.59721  -0.57952
 Alpha  occ. eigenvalues --   -0.55555  -0.55348  -0.53622  -0.52942  -0.52773
 Alpha  occ. eigenvalues --   -0.52302  -0.50187  -0.48851  -0.48843  -0.48221
 Alpha  occ. eigenvalues --   -0.46946  -0.46112  -0.46045  -0.44846  -0.44103
 Alpha  occ. eigenvalues --   -0.37318  -0.36406
 Alpha virt. eigenvalues --    0.04985   0.11047   0.16428   0.20923   0.22667
 Alpha virt. eigenvalues --    0.24228   0.26031   0.26734   0.27271   0.27862
 Alpha virt. eigenvalues --    0.28581   0.30515   0.31328   0.31599   0.32204

 Mulliken charges:
               1
     1  C   -0.168944
     2  C   -0.221488
     3  C   -0.168308
     4  C    0.158608
     5  C   -0.171472
     6  C   -0.216285
     7  H    0.227459
     8  H    0.224560
     9  H    0.276216
    10  H    0.275941
    11  H    0.224106
    12  N    0.488029
    13  O   -0.460405
    14  O   -0.460045
    15  C   -0.297953
    16  C   -0.299952
    17  C   -0.475806
    18  H    0.148360
    19  H    0.147329
    20  H    0.152665
    21  H    0.153407
    22  H    0.154826
    23  H    0.154716
    24  H    0.161504
    25  C   -0.298344
    26  C   -0.300290
    27  C   -0.479448
    28  H    0.150572
    29  H    0.152207
    30  H    0.146311
    31  H    0.147917
    32  H    0.158005
    33  H    0.153038
    34  H    0.162963
 Sum of Mulliken charges =  -0.00000

 Dipole moment (field-independent basis, Debye):
    X=              2.8802    Y=              3.8278    Z=              1.8759  Tot=              5.1446
 Quadrupole moment (field-independent basis, Debye-Ang):
   XX=           -113.4699   YY=            -94.1826   ZZ=            -92.4966
   XY=            -13.6637   XZ=             -4.4804   YZ=             -2.0763

 Normal termination of Gaussian 16 at Thu May  6 19:18:02 2021.
