 Gaussian 16, Revision A.03,
 Gaussian 16:  EM64L-G16RevA.03 25-Dec-2016

 -------------
 #p 6-31g* mp2
 -------------

 ------------------------------------------------------
 Input file generated by CHIRIPA (05-May-2021 14:51:08)
 ------------------------------------------------------
 Symbolic Z-matrix:
 Charge =  0 Multiplicity = 1

                         Standard orientation:
 ---------------------------------------------------------------------
 Center     Atomic      Atomic             Coordinates (Angstroms)
 Number     Number       Type             X           Y           Z
 ---------------------------------------------------------------------
      1          6           0        2.250507   -1.178812    0.629259
      2          6           0        0.982021   -1.893976    0.162923
      3          6           0        0.472564   -2.916740    1.178896
      4          1           0        3.033225   -1.924427    0.825107
      5          1           0        2.049731   -0.677649    1.586297
      6          1           0        1.184735   -2.392489   -0.793637
      7          1           0        0.202292   -1.146557   -0.032021
      8          1           0        0.242802   -2.430778    2.132653
      9          1           0        1.230827   -3.683789    1.366709
     10          1           0       -0.434874   -3.416135    0.825314
     11          6           0        2.772023   -0.153258   -0.375723
     12          6           0        4.040509    0.561906    0.090613
     13          6           0        4.549966    1.584670   -0.925360
     14          1           0        2.972799   -0.654420   -1.332760
     15          1           0        1.989305    0.592357   -0.571571
     16          1           0        4.820238   -0.185512    0.285557
     17          1           0        3.837795    1.060420    1.047174
     18          1           0        3.791703    2.351719   -1.113173
     19          1           0        4.779728    1.098708   -1.879116
     20          1           0        5.457404    2.084065   -0.571777
     21          6           0       -2.250592    1.359921   -0.311166
     22          6           0       -2.298505    2.353909    0.849730
     23          6           0       -1.773738    3.737599    0.465262
     24          1           0       -1.215726    1.274505   -0.669917
     25          1           0       -2.840157    1.756860   -1.149168
     26          1           0       -1.710162    1.954573    1.685792
     27          1           0       -3.333346    2.436824    1.205884
     28          1           0       -2.365822    4.160543   -0.352757
     29          1           0       -0.733416    3.675553    0.129877
     30          1           0       -1.817047    4.432322    1.309859
     31          6           0       -2.771939   -0.027852    0.057629
     32          6           0       -2.724025   -1.021838   -1.103266
     33          6           0       -3.248792   -2.405529   -0.718798
     34          1           0       -2.182373   -0.424791    0.895632
     35          1           0       -3.806804    0.057564    0.416382
     36          1           0       -1.689184   -1.104754   -1.459421
     37          1           0       -3.312367   -0.622504   -1.939329
     38          1           0       -4.289113   -2.343484   -0.383414
     39          1           0       -2.656707   -2.828474    0.099220
     40          1           0       -3.205484   -3.100252   -1.563395
 ---------------------------------------------------------------------

 SCF Done:  E(RHF) =  -470.732388922     A.U. after   11 cycles
 E2 =    -0.1584924553D+01 EUMP2 =    -0.47231731347467D+03

 The electronic state is 1-A.
 Alpha  occ. eigenvalues --  -11.21649 -11.21648 -11.21642 -11.21551 -11.21469
 Alpha  occ. eigenvalues --  -11.21443 -11.21408 -11.21370 -11.21133 -11.21117
 Alpha  occ. eigenvalues --  -11.21105 -11.21041  -1.08532  -1.08424  -1.03640
 Alpha  occ. eigenvalues --   -1.03497  -0.96061  -0.95981  -0.87096  -0.86981
 Alpha  occ. eigenvalues --   -0.79729  -0.79548  -0.78360  -0.78221  -0.65439
 Alpha  occ. eigenvalues --   -0.64854  -0.61240  -0.60790  -0.59373  -0.59337
 Alpha  occ. eigenvalues --   -0.57671  -0.57573  -0.55320  -0.55297  -0.52774
 Alpha  occ. eigenvalues --   -0.52687  -0.52499  -0.52351  -0.50072  -0.49885
 Alpha  occ. eigenvalues --   -0.48024  -0.47896  -0.46787  -0.46532  -0.46124
 Alpha  occ. eigenvalues --   -0.45800  -0.45745  -0.45377  -0.43817  -0.43803
 Alpha virt. eigenvalues --    0.19507   0.22208   0.23704   0.25064   0.25262
 Alpha virt. eigenvalues --    0.26540   0.26585   0.27631   0.29121   0.29806
 Alpha virt. eigenvalues --    0.30204   0.31131   0.31596   0.31748   0.32402

 Mulliken charges:
               1
     1  C   -0.297472
     2  C   -0.308818
     3  C   -0.480610
     4  H    0.149998
     5  H    0.149209
     6  H    0.151976
     7  H    0.161652
     8  H    0.154683
     9  H    0.155884
    10  H    0.165116
    11  C   -0.299308
    12  C   -0.299709
    13  C   -0.475731
    14  H    0.149869
    15  H    0.149326
    16  H    0.152250
    17  H    0.152032
    18  H    0.155144
    19  H    0.155321
    20  H    0.160495
    21  C   -0.300948
    22  C   -0.299433
    23  C   -0.475595
    24  H    0.150263
    25  H    0.150237
    26  H    0.151461
    27  H    0.152352
    28  H    0.155499
    29  H    0.154598
    30  H    0.160450
    31  C   -0.301390
    32  C   -0.303338
    33  C   -0.480509
    34  H    0.151108
    35  H    0.150607
    36  H    0.156336
    37  H    0.152117
    38  H    0.155187
    39  H    0.159689
    40  H    0.160001
 Sum of Mulliken charges =  -0.00000

 Dipole moment (field-independent basis, Debye):
    X=              0.0092    Y=             -0.0113    Z=             -0.0035  Tot=              0.0150
 Quadrupole moment (field-independent basis, Debye-Ang):
   XX=            -83.8967   YY=            -85.8314   ZZ=            -84.9509
   XY=             -1.4818   XZ=              0.3272   YZ=              0.8632

 Normal termination of Gaussian 16 at Wed May  5 21:17:56 2021.
