 Gaussian 16, Revision A.03,
 Gaussian 16:  EM64L-G16RevA.03 25-Dec-2016

 -------------
 #p 6-31g* mp2
 -------------

 ------------------------------------------------------
 Input file generated by CHIRIPA (05-May-2021 14:57:26)
 ------------------------------------------------------
 Symbolic Z-matrix:
 Charge =  0 Multiplicity = 1

                         Standard orientation:
 ---------------------------------------------------------------------
 Center     Atomic      Atomic             Coordinates (Angstroms)
 Number     Number       Type             X           Y           Z
 ---------------------------------------------------------------------
      1          6           0        1.677962    2.381581    0.986334
      2          6           0        2.643291    2.518603   -0.016605
      3          6           0        3.349323    1.404250   -0.479515
      4          6           0        3.063320    0.162293    0.085317
      5          6           0        2.107419   -0.006514    1.085841
      6          6           0        1.413573    1.121682    1.533391
      7          1           0        1.134233    3.252614    1.339967
      8          1           0        2.850708    3.495826   -0.443287
      9          1           0        4.101837    1.481837   -1.254835
     10          1           0        1.922666   -0.993632    1.491897
     11          1           0        0.664430    1.012283    2.312404
     12          7           0        3.804313   -1.024750   -0.396615
     13          8           0        3.533762   -2.107963    0.117281
     14          8           0        4.641625   -0.849465   -1.279123
     15          6           0       -1.310089   -2.257920    0.144223
     16          6           0       -2.645986   -2.412652    0.528878
     17          6           0       -3.558511   -1.366653    0.362345
     18          6           0       -3.098884   -0.174248   -0.194615
     19          6           0       -1.774275    0.010584   -0.587728
     20          6           0       -0.879257   -1.048927   -0.411871
     21          1           0       -0.608018   -3.075726    0.277212
     22          1           0       -2.983385   -3.350447    0.961018
     23          1           0       -4.598345   -1.459378    0.651422
     24          1           0       -1.467543    0.957262   -1.015670
     25          1           0        0.157628   -0.925925   -0.711512
     26          7           0       -4.055667    0.940257   -0.375851
     27          8           0       -3.625741    1.980775   -0.868927
     28          8           0       -5.217402    0.752185   -0.021397
 ---------------------------------------------------------------------

 SCF Done:  E(RHF) =  -868.337660011     A.U. after   16 cycles
 E2 =    -0.2602243558D+01 EUMP2 =    -0.87093990356814D+03

 The electronic state is 1-A.
 Alpha  occ. eigenvalues --  -20.61652 -20.61614 -20.61080 -20.61063 -15.86685
 Alpha  occ. eigenvalues --  -15.86123 -11.32006 -11.31425 -11.28549 -11.28493
 Alpha  occ. eigenvalues --  -11.28157 -11.27947 -11.27940 -11.27602 -11.27464
 Alpha  occ. eigenvalues --  -11.27453 -11.26951 -11.26845  -1.60715  -1.60152
 Alpha  occ. eigenvalues --   -1.40268  -1.39707  -1.20168  -1.19568  -1.09532
 Alpha  occ. eigenvalues --   -1.08969  -1.05543  -1.04931  -0.96381  -0.95813
 Alpha  occ. eigenvalues --   -0.86923  -0.86335  -0.83194  -0.82640  -0.78281
 Alpha  occ. eigenvalues --   -0.77716  -0.72886  -0.72339  -0.72061  -0.71479
 Alpha  occ. eigenvalues --   -0.71192  -0.70625  -0.65767  -0.65488  -0.65195
 Alpha  occ. eigenvalues --   -0.64932  -0.62857  -0.62303  -0.55943  -0.55422
 Alpha  occ. eigenvalues --   -0.54071  -0.53565  -0.53252  -0.52848  -0.49662
 Alpha  occ. eigenvalues --   -0.49634  -0.49102  -0.49087  -0.45675  -0.45126
 Alpha  occ. eigenvalues --   -0.38135  -0.37745  -0.37303  -0.36119
 Alpha virt. eigenvalues --    0.04191   0.04791   0.10217   0.11299   0.15620
 Alpha virt. eigenvalues --    0.16439   0.20668   0.21477   0.26401   0.27140
 Alpha virt. eigenvalues --    0.27359   0.28566   0.30619   0.30862   0.31796

 Mulliken charges:
               1
     1  C   -0.173552
     2  C   -0.218584
     3  C   -0.172380
     4  C    0.156070
     5  C   -0.183449
     6  C   -0.214085
     7  H    0.232853
     8  H    0.228267
     9  H    0.278092
    10  H    0.273469
    11  H    0.229375
    12  N    0.487855
    13  O   -0.464447
    14  O   -0.455904
    15  C   -0.178456
    16  C   -0.218367
    17  C   -0.172501
    18  C    0.157593
    19  C   -0.175368
    20  C   -0.220275
    21  H    0.233076
    22  H    0.224850
    23  H    0.275602
    24  H    0.274007
    25  H    0.230367
    26  N    0.488002
    27  O   -0.462604
    28  O   -0.459506
 Sum of Mulliken charges =  -0.00000

 Dipole moment (field-independent basis, Debye):
    X=              0.9027    Y=              0.3949    Z=              2.3790  Tot=              2.5750
 Quadrupole moment (field-independent basis, Debye-Ang):
   XX=           -138.6183   YY=            -99.0512   ZZ=           -102.9973
   XY=             28.6875   XZ=             -1.2431   YZ=             -1.9081

 Normal termination of Gaussian 16 at Thu May  6 22:56:29 2021.
