 Gaussian 16, Revision A.03,
 Gaussian 16:  EM64L-G16RevA.03 25-Dec-2016

 -------------
 #p 6-31g* mp2
 -------------

 ------------------------------------------------------
 Input file generated by CHIRIPA (05-May-2021 14:55:24)
 ------------------------------------------------------
 Symbolic Z-matrix:
 Charge =  0 Multiplicity = 1

                         Standard orientation:
 ---------------------------------------------------------------------
 Center     Atomic      Atomic             Coordinates (Angstroms)
 Number     Number       Type             X           Y           Z
 ---------------------------------------------------------------------
      1          6           0       -4.048267   -1.596445   -0.624692
      2          6           0       -2.810503   -1.495369   -1.268311
      3          6           0       -1.991068   -0.381848   -1.060602
      4          6           0       -2.442705    0.616497   -0.198847
      5          6           0       -3.670722    0.544760    0.456988
      6          6           0       -4.473676   -0.577853    0.234389
      7          1           0       -4.678423   -2.464987   -0.791829
      8          1           0       -2.477555   -2.284895   -1.936023
      9          1           0       -1.028246   -0.278038   -1.546004
     10          1           0       -3.975536    1.347882    1.116914
     11          1           0       -5.434459   -0.653671    0.735580
     12          7           0       -1.583929    1.800146    0.028927
     13          8           0       -2.004689    2.666110    0.792932
     14          8           0       -0.506323    1.839512   -0.560862
     15          6           0        3.841516    0.006965    0.293649
     16          6           0        4.981037   -0.274408   -0.686305
     17          6           0        6.040859    0.827648   -0.692732
     18          1           0        3.373086    0.966623    0.035629
     19          1           0        4.256735    0.123544    1.304290
     20          1           0        4.563639   -0.391794   -1.694578
     21          1           0        5.446685   -1.233600   -0.426038
     22          1           0        6.484532    0.941252    0.301677
     23          1           0        5.596470    1.787841   -0.974071
     24          1           0        6.846041    0.606187   -1.400190
     25          6           0        2.774143   -1.085795    0.311502
     26          6           0        1.634623   -0.804421    1.291455
     27          6           0        0.574799   -1.906478    1.297882
     28          1           0        2.358923   -1.202375   -0.699140
     29          1           0        3.242573   -2.045453    0.569523
     30          1           0        1.168974    0.154771    1.031188
     31          1           0        2.052019   -0.687036    2.299728
     32          1           0        1.019189   -2.866670    1.579221
     33          1           0        0.131127   -2.020081    0.303473
     34          1           0       -0.230382   -1.685017    2.005341
 ---------------------------------------------------------------------

 SCF Done:  E(RHF) =  -669.535838042     A.U. after   15 cycles
 E2 =    -0.2093099763D+01 EUMP2 =    -0.67162893780582D+03

 The electronic state is 1-A.
 Alpha  occ. eigenvalues --  -20.60988 -20.60980 -15.86001 -11.31275 -11.27852
 Alpha  occ. eigenvalues --  -11.27848 -11.27577 -11.26840 -11.26830 -11.21145
 Alpha  occ. eigenvalues --  -11.21006 -11.20940 -11.20856 -11.20768 -11.20617
 Alpha  occ. eigenvalues --   -1.60038  -1.39597  -1.19453  -1.08860  -1.07931
 Alpha  occ. eigenvalues --   -1.04851  -1.03093  -0.95721  -0.95566  -0.86593
 Alpha  occ. eigenvalues --   -0.86244  -0.82552  -0.79141  -0.77738  -0.77609
 Alpha  occ. eigenvalues --   -0.72232  -0.71352  -0.70569  -0.65113  -0.64864
 Alpha  occ. eigenvalues --   -0.64539  -0.62212  -0.60483  -0.58938  -0.57177
 Alpha  occ. eigenvalues --   -0.55358  -0.54923  -0.53160  -0.52937  -0.52259
 Alpha  occ. eigenvalues --   -0.51997  -0.49509  -0.48994  -0.48981  -0.47485
 Alpha  occ. eigenvalues --   -0.46213  -0.45392  -0.45275  -0.44699  -0.43330
 Alpha  occ. eigenvalues --   -0.37416  -0.36390
 Alpha virt. eigenvalues --    0.04871   0.11180   0.16306   0.20784   0.23152
 Alpha virt. eigenvalues --    0.24443   0.26436   0.27466   0.28047   0.28382
 Alpha virt. eigenvalues --    0.28805   0.30917   0.31649   0.31951   0.32402

 Mulliken charges:
               1
     1  C   -0.169988
     2  C   -0.218366
     3  C   -0.167794
     4  C    0.158683
     5  C   -0.171025
     6  C   -0.218669
     7  H    0.226169
     8  H    0.224059
     9  H    0.275664
    10  H    0.275745
    11  H    0.223776
    12  N    0.487829
    13  O   -0.458043
    14  O   -0.459948
    15  C   -0.300940
    16  C   -0.299099
    17  C   -0.475814
    18  H    0.161123
    19  H    0.148355
    20  H    0.150458
    21  H    0.149110
    22  H    0.154577
    23  H    0.157980
    24  H    0.158063
    25  C   -0.294965
    26  C   -0.310739
    27  C   -0.475316
    28  H    0.143836
    29  H    0.145846
    30  H    0.170811
    31  H    0.150818
    32  H    0.152477
    33  H    0.146501
    34  H    0.158826
 Sum of Mulliken charges =  -0.00000

 Dipole moment (field-independent basis, Debye):
    X=             -3.1881    Y=             -3.9641    Z=             -0.8112  Tot=              5.1513
 Quadrupole moment (field-independent basis, Debye-Ang):
   XX=            -78.5456   YY=           -100.2786   ZZ=            -92.6058
   XY=              6.5963   XZ=              0.6471   YZ=              1.6248

 Normal termination of Gaussian 16 at Thu May  6 11:03:49 2021.
