 Gaussian 16, Revision A.03,
 Gaussian 16:  EM64L-G16RevA.03 25-Dec-2016

 -------------
 #p 6-31g* mp2
 -------------

 ------------------------------------------------------
 Input file generated by CHIRIPA (05-May-2021 14:55:20)
 ------------------------------------------------------
 Symbolic Z-matrix:
 Charge =  0 Multiplicity = 1

                         Standard orientation:
 ---------------------------------------------------------------------
 Center     Atomic      Atomic             Coordinates (Angstroms)
 Number     Number       Type             X           Y           Z
 ---------------------------------------------------------------------
      1          6           0       -0.500593   -1.138566    0.309401
      2          6           0       -0.847411   -0.472481   -0.870671
      3          6           0       -2.144728    0.014469   -1.056126
      4          6           0       -3.074286   -0.183089   -0.036231
      5          6           0       -2.759318   -0.842674    1.150796
      6          6           0       -1.455970   -1.321214    1.314596
      7          1           0        0.509537   -1.513574    0.445056
      8          1           0       -0.107516   -0.329193   -1.653020
      9          1           0       -2.440201    0.533705   -1.959734
     10          1           0       -3.518622   -0.970325    1.912754
     11          1           0       -1.189455   -1.838129    2.232100
     12          7           0       -4.450890    0.327972   -0.221102
     13          8           0       -5.251476    0.141104    0.692561
     14          8           0       -4.703220    0.905734   -1.276165
     15          6           0        4.128544   -0.210187   -0.202891
     16          6           0        3.541979   -1.615406   -0.064019
     17          6           0        4.521911   -2.709641   -0.488492
     18          1           0        4.432135   -0.047933   -1.246180
     19          1           0        5.042512   -0.140388    0.403067
     20          1           0        2.628629   -1.682106   -0.668965
     21          1           0        3.239573   -1.774262    0.979020
     22          1           0        5.429770   -2.671813    0.122216
     23          1           0        4.815355   -2.579134   -1.535133
     24          1           0        4.082117   -3.706096   -0.381172
     25          6           0        3.160812    0.894520    0.217643
     26          6           0        3.747377    2.299739    0.078771
     27          6           0        2.767445    3.393973    0.503243
     28          1           0        2.246844    0.824721   -0.388315
     29          1           0        2.857221    0.732267    1.260932
     30          1           0        4.049783    2.458596   -0.964268
     31          1           0        4.660726    2.366440    0.683717
     32          1           0        2.474000    3.263466    1.549885
     33          1           0        1.859586    3.356146   -0.107464
     34          1           0        3.207239    4.390430    0.395924
 ---------------------------------------------------------------------

 SCF Done:  E(RHF) =  -669.535349649     A.U. after   15 cycles
 E2 =    -0.2092380572D+01 EUMP2 =    -0.67162773022126D+03

 The electronic state is 1-A.
 Alpha  occ. eigenvalues --  -20.60704 -20.60699 -15.85759 -11.31103 -11.27692
 Alpha  occ. eigenvalues --  -11.27683 -11.27329 -11.26683 -11.26658 -11.22955
 Alpha  occ. eigenvalues --  -11.22422 -11.22356 -11.22296 -11.22091 -11.21614
 Alpha  occ. eigenvalues --   -1.59781  -1.39335  -1.19277  -1.09443  -1.08661
 Alpha  occ. eigenvalues --   -1.04685  -1.04462  -0.96860  -0.95504  -0.87881
 Alpha  occ. eigenvalues --   -0.86080  -0.82352  -0.80588  -0.79258  -0.77400
 Alpha  occ. eigenvalues --   -0.71976  -0.71104  -0.70364  -0.66083  -0.64923
 Alpha  occ. eigenvalues --   -0.64684  -0.62040  -0.61856  -0.60268  -0.58487
 Alpha  occ. eigenvalues --   -0.56131  -0.55192  -0.53540  -0.53287  -0.52990
 Alpha  occ. eigenvalues --   -0.52776  -0.50806  -0.48865  -0.48733  -0.48716
 Alpha  occ. eigenvalues --   -0.47626  -0.46737  -0.46684  -0.44745  -0.44717
 Alpha  occ. eigenvalues --   -0.37222  -0.36293
 Alpha virt. eigenvalues --    0.05138   0.11260   0.16615   0.19343   0.22539
 Alpha virt. eigenvalues --    0.23474   0.24489   0.25537   0.27130   0.27866
 Alpha virt. eigenvalues --    0.29689   0.30287   0.30673   0.31205   0.31733

 Mulliken charges:
               1
     1  C   -0.174896
     2  C   -0.222739
     3  C   -0.170979
     4  C    0.157848
     5  C   -0.170364
     6  C   -0.221055
     7  H    0.238007
     8  H    0.222196
     9  H    0.275152
    10  H    0.275226
    11  H    0.223227
    12  N    0.488102
    13  O   -0.460686
    14  O   -0.460806
    15  C   -0.297987
    16  C   -0.306263
    17  C   -0.475029
    18  H    0.152282
    19  H    0.154074
    20  H    0.144303
    21  H    0.150306
    22  H    0.159471
    23  H    0.158502
    24  H    0.161705
    25  C   -0.301471
    26  C   -0.300484
    27  C   -0.476078
    28  H    0.145459
    29  H    0.150012
    30  H    0.153049
    31  H    0.154140
    32  H    0.156547
    33  H    0.156170
    34  H    0.163057
 Sum of Mulliken charges =  -0.00000

 Dipole moment (field-independent basis, Debye):
    X=              5.1261    Y=             -1.7465    Z=              0.6809  Tot=              5.4581
 Quadrupole moment (field-independent basis, Debye-Ang):
   XX=           -124.1625   YY=            -94.6122   ZZ=            -90.0230
   XY=              5.6626   XZ=             -3.0169   YZ=             -2.1563

 Normal termination of Gaussian 16 at Thu May  6 10:51:19 2021.
