 Gaussian 16, Revision A.03,
 Gaussian 16:  EM64L-G16RevA.03 25-Dec-2016

 -------------
 #p 6-31g* mp2
 -------------

 ------------------------------------------------------
 Input file generated by CHIRIPA (05-May-2021 14:55:21)
 ------------------------------------------------------
 Symbolic Z-matrix:
 Charge =  0 Multiplicity = 1

                         Standard orientation:
 ---------------------------------------------------------------------
 Center     Atomic      Atomic             Coordinates (Angstroms)
 Number     Number       Type             X           Y           Z
 ---------------------------------------------------------------------
      1          6           0        3.833678    2.547222    0.356908
      2          6           0        4.102301    1.935117   -0.871786
      3          6           0        3.749248    0.600485   -1.092375
      4          6           0        3.126116   -0.095463   -0.057652
      5          6           0        2.845130    0.486475    1.177534
      6          6           0        3.207054    1.822225    1.375851
      7          1           0        4.111384    3.584431    0.519616
      8          1           0        4.588835    2.495719   -1.664916
      9          1           0        3.945428    0.101981   -2.033877
     10          1           0        2.358970   -0.098073    1.949137
     11          1           0        2.997203    2.295012    2.331089
     12          7           0        2.747659   -1.508970   -0.279390
     13          8           0        2.199657   -2.100394    0.648268
     14          8           0        3.006192   -1.998689   -1.376647
     15          6           0       -3.749193   -0.763512    0.384770
     16          6           0       -2.309720   -1.013021   -0.066502
     17          6           0       -1.658859   -2.191552    0.658231
     18          1           0       -3.760731   -0.581245    1.468093
     19          1           0       -4.342290   -1.672700    0.214442
     20          1           0       -1.719839   -0.103181    0.103344
     21          1           0       -2.301584   -1.194527   -1.148909
     22          1           0       -2.222627   -3.112804    0.479173
     23          1           0       -1.637576   -2.015258    1.738541
     24          1           0       -0.630308   -2.352139    0.320362
     25          6           0       -4.413342    0.411513   -0.330736
     26          6           0       -5.852816    0.661021    0.120535
     27          6           0       -6.503677    1.839553   -0.604198
     28          1           0       -3.820246    1.320700   -0.160409
     29          1           0       -4.401803    0.229246   -1.414060
     30          1           0       -5.860951    0.842527    1.202942
     31          1           0       -6.442696   -0.248819   -0.049310
     32          1           0       -6.524959    1.663258   -1.684508
     33          1           0       -5.939909    2.760804   -0.425140
     34          1           0       -7.532227    2.000140   -0.266329
 ---------------------------------------------------------------------

 SCF Done:  E(RHF) =  -669.536233550     A.U. after   15 cycles
 E2 =    -0.2090892299D+01 EUMP2 =    -0.67162712584956D+03

 The electronic state is 1-A.
 Alpha  occ. eigenvalues --  -20.60953 -20.60943 -15.85971 -11.31282 -11.27845
 Alpha  occ. eigenvalues --  -11.27841 -11.27584 -11.26852 -11.26842 -11.21382
 Alpha  occ. eigenvalues --  -11.21086 -11.20988 -11.20923 -11.20912 -11.19987
 Alpha  occ. eigenvalues --   -1.60007  -1.39563  -1.19451  -1.08858  -1.08028
 Alpha  occ. eigenvalues --   -1.04845  -1.03052  -0.95703  -0.95470  -0.86482
 Alpha  occ. eigenvalues --   -0.86246  -0.82534  -0.79134  -0.77836  -0.77588
 Alpha  occ. eigenvalues --   -0.72193  -0.71320  -0.70560  -0.65107  -0.64849
 Alpha  occ. eigenvalues --   -0.64671  -0.62192  -0.60464  -0.58860  -0.57072
 Alpha  occ. eigenvalues --   -0.55352  -0.54779  -0.53180  -0.52938  -0.52106
 Alpha  occ. eigenvalues --   -0.51899  -0.49441  -0.48960  -0.48946  -0.47440
 Alpha  occ. eigenvalues --   -0.46202  -0.45371  -0.45309  -0.44964  -0.43238
 Alpha  occ. eigenvalues --   -0.37428  -0.36446
 Alpha virt. eigenvalues --    0.04907   0.11206   0.16383   0.21328   0.23218
 Alpha virt. eigenvalues --    0.24811   0.26990   0.27264   0.27844   0.28080
 Alpha virt. eigenvalues --    0.28712   0.30907   0.31828   0.32172   0.32421

 Mulliken charges:
               1
     1  C   -0.170543
     2  C   -0.218569
     3  C   -0.170692
     4  C    0.158474
     5  C   -0.170808
     6  C   -0.218629
     7  H    0.225967
     8  H    0.223806
     9  H    0.275833
    10  H    0.276210
    11  H    0.223778
    12  N    0.487689
    13  O   -0.458898
    14  O   -0.458748
    15  C   -0.297217
    16  C   -0.299621
    17  C   -0.483912
    18  H    0.147442
    19  H    0.149774
    20  H    0.145685
    21  H    0.151801
    22  H    0.152437
    23  H    0.149510
    24  H    0.183456
    25  C   -0.297486
    26  C   -0.299211
    27  C   -0.475336
    28  H    0.146805
    29  H    0.149536
    30  H    0.150905
    31  H    0.152295
    32  H    0.155122
    33  H    0.153671
    34  H    0.159474
 Sum of Mulliken charges =  -0.00000

 Dipole moment (field-independent basis, Debye):
    X=              1.5745    Y=              4.9160    Z=              0.7515  Tot=              5.2164
 Quadrupole moment (field-independent basis, Debye-Ang):
   XX=            -87.2506   YY=            -96.4567   ZZ=            -90.3397
   XY=             16.6149   XZ=              0.4181   YZ=              0.3264

 Normal termination of Gaussian 16 at Thu May  6 20:42:28 2021.
