 Gaussian 16, Revision A.03,
 Gaussian 16:  EM64L-G16RevA.03 25-Dec-2016

 -------------
 #p 6-31g* mp2
 -------------

 ------------------------------------------------------
 Input file generated by CHIRIPA (05-May-2021 14:51:09)
 ------------------------------------------------------
 Symbolic Z-matrix:
 Charge =  0 Multiplicity = 1

                         Standard orientation:
 ---------------------------------------------------------------------
 Center     Atomic      Atomic             Coordinates (Angstroms)
 Number     Number       Type             X           Y           Z
 ---------------------------------------------------------------------
      1          6           0        2.539424    0.476555   -1.045822
      2          6           0        2.034467    1.856489   -0.622989
      3          6           0        1.691299    2.751053   -1.814536
      4          1           0        3.426176    0.597043   -1.683080
      5          1           0        1.774158   -0.012554   -1.664317
      6          1           0        2.799889    2.342290   -0.004328
      7          1           0        1.148927    1.732695    0.013494
      8          1           0        0.911069    2.291026   -2.429530
      9          1           0        2.571412    2.904084   -2.447453
     10          1           0        1.332398    3.732567   -1.489449
     11          6           0        2.886626   -0.429272    0.134286
     12          6           0        3.391583   -1.809206   -0.288547
     13          6           0        3.734751   -2.703770    0.903000
     14          1           0        3.651892    0.059837    0.752781
     15          1           0        1.999874   -0.549760    0.771545
     16          1           0        4.277123   -1.685412   -0.925029
     17          1           0        2.626161   -2.295007   -0.907208
     18          1           0        2.854638   -2.856801    1.535917
     19          1           0        4.514981   -2.243743    1.517994
     20          1           0        4.093652   -3.685284    0.577914
     21          6           0       -3.391924   -0.297373    0.237596
     22          6           0       -3.374734   -0.918493   -1.159508
     23          6           0       -4.740175   -1.461653   -1.581813
     24          1           0       -3.728674   -1.050808    0.962772
     25          1           0       -4.133453    0.513147    0.261828
     26          1           0       -2.632472   -1.726689   -1.181489
     27          1           0       -3.037802   -0.163548   -1.881414
     28          1           0       -5.487765   -0.661858   -1.588080
     29          1           0       -5.080132   -2.233882   -0.884179
     30          1           0       -4.705090   -1.901108   -2.583566
     31          6           0       -2.034126    0.250090    0.673939
     32          6           0       -2.051316    0.871211    2.071043
     33          6           0       -0.685875    1.414371    2.493348
     34          1           0       -1.292596   -0.560429    0.649707
     35          1           0       -1.697375    1.003526   -0.051236
     36          1           0       -2.388248    0.116264    2.792950
     37          1           0       -2.793578    1.679406    2.093025
     38          1           0       -0.345919    2.186599    1.795714
     39          1           0        0.061714    0.614576    2.499616
     40          1           0       -0.720959    1.853826    3.495101
 ---------------------------------------------------------------------

 SCF Done:  E(RHF) =  -470.732971321     A.U. after   11 cycles
 E2 =    -0.1583880291D+01 EUMP2 =    -0.47231685161183D+03

 The electronic state is 1-A.
 Alpha  occ. eigenvalues --  -11.21667 -11.21662 -11.21584 -11.21490 -11.21464
 Alpha  occ. eigenvalues --  -11.21425 -11.21358 -11.21290 -11.21115 -11.21108
 Alpha  occ. eigenvalues --  -11.21071 -11.21033  -1.08509  -1.08375  -1.03601
 Alpha  occ. eigenvalues --   -1.03481  -0.96044  -0.95945  -0.87064  -0.86957
 Alpha  occ. eigenvalues --   -0.79710  -0.79514  -0.78373  -0.78134  -0.65138
 Alpha  occ. eigenvalues --   -0.65017  -0.61066  -0.60833  -0.59432  -0.59292
 Alpha  occ. eigenvalues --   -0.57666  -0.57550  -0.55349  -0.55217  -0.52728
 Alpha  occ. eigenvalues --   -0.52658  -0.52479  -0.52362  -0.50041  -0.49845
 Alpha  occ. eigenvalues --   -0.48167  -0.47784  -0.46801  -0.46466  -0.46089
 Alpha  occ. eigenvalues --   -0.45749  -0.45689  -0.45301  -0.43848  -0.43737
 Alpha virt. eigenvalues --    0.20287   0.23167   0.23377   0.23992   0.25827
 Alpha virt. eigenvalues --    0.26452   0.26764   0.28109   0.28218   0.29444
 Alpha virt. eigenvalues --    0.30631   0.31275   0.31756   0.31930   0.32059

 Mulliken charges:
               1
     1  C   -0.297405
     2  C   -0.309386
     3  C   -0.475709
     4  H    0.149168
     5  H    0.149581
     6  H    0.151200
     7  H    0.163354
     8  H    0.154634
     9  H    0.155170
    10  H    0.159276
    11  C   -0.301792
    12  C   -0.299586
    13  C   -0.475550
    14  H    0.149604
    15  H    0.152270
    16  H    0.152092
    17  H    0.151710
    18  H    0.154463
    19  H    0.155328
    20  H    0.160221
    21  C   -0.298297
    22  C   -0.299708
    23  C   -0.475757
    24  H    0.149983
    25  H    0.149961
    26  H    0.151715
    27  H    0.151913
    28  H    0.155376
    29  H    0.155312
    30  H    0.160447
    31  C   -0.300789
    32  C   -0.299774
    33  C   -0.481770
    34  H    0.149402
    35  H    0.150964
    36  H    0.152119
    37  H    0.152238
    38  H    0.159261
    39  H    0.157796
    40  H    0.160965
 Sum of Mulliken charges =  -0.00000

 Dipole moment (field-independent basis, Debye):
    X=             -0.0440    Y=              0.0066    Z=              0.0322  Tot=              0.0549
 Quadrupole moment (field-independent basis, Debye-Ang):
   XX=            -84.7174   YY=            -84.6573   ZZ=            -85.4032
   XY=             -0.0796   XZ=             -0.5156   YZ=              0.0892

 Normal termination of Gaussian 16 at Wed May  5 18:10:18 2021.
