 Gaussian 16, Revision A.03,
 Gaussian 16:  EM64L-G16RevA.03 25-Dec-2016

 -------------
 #p 6-31g* mp2
 -------------

 ------------------------------------------------------
 Input file generated by CHIRIPA (05-May-2021 14:55:22)
 ------------------------------------------------------
 Symbolic Z-matrix:
 Charge =  0 Multiplicity = 1

                         Standard orientation:
 ---------------------------------------------------------------------
 Center     Atomic      Atomic             Coordinates (Angstroms)
 Number     Number       Type             X           Y           Z
 ---------------------------------------------------------------------
      1          6           0       -3.312887   -2.315494   -0.356026
      2          6           0       -2.189543   -1.497883   -0.194378
      3          6           0       -2.333862   -0.116507   -0.034623
      4          6           0       -3.622098    0.416120   -0.041440
      5          6           0       -4.760813   -0.372142   -0.200377
      6          6           0       -4.592681   -1.751009   -0.358505
      7          1           0       -3.191528   -3.387605   -0.479496
      8          1           0       -1.194422   -1.933515   -0.192050
      9          1           0       -1.481411    0.539705    0.092388
     10          1           0       -5.739987    0.091143   -0.198461
     11          1           0       -5.466889   -2.383540   -0.483848
     12          7           0       -3.787486    1.877193    0.126825
     13          8           0       -4.933240    2.321933    0.117242
     14          8           0       -2.768233    2.549976    0.265106
     15          6           0        5.114084    0.057775   -0.402331
     16          6           0        6.266734    0.794042    0.281258
     17          6           0        7.284178    1.352840   -0.713904
     18          1           0        5.520526   -0.760811   -1.011977
     19          1           0        4.610226    0.744275   -1.096766
     20          1           0        6.767405    0.106757    0.975220
     21          1           0        5.857486    1.610852    0.889498
     22          1           0        6.804784    2.059342   -1.399204
     23          1           0        7.719872    0.546701   -1.312996
     24          1           0        8.099544    1.875176   -0.203801
     25          6           0        4.088705   -0.506588    0.579411
     26          6           0        2.936055   -1.242856   -0.104178
     27          6           0        1.918611   -1.801653    0.890983
     28          1           0        4.592564   -1.193088    1.273846
     29          1           0        3.682262    0.311998    1.189056
     30          1           0        3.345302   -2.059664   -0.712418
     31          1           0        2.435384   -0.555570   -0.798141
     32          1           0        1.482917   -0.995514    1.490076
     33          1           0        2.398005   -2.508154    1.576284
     34          1           0        1.103246   -2.323989    0.380880
 ---------------------------------------------------------------------

 SCF Done:  E(RHF) =  -669.535528492     A.U. after   15 cycles
 E2 =    -0.2090811577D+01 EUMP2 =    -0.67162634006896D+03

 The electronic state is 1-A.
 Alpha  occ. eigenvalues --  -20.60736 -20.60730 -15.85788 -11.31139 -11.27706
 Alpha  occ. eigenvalues --  -11.27694 -11.27441 -11.26723 -11.26676 -11.22272
 Alpha  occ. eigenvalues --  -11.22036 -11.21830 -11.21808 -11.21673 -11.21217
 Alpha  occ. eigenvalues --   -1.59811  -1.39365  -1.19307  -1.08854  -1.08706
 Alpha  occ. eigenvalues --   -1.04707  -1.04003  -0.96469  -0.95544  -0.87493
 Alpha  occ. eigenvalues --   -0.86107  -0.82376  -0.80070  -0.78620  -0.77426
 Alpha  occ. eigenvalues --   -0.72007  -0.71134  -0.70420  -0.65477  -0.64958
 Alpha  occ. eigenvalues --   -0.64739  -0.62104  -0.61381  -0.59870  -0.58060
 Alpha  occ. eigenvalues --   -0.55739  -0.55213  -0.53323  -0.53039  -0.52940
 Alpha  occ. eigenvalues --   -0.52608  -0.50390  -0.48765  -0.48763  -0.48379
 Alpha  occ. eigenvalues --   -0.47082  -0.46173  -0.46066  -0.44774  -0.44245
 Alpha  occ. eigenvalues --   -0.37291  -0.36307
 Alpha virt. eigenvalues --    0.05106   0.11341   0.16598   0.19727   0.22707
 Alpha virt. eigenvalues --    0.23791   0.25999   0.26162   0.27075   0.27821
 Alpha virt. eigenvalues --    0.29318   0.29398   0.31091   0.31668   0.32184

 Mulliken charges:
               1
     1  C   -0.172727
     2  C   -0.224072
     3  C   -0.174119
     4  C    0.158825
     5  C   -0.171283
     6  C   -0.218440
     7  H    0.225834
     8  H    0.233558
     9  H    0.275566
    10  H    0.275360
    11  H    0.223162
    12  N    0.488155
    13  O   -0.460610
    14  O   -0.460783
    15  C   -0.298915
    16  C   -0.300229
    17  C   -0.476065
    18  H    0.149646
    19  H    0.151173
    20  H    0.151985
    21  H    0.153655
    22  H    0.156302
    23  H    0.154979
    24  H    0.161358
    25  C   -0.299338
    26  C   -0.299729
    27  C   -0.481564
    28  H    0.150528
    29  H    0.152317
    30  H    0.153438
    31  H    0.152065
    32  H    0.158050
    33  H    0.160898
    34  H    0.151019
 Sum of Mulliken charges =  -0.00000

 Dipole moment (field-independent basis, Debye):
    X=              0.7856    Y=             -5.1250    Z=             -0.5626  Tot=              5.2153
 Quadrupole moment (field-independent basis, Debye-Ang):
   XX=            -93.7049   YY=            -99.1409   ZZ=            -95.8996
   XY=             18.8983   XZ=              3.1411   YZ=              0.2146

 Normal termination of Gaussian 16 at Thu May  6 10:56:05 2021.
