 Gaussian 16, Revision A.03,
 Gaussian 16:  EM64L-G16RevA.03 25-Dec-2016

 -------------
 #p 6-31g* mp2
 -------------

 ------------------------------------------------------
 Input file generated by CHIRIPA (05-May-2021 14:51:11)
 ------------------------------------------------------
 Symbolic Z-matrix:
 Charge =  0 Multiplicity = 1

                         Standard orientation:
 ---------------------------------------------------------------------
 Center     Atomic      Atomic             Coordinates (Angstroms)
 Number     Number       Type             X           Y           Z
 ---------------------------------------------------------------------
      1          6           0        2.733960   -0.355189   -0.214533
      2          6           0        4.219461   -0.364424    0.147663
      3          6           0        4.939848    0.915055   -0.278683
      4          1           0        2.628424   -0.217379   -1.299344
      5          1           0        2.253643    0.512287    0.258940
      6          1           0        4.696552   -1.232398   -0.325222
      7          1           0        4.321478   -0.502419    1.231714
      8          1           0        4.490505    1.789139    0.203674
      9          1           0        4.867711    1.055013   -1.362108
     10          1           0        6.000478    0.887142   -0.010085
     11          6           0        2.000126   -1.627586    0.205254
     12          6           0        0.514625   -1.618351   -0.156942
     13          6           0       -0.205762   -2.897830    0.269404
     14          1           0        2.480443   -2.495062   -0.268218
     15          1           0        2.105662   -1.765396    1.290065
     16          1           0        0.412609   -1.480356   -1.240992
     17          1           0        0.037534   -0.750377    0.315944
     18          1           0       -0.133625   -3.037788    1.352829
     19          1           0        0.243581   -3.771914   -0.212953
     20          1           0       -1.266392   -2.869917    0.000806
     21          6           0       -1.905182    1.443634    0.411567
     22          6           0       -0.799936    2.090648   -0.423771
     23          6           0        0.115851    2.992488    0.404367
     24          1           0       -2.501209    2.231245    0.892569
     25          1           0       -1.448115    0.858744    1.221746
     26          1           0       -1.258923    2.673019   -1.232964
     27          1           0       -0.206590    1.301408   -0.902995
     28          1           0        0.600512    2.420701    1.202342
     29          1           0       -0.457800    3.800105    0.870499
     30          1           0        0.898676    3.444684   -0.212531
     31          6           0       -2.828904    0.539141   -0.402288
     32          6           0       -3.934150   -0.107873    0.433050
     33          6           0       -4.849938   -1.009713   -0.395088
     34          1           0       -3.285972    1.124031   -1.212467
     35          1           0       -2.232878   -0.248471   -0.883291
     36          1           0       -4.527496    0.681367    0.912274
     37          1           0       -3.475163   -0.690244    1.242243
     38          1           0       -4.276286   -1.817330   -0.861221
     39          1           0       -5.334599   -0.437926   -1.193063
     40          1           0       -5.632762   -1.461909    0.221810
 ---------------------------------------------------------------------

 SCF Done:  E(RHF) =  -470.731666174     A.U. after   11 cycles
 E2 =    -0.1586371399D+01 EUMP2 =    -0.47231803757287D+03

 The electronic state is 1-A.
 Alpha  occ. eigenvalues --  -11.21632 -11.21624 -11.21586 -11.21511 -11.21444
 Alpha  occ. eigenvalues --  -11.21383 -11.21378 -11.21311 -11.21161 -11.21085
 Alpha  occ. eigenvalues --  -11.21077 -11.21077  -1.08558  -1.08354  -1.03590
 Alpha  occ. eigenvalues --   -1.03515  -0.96065  -0.95946  -0.87080  -0.86963
 Alpha  occ. eigenvalues --   -0.79683  -0.79572  -0.78408  -0.78148  -0.65501
 Alpha  occ. eigenvalues --   -0.64777  -0.61047  -0.60864  -0.59385  -0.59339
 Alpha  occ. eigenvalues --   -0.57694  -0.57545  -0.55472  -0.55111  -0.52736
 Alpha  occ. eigenvalues --   -0.52660  -0.52464  -0.52397  -0.50136  -0.49787
 Alpha  occ. eigenvalues --   -0.48048  -0.47836  -0.46674  -0.46640  -0.46147
 Alpha  occ. eigenvalues --   -0.45894  -0.45542  -0.45260  -0.43832  -0.43760
 Alpha virt. eigenvalues --    0.19895   0.21397   0.23757   0.24752   0.25243
 Alpha virt. eigenvalues --    0.26277   0.27098   0.27581   0.28528   0.29909
 Alpha virt. eigenvalues --    0.30862   0.31147   0.31771   0.31835   0.32716

 Mulliken charges:
               1
     1  C   -0.305223
     2  C   -0.299400
     3  C   -0.475939
     4  H    0.149435
     5  H    0.156852
     6  H    0.152000
     7  H    0.151840
     8  H    0.155743
     9  H    0.155115
    10  H    0.160306
    11  C   -0.297239
    12  C   -0.309690
    13  C   -0.477746
    14  H    0.149589
    15  H    0.149194
    16  H    0.151387
    17  H    0.163430
    18  H    0.155288
    19  H    0.155860
    20  H    0.161276
    21  C   -0.302134
    22  C   -0.306754
    23  C   -0.476506
    24  H    0.151223
    25  H    0.148614
    26  H    0.152195
    27  H    0.159942
    28  H    0.153763
    29  H    0.155435
    30  H    0.160836
    31  C   -0.303016
    32  C   -0.299968
    33  C   -0.476271
    34  H    0.149581
    35  H    0.156051
    36  H    0.151931
    37  H    0.152320
    38  H    0.154929
    39  H    0.155334
    40  H    0.160416
 Sum of Mulliken charges =  -0.00000

 Dipole moment (field-independent basis, Debye):
    X=              0.0185    Y=             -0.0023    Z=             -0.0155  Tot=              0.0242
 Quadrupole moment (field-independent basis, Debye-Ang):
   XX=            -85.4157   YY=            -85.2677   ZZ=            -84.2053
   XY=             -1.6365   XZ=             -0.2447   YZ=              0.1037

 Normal termination of Gaussian 16 at Wed May  5 19:52:33 2021.
