 Gaussian 16, Revision A.03,
 Gaussian 16:  EM64L-G16RevA.03 25-Dec-2016

 -------------
 #p 6-31g* mp2
 -------------

 ------------------------------------------------------
 Input file generated by CHIRIPA (05-May-2021 14:53:16)
 ------------------------------------------------------
 Symbolic Z-matrix:
 Charge =  0 Multiplicity = 1

                         Standard orientation:
 ---------------------------------------------------------------------
 Center     Atomic      Atomic             Coordinates (Angstroms)
 Number     Number       Type             X           Y           Z
 ---------------------------------------------------------------------
      1          6           0        3.585999   -0.413336   -0.564323
      2          6           0        4.835089   -1.270182   -0.355578
      3          6           0        4.717943   -2.652489   -0.998461
      4          1           0        2.714911   -0.939281   -0.150160
      5          1           0        3.401333   -0.303128   -1.641889
      6          1           0        5.018136   -1.377590    0.721257
      7          1           0        5.703336   -0.742051   -0.770115
      8          1           0        4.558697   -2.563070   -2.077926
      9          1           0        3.869604   -3.202219   -0.578080
     10          1           0        5.621781   -3.248214   -0.837064
     11          6           0        3.687899    0.971458    0.072614
     12          6           0        2.438809    1.828304   -0.136131
     13          6           0        2.555956    3.210611    0.506752
     14          1           0        3.872565    0.861250    1.150180
     15          1           0        4.558988    1.497402   -0.341549
     16          1           0        1.570563    1.300173    0.278407
     17          1           0        2.255762    1.935711   -1.212966
     18          1           0        3.404294    3.760341    0.086371
     19          1           0        2.715201    3.121191    1.586218
     20          1           0        1.652118    3.806336    0.345355
     21          6           0       -1.189621   -0.794819    2.010029
     22          6           0       -1.131971    0.453853    1.382323
     23          6           0       -2.042066    0.784239    0.373799
     24          6           0       -3.001051   -0.162253    0.016321
     25          6           0       -3.084109   -1.414625    0.622912
     26          6           0       -2.163790   -1.723436    1.628992
     27          1           0       -0.478667   -1.043091    2.792525
     28          1           0       -0.376493    1.176998    1.676192
     29          1           0       -2.020039    1.743604   -0.128745
     30          1           0       -3.848514   -2.114747    0.308374
     31          1           0       -2.210931   -2.693939    2.114737
     32          7           0       -3.969940    0.176091   -1.050065
     33          8           0       -4.805262   -0.675285   -1.346772
     34          8           0       -3.875687    1.286254   -1.568998
 ---------------------------------------------------------------------

 SCF Done:  E(RHF) =  -669.535368091     A.U. after   15 cycles
 E2 =    -0.2091636343D+01 EUMP2 =    -0.67162700443367D+03

 The electronic state is 1-A.
 Alpha  occ. eigenvalues --  -20.60779 -20.60774 -15.85834 -11.31215 -11.27793
 Alpha  occ. eigenvalues --  -11.27788 -11.27545 -11.26808 -11.26786 -11.22279
 Alpha  occ. eigenvalues --  -11.22039 -11.21980 -11.21855 -11.21795 -11.21443
 Alpha  occ. eigenvalues --   -1.59854  -1.39407  -1.19395  -1.08991  -1.08787
 Alpha  occ. eigenvalues --   -1.04802  -1.04094  -0.96534  -0.95618  -0.87545
 Alpha  occ. eigenvalues --   -0.86200  -0.82453  -0.80160  -0.78788  -0.77489
 Alpha  occ. eigenvalues --   -0.72052  -0.71177  -0.70502  -0.65680  -0.65047
 Alpha  occ. eigenvalues --   -0.64790  -0.62204  -0.61447  -0.59904  -0.58139
 Alpha  occ. eigenvalues --   -0.55827  -0.55300  -0.53237  -0.53128  -0.52958
 Alpha  occ. eigenvalues --   -0.52885  -0.50470  -0.48818  -0.48805  -0.48456
 Alpha  occ. eigenvalues --   -0.47189  -0.46322  -0.46247  -0.44809  -0.44337
 Alpha  occ. eigenvalues --   -0.37373  -0.36376
 Alpha virt. eigenvalues --    0.05037   0.11147   0.16436   0.20120   0.22693
 Alpha virt. eigenvalues --    0.23643   0.25960   0.26620   0.27154   0.28313
 Alpha virt. eigenvalues --    0.28671   0.30414   0.31134   0.31248   0.31941

 Mulliken charges:
               1
     1  C   -0.298625
     2  C   -0.299972
     3  C   -0.475743
     4  H    0.148064
     5  H    0.152669
     6  H    0.150387
     7  H    0.153463
     8  H    0.157194
     9  H    0.154080
    10  H    0.161247
    11  C   -0.297895
    12  C   -0.306147
    13  C   -0.477318
    14  H    0.146762
    15  H    0.152498
    16  H    0.147045
    17  H    0.157390
    18  H    0.160353
    19  H    0.152566
    20  H    0.159256
    21  C   -0.172494
    22  C   -0.218347
    23  C   -0.171207
    24  C    0.158464
    25  C   -0.170511
    26  C   -0.218544
    27  H    0.225601
    28  H    0.226779
    29  H    0.276089
    30  H    0.275822
    31  H    0.223546
    32  N    0.488128
    33  O   -0.460385
    34  O   -0.460213
 Sum of Mulliken charges =  -0.00000

 Dipole moment (field-independent basis, Debye):
    X=              3.4863    Y=             -1.2064    Z=              3.6761  Tot=              5.2080
 Quadrupole moment (field-independent basis, Debye-Ang):
   XX=           -114.4373   YY=            -91.2846   ZZ=            -94.7046
   XY=              5.5691   XZ=            -12.1327   YZ=             -2.0662

 Normal termination of Gaussian 16 at Thu May  6 07:30:47 2021.
