 Gaussian 16, Revision A.03,
 Gaussian 16:  EM64L-G16RevA.03 25-Dec-2016

 -------------
 #p 6-31g* mp2
 -------------

 ------------------------------------------------------
 Input file generated by CHIRIPA (05-May-2021 14:53:17)
 ------------------------------------------------------
 Symbolic Z-matrix:
 Charge =  0 Multiplicity = 1

                         Standard orientation:
 ---------------------------------------------------------------------
 Center     Atomic      Atomic             Coordinates (Angstroms)
 Number     Number       Type             X           Y           Z
 ---------------------------------------------------------------------
      1          6           0        3.804154   -0.422724   -0.488397
      2          6           0        3.816766   -1.496436    0.600165
      3          6           0        4.693816   -2.695311    0.237844
      4          1           0        3.450054   -0.867040   -1.428685
      5          1           0        4.833221   -0.083513   -0.671021
      6          1           0        2.787827   -1.832532    0.781657
      7          1           0        4.170695   -1.049466    1.538018
      8          1           0        5.729787   -2.380043    0.076693
      9          1           0        4.339062   -3.167558   -0.683966
     10          1           0        4.688360   -3.450668    1.029846
     11          6           0        2.931736    0.782174   -0.140782
     12          6           0        2.919124    1.855886   -1.229345
     13          6           0        2.042074    3.054761   -0.867024
     14          1           0        1.902669    0.442963    0.041841
     15          1           0        3.285836    1.226491    0.799506
     16          1           0        2.565195    1.408916   -2.167197
     17          1           0        3.948063    2.191983   -1.410836
     18          1           0        2.396828    3.527009    0.054786
     19          1           0        1.006103    2.739493   -0.705873
     20          1           0        2.047530    3.810118   -1.659025
     21          6           0       -0.847590    1.005496    1.613813
     22          6           0       -2.053214    1.661776    1.344948
     23          6           0       -3.048533    1.036500    0.588034
     24          6           0       -2.803641   -0.251193    0.113516
     25          6           0       -1.612887   -0.931205    0.364476
     26          6           0       -0.631656   -0.286621    1.123584
     27          1           0       -0.079875    1.498724    2.202654
     28          1           0       -2.223664    2.665281    1.724381
     29          1           0       -3.991099    1.521500    0.364960
     30          1           0       -1.471970   -1.931234   -0.027318
     31          1           0        0.303682   -0.798716    1.330823
     32          7           0       -3.849883   -0.923364   -0.688956
     33          8           0       -3.609654   -2.058088   -1.095562
     34          8           0       -4.890348   -0.302760   -0.896132
 ---------------------------------------------------------------------

 SCF Done:  E(RHF) =  -669.535092145     A.U. after   15 cycles
 E2 =    -0.2093274602D+01 EUMP2 =    -0.67162836674692D+03

 The electronic state is 1-A.
 Alpha  occ. eigenvalues --  -20.60802 -20.60797 -15.85856 -11.31241 -11.27811
 Alpha  occ. eigenvalues --  -11.27806 -11.27545 -11.26824 -11.26789 -11.22474
 Alpha  occ. eigenvalues --  -11.22194 -11.22117 -11.22056 -11.21699 -11.21645
 Alpha  occ. eigenvalues --   -1.59877  -1.39430  -1.19420  -1.09163  -1.08801
 Alpha  occ. eigenvalues --   -1.04825  -1.04206  -0.96641  -0.95635  -0.87660
 Alpha  occ. eigenvalues --   -0.86224  -0.82466  -0.80289  -0.79023  -0.77506
 Alpha  occ. eigenvalues --   -0.72074  -0.71201  -0.70503  -0.65872  -0.65065
 Alpha  occ. eigenvalues --   -0.64765  -0.62168  -0.61603  -0.60013  -0.58264
 Alpha  occ. eigenvalues --   -0.55929  -0.55293  -0.53337  -0.53180  -0.53077
 Alpha  occ. eigenvalues --   -0.52897  -0.50584  -0.48839  -0.48828  -0.48599
 Alpha  occ. eigenvalues --   -0.47328  -0.46507  -0.46423  -0.44832  -0.44464
 Alpha  occ. eigenvalues --   -0.37340  -0.36397
 Alpha virt. eigenvalues --    0.05007   0.11063   0.16438   0.19777   0.22779
 Alpha virt. eigenvalues --    0.23052   0.25010   0.26151   0.27122   0.28370
 Alpha virt. eigenvalues --    0.29297   0.29944   0.30983   0.31462   0.31760

 Mulliken charges:
               1
     1  C   -0.298409
     2  C   -0.302004
     3  C   -0.475996
     4  H    0.152845
     5  H    0.152663
     6  H    0.144099
     7  H    0.152234
     8  H    0.157968
     9  H    0.157833
    10  H    0.161693
    11  C   -0.307783
    12  C   -0.298385
    13  C   -0.480265
    14  H    0.151685
    15  H    0.145640
    16  H    0.155552
    17  H    0.153607
    18  H    0.151174
    19  H    0.157907
    20  H    0.163402
    21  C   -0.170004
    22  C   -0.219544
    23  C   -0.170563
    24  C    0.158585
    25  C   -0.174066
    26  C   -0.223000
    27  H    0.228608
    28  H    0.224256
    29  H    0.275952
    30  H    0.275786
    31  H    0.230958
    32  N    0.488115
    33  O   -0.460300
    34  O   -0.460243
 Sum of Mulliken charges =  -0.00000

 Dipole moment (field-independent basis, Debye):
    X=              3.7448    Y=              2.3585    Z=              2.7597  Tot=              5.2155
 Quadrupole moment (field-independent basis, Debye-Ang):
   XX=           -113.3738   YY=            -93.5417   ZZ=            -94.5331
   XY=             -9.7195   XZ=             -7.7532   YZ=              0.1069

 Normal termination of Gaussian 16 at Thu May  6 09:08:29 2021.
