 Gaussian 16, Revision A.03,
 Gaussian 16:  EM64L-G16RevA.03 25-Dec-2016

 -------------
 #p 6-31g* mp2
 -------------

 ------------------------------------------------------
 Input file generated by CHIRIPA (05-May-2021 14:51:10)
 ------------------------------------------------------
 Symbolic Z-matrix:
 Charge =  0 Multiplicity = 1

                         Standard orientation:
 ---------------------------------------------------------------------
 Center     Atomic      Atomic             Coordinates (Angstroms)
 Number     Number       Type             X           Y           Z
 ---------------------------------------------------------------------
      1          6           0        3.629853    0.507823   -0.245539
      2          6           0        3.764841   -1.014838   -0.209963
      3          6           0        5.150544   -1.495711   -0.641682
      4          1           0        3.843074    0.864807   -1.262419
      5          1           0        4.393254    0.952005    0.408156
      6          1           0        3.000521   -1.456069   -0.862456
      7          1           0        3.551086   -1.368256    0.806905
      8          1           0        5.923381   -1.082920    0.014770
      9          1           0        5.369687   -1.171231   -1.664076
     10          1           0        5.225002   -2.587149   -0.608826
     11          6           0        2.250123    1.003883    0.183410
     12          6           0        2.115136    2.526544    0.147834
     13          6           0        0.729433    3.007416    0.579552
     14          1           0        1.486723    0.559701   -0.470285
     15          1           0        2.036903    0.646899    1.200290
     16          1           0        2.328891    2.879962   -0.869034
     17          1           0        2.879456    2.967774    0.800327
     18          1           0        0.510290    2.682937    1.601947
     19          1           0       -0.043404    2.594625   -0.076899
     20          1           0        0.654975    4.098854    0.546697
     21          6           0       -2.540093   -1.239417    0.466589
     22          6           0       -1.117021   -1.476602   -0.039965
     23          6           0       -0.329581   -2.446241    0.841813
     24          1           0       -2.497040   -0.851121    1.493388
     25          1           0       -3.068601   -2.201405    0.518106
     26          1           0       -0.591795   -0.514279   -0.091827
     27          1           0       -1.163460   -1.864197   -1.065747
     28          1           0       -0.828510   -3.419804    0.884784
     29          1           0       -0.253596   -2.062216    1.864237
     30          1           0        0.684859   -2.601397    0.461420
     31          6           0       -3.339885   -0.272288   -0.404459
     32          6           0       -4.762956   -0.035104    0.102094
     33          6           0       -5.550395    0.934536   -0.779683
     34          1           0       -2.811376    0.689699   -0.455977
     35          1           0       -3.382936   -0.660585   -1.431259
     36          1           0       -4.716516    0.352491    1.127876
     37          1           0       -5.288182   -0.997426    0.153956
     38          1           0       -5.626381    0.550511   -1.802108
     39          1           0       -5.051467    1.908099   -0.822654
     40          1           0       -6.564835    1.089691   -0.399290
 ---------------------------------------------------------------------

 SCF Done:  E(RHF) =  -470.733173790     A.U. after   11 cycles
 E2 =    -0.1583828108D+01 EUMP2 =    -0.47231700189830D+03

 The electronic state is 1-A.
 Alpha  occ. eigenvalues --  -11.21647 -11.21632 -11.21574 -11.21499 -11.21427
 Alpha  occ. eigenvalues --  -11.21366 -11.21365 -11.21300 -11.21152 -11.21092
 Alpha  occ. eigenvalues --  -11.21048 -11.20980  -1.08478  -1.08374  -1.03574
 Alpha  occ. eigenvalues --   -1.03476  -0.96025  -0.95924  -0.87043  -0.86940
 Alpha  occ. eigenvalues --   -0.79677  -0.79514  -0.78366  -0.78125  -0.65144
 Alpha  occ. eigenvalues --   -0.64975  -0.60991  -0.60862  -0.59405  -0.59287
 Alpha  occ. eigenvalues --   -0.57656  -0.57522  -0.55321  -0.55206  -0.52742
 Alpha  occ. eigenvalues --   -0.52606  -0.52460  -0.52334  -0.49995  -0.49850
 Alpha  occ. eigenvalues --   -0.48103  -0.47757  -0.46791  -0.46583  -0.46028
 Alpha  occ. eigenvalues --   -0.45773  -0.45717  -0.45210  -0.43824  -0.43721
 Alpha virt. eigenvalues --    0.20776   0.22543   0.23723   0.24021   0.25328
 Alpha virt. eigenvalues --    0.26598   0.26623   0.27392   0.28883   0.29585
 Alpha virt. eigenvalues --    0.30147   0.31287   0.31607   0.31678   0.32084

 Mulliken charges:
               1
     1  C   -0.297730
     2  C   -0.302109
     3  C   -0.475691
     4  H    0.149596
     5  H    0.149607
     6  H    0.153264
     7  H    0.153230
     8  H    0.155324
     9  H    0.155225
    10  H    0.160415
    11  C   -0.304712
    12  C   -0.299323
    13  C   -0.477535
    14  H    0.156475
    15  H    0.150095
    16  H    0.152052
    17  H    0.152146
    18  H    0.155121
    19  H    0.155547
    20  H    0.160871
    21  C   -0.297260
    22  C   -0.307268
    23  C   -0.478282
    24  H    0.149613
    25  H    0.149198
    26  H    0.159685
    27  H    0.150467
    28  H    0.154441
    29  H    0.154408
    30  H    0.163978
    31  C   -0.299081
    32  C   -0.299562
    33  C   -0.475754
    34  H    0.149734
    35  H    0.149329
    36  H    0.152110
    37  H    0.151896
    38  H    0.154997
    39  H    0.155293
    40  H    0.160189
 Sum of Mulliken charges =  -0.00000

 Dipole moment (field-independent basis, Debye):
    X=              0.0510    Y=              0.0225    Z=              0.0003  Tot=              0.0557
 Quadrupole moment (field-independent basis, Debye-Ang):
   XX=            -85.9712   YY=            -84.9261   ZZ=            -83.8825
   XY=              1.2021   XZ=              0.3890   YZ=              0.7307

 Normal termination of Gaussian 16 at Thu May  6 02:13:07 2021.
