 Gaussian 16, Revision A.03,
 Gaussian 16:  EM64L-G16RevA.03 25-Dec-2016

 -------------
 #p 6-31g* mp2
 -------------

 ------------------------------------------------------
 Input file generated by CHIRIPA (05-May-2021 14:57:26)
 ------------------------------------------------------
 Symbolic Z-matrix:
 Charge =  0 Multiplicity = 1

                         Standard orientation:
 ---------------------------------------------------------------------
 Center     Atomic      Atomic             Coordinates (Angstroms)
 Number     Number       Type             X           Y           Z
 ---------------------------------------------------------------------
      1          6           0        2.668278    2.568612    0.548168
      2          6           0        4.028801    2.390928    0.276275
      3          6           0        4.534403    1.120778   -0.016353
      4          6           0        3.647167    0.045625   -0.028548
      5          6           0        2.286583    0.190478    0.238132
      6          6           0        1.803036    1.469757    0.528263
      7          1           0        2.284080    3.558841    0.774518
      8          1           0        4.703087    3.242495    0.291027
      9          1           0        5.583209    0.954829   -0.230561
     10          1           0        1.638955   -0.677569    0.215984
     11          1           0        0.745968    1.604772    0.739028
     12          7           0        4.170751   -1.303859   -0.337019
     13          8           0        3.368382   -2.234890   -0.341479
     14          8           0        5.373592   -1.404999   -0.568497
     15          6           0       -1.420727   -1.502609    0.489099
     16          6           0       -1.574807   -0.846936   -0.736818
     17          6           0       -2.756274   -0.159774   -1.030913
     18          6           0       -3.767776   -0.148682   -0.071731
     19          6           0       -3.644348   -0.792290    1.158644
     20          6           0       -2.454167   -1.473246    1.431257
     21          1           0       -0.499551   -2.034003    0.709215
     22          1           0       -0.773901   -0.868060   -1.470404
     23          1           0       -2.902104    0.356347   -1.972068
     24          1           0       -4.460409   -0.753531    1.869953
     25          1           0       -2.337289   -1.981558    2.384149
     26          7           0       -5.023154    0.575501   -0.371706
     27          8           0       -5.899363    0.570327    0.490193
     28          8           0       -5.107140    1.134575   -1.463044
 ---------------------------------------------------------------------

 SCF Done:  E(RHF) =  -868.338211623     A.U. after   16 cycles
 E2 =    -0.2600318469D+01 EUMP2 =    -0.87093853009225D+03

 The electronic state is 1-A.
 Alpha  occ. eigenvalues --  -20.61521 -20.61482 -20.61188 -20.61182 -15.86553
 Alpha  occ. eigenvalues --  -15.86243 -11.31872 -11.31700 -11.28492 -11.28360
 Alpha  occ. eigenvalues --  -11.28269 -11.28244 -11.28064 -11.28021 -11.27380
 Alpha  occ. eigenvalues --  -11.27360 -11.27312 -11.27269  -1.60574  -1.60262
 Alpha  occ. eigenvalues --   -1.40134  -1.39812  -1.20013  -1.19879  -1.09399
 Alpha  occ. eigenvalues --   -1.09263  -1.05413  -1.05274  -0.96262  -0.96073
 Alpha  occ. eigenvalues --   -0.86809  -0.86666  -0.83090  -0.82893  -0.78177
 Alpha  occ. eigenvalues --   -0.77918  -0.72774  -0.72456  -0.71894  -0.71589
 Alpha  occ. eigenvalues --   -0.71233  -0.70865  -0.65664  -0.65537  -0.65413
 Alpha  occ. eigenvalues --   -0.65216  -0.62805  -0.62558  -0.55929  -0.55717
 Alpha  occ. eigenvalues --   -0.53739  -0.53614  -0.53477  -0.53337  -0.49545
 Alpha  occ. eigenvalues --   -0.49508  -0.49222  -0.49207  -0.45550  -0.45196
 Alpha  occ. eigenvalues --   -0.37958  -0.37885  -0.37056  -0.36844
 Alpha virt. eigenvalues --    0.04347   0.04575   0.10617   0.10679   0.15825
 Alpha virt. eigenvalues --    0.16049   0.19224   0.21783   0.25201   0.27058
 Alpha virt. eigenvalues --    0.27193   0.29111   0.30120   0.30983   0.31700

 Mulliken charges:
               1
     1  C   -0.170494
     2  C   -0.217938
     3  C   -0.170139
     4  C    0.160349
     5  C   -0.177909
     6  C   -0.221557
     7  H    0.229098
     8  H    0.226210
     9  H    0.277319
    10  H    0.267946
    11  H    0.228623
    12  N    0.487960
    13  O   -0.466328
    14  O   -0.456260
    15  C   -0.182277
    16  C   -0.224617
    17  C   -0.172203
    18  C    0.158461
    19  C   -0.171227
    20  C   -0.218451
    21  H    0.233789
    22  H    0.228455
    23  H    0.277354
    24  H    0.277320
    25  H    0.226965
    26  N    0.487910
    27  O   -0.458957
    28  O   -0.459403
 Sum of Mulliken charges =  -0.00000

 Dipole moment (field-independent basis, Debye):
    X=              2.5695    Y=              2.3220    Z=              2.1688  Tot=              4.0863
 Quadrupole moment (field-independent basis, Debye-Ang):
   XX=           -146.2406   YY=           -103.3762   ZZ=           -101.8180
   XY=             29.4809   XZ=             -2.7558   YZ=             -1.6266

 Normal termination of Gaussian 16 at Fri May  7 11:14:01 2021.
