 Gaussian 16, Revision A.03,
 Gaussian 16:  EM64L-G16RevA.03 25-Dec-2016

 -------------
 #p 6-31g* mp2
 -------------

 ------------------------------------------------------
 Input file generated by CHIRIPA (05-May-2021 14:51:10)
 ------------------------------------------------------
 Symbolic Z-matrix:
 Charge =  0 Multiplicity = 1

                         Standard orientation:
 ---------------------------------------------------------------------
 Center     Atomic      Atomic             Coordinates (Angstroms)
 Number     Number       Type             X           Y           Z
 ---------------------------------------------------------------------
      1          6           0        3.944803   -0.031665   -0.519609
      2          6           0        3.800041   -1.525537   -0.227417
      3          6           0        4.964478   -2.350742   -0.775977
      4          1           0        4.022217    0.117288   -1.605319
      5          1           0        4.887723    0.329870   -0.086493
      6          1           0        2.857010   -1.883848   -0.659762
      7          1           0        3.722771   -1.670935    0.857712
      8          1           0        5.911213   -2.021133   -0.335920
      9          1           0        5.040534   -2.235256   -1.862016
     10          1           0        4.840619   -3.415675   -0.555894
     11          6           0        2.788406    0.806513    0.022544
     12          6           0        2.933168    2.300385   -0.269648
     13          6           0        1.768731    3.125590    0.278912
     14          1           0        1.845486    0.444978   -0.410571
     15          1           0        2.710992    0.657560    1.108254
     16          1           0        3.010438    2.445783   -1.354777
     17          1           0        3.876199    2.658696    0.162697
     18          1           0        1.692675    3.010103    1.364951
     19          1           0        0.821996    2.795980   -0.161145
     20          1           0        1.892590    4.190523    0.058830
     21          6           0       -4.003797   -0.652526   -0.078788
     22          6           0       -4.926370    0.453010   -0.593212
     23          6           0       -6.196891   -0.093101   -1.245389
     24          1           0       -3.734013   -1.314090   -0.913350
     25          1           0       -4.552205   -1.270710    0.645432
     26          1           0       -4.375959    1.069760   -1.315210
     27          1           0       -5.193837    1.112129    0.242636
     28          1           0       -6.770223   -0.691840   -0.530265
     29          1           0       -5.947699   -0.734449   -2.096961
     30          1           0       -6.841930    0.714209   -1.605995
     31          6           0       -2.729412   -0.122322    0.575853
     32          6           0       -1.806838   -1.227857    1.090276
     33          6           0       -0.536318   -0.681747    1.742455
     34          1           0       -2.181004    0.495862   -0.148367
     35          1           0       -2.999197    0.539242    1.410415
     36          1           0       -1.539372   -1.886977    0.254430
     37          1           0       -2.357251   -1.844608    1.812274
     38          1           0       -0.785511   -0.040399    2.594026
     39          1           0        0.037015   -0.083008    1.027330
     40          1           0        0.108721   -1.489057    2.103060
 ---------------------------------------------------------------------

 SCF Done:  E(RHF) =  -470.732931953     A.U. after   11 cycles
 E2 =    -0.1583141675D+01 EUMP2 =    -0.47231607362748D+03

 The electronic state is 1-A.
 Alpha  occ. eigenvalues --  -11.21610 -11.21599 -11.21589 -11.21541 -11.21405
 Alpha  occ. eigenvalues --  -11.21384 -11.21345 -11.21324 -11.21079 -11.21072
 Alpha  occ. eigenvalues --  -11.21063 -11.20901  -1.08447  -1.08393  -1.03541
 Alpha  occ. eigenvalues --   -1.03479  -0.95997  -0.95920  -0.87022  -0.86931
 Alpha  occ. eigenvalues --   -0.79641  -0.79522  -0.78310  -0.78155  -0.65104
 Alpha  occ. eigenvalues --   -0.65004  -0.60955  -0.60870  -0.59376  -0.59284
 Alpha  occ. eigenvalues --   -0.57622  -0.57524  -0.55316  -0.55192  -0.52699
 Alpha  occ. eigenvalues --   -0.52616  -0.52482  -0.52281  -0.49974  -0.49857
 Alpha  occ. eigenvalues --   -0.48044  -0.47761  -0.46722  -0.46590  -0.45895
 Alpha  occ. eigenvalues --   -0.45740  -0.45709  -0.45368  -0.43793  -0.43737
 Alpha virt. eigenvalues --    0.21412   0.23167   0.23642   0.24539   0.25985
 Alpha virt. eigenvalues --    0.26426   0.27136   0.27390   0.28166   0.29555
 Alpha virt. eigenvalues --    0.30750   0.31219   0.31542   0.31832   0.32115

 Mulliken charges:
               1
     1  C   -0.297714
     2  C   -0.299687
     3  C   -0.475714
     4  H    0.149315
     5  H    0.149553
     6  H    0.151881
     7  H    0.152298
     8  H    0.155207
     9  H    0.155074
    10  H    0.160262
    11  C   -0.301998
    12  C   -0.299452
    13  C   -0.476497
    14  H    0.151359
    15  H    0.152662
    16  H    0.151571
    17  H    0.152011
    18  H    0.156200
    19  H    0.154868
    20  H    0.160427
    21  C   -0.298222
    22  C   -0.299604
    23  C   -0.475685
    24  H    0.149394
    25  H    0.149612
    26  H    0.151736
    27  H    0.152037
    28  H    0.155196
    29  H    0.155080
    30  H    0.160220
    31  C   -0.297968
    32  C   -0.299671
    33  C   -0.482595
    34  H    0.148342
    35  H    0.149926
    36  H    0.151037
    37  H    0.151529
    38  H    0.154043
    39  H    0.164501
    40  H    0.159466
 Sum of Mulliken charges =  -0.00000

 Dipole moment (field-independent basis, Debye):
    X=              0.0446    Y=              0.0206    Z=              0.0062  Tot=              0.0495
 Quadrupole moment (field-independent basis, Debye-Ang):
   XX=            -85.8463   YY=            -85.4028   ZZ=            -83.5653
   XY=              0.3810   XZ=             -0.1534   YZ=             -0.1857

 Normal termination of Gaussian 16 at Wed May  5 18:14:15 2021.
