 Gaussian 16, Revision A.03,
 Gaussian 16:  EM64L-G16RevA.03 25-Dec-2016

 -------------
 #p 6-31g* mp2
 -------------

 ------------------------------------------------------
 Input file generated by CHIRIPA (05-May-2021 14:53:16)
 ------------------------------------------------------
 Symbolic Z-matrix:
 Charge =  0 Multiplicity = 1

                         Standard orientation:
 ---------------------------------------------------------------------
 Center     Atomic      Atomic             Coordinates (Angstroms)
 Number     Number       Type             X           Y           Z
 ---------------------------------------------------------------------
      1          6           0       -4.078248    0.380187   -0.320868
      2          6           0       -5.561948    0.656593   -0.566266
      3          6           0       -5.799767    1.610696   -1.737130
      4          1           0       -3.561053    1.330848   -0.131926
      5          1           0       -3.634930   -0.040737   -1.233933
      6          1           0       -6.002648    1.075583    0.347434
      7          1           0       -6.075706   -0.294855   -0.754457
      8          1           0       -5.386472    1.195866   -2.662173
      9          1           0       -5.312999    2.574091   -1.554022
     10          1           0       -6.867109    1.794430   -1.894875
     11          6           0       -3.824373   -0.571948    0.846484
     12          6           0       -2.340673   -0.848354    1.091882
     13          6           0       -2.102853   -1.802457    2.262746
     14          1           0       -4.267691   -0.151024    1.759549
     15          1           0       -4.341568   -1.522609    0.657542
     16          1           0       -1.826915    0.103094    1.280073
     17          1           0       -1.899973   -1.267344    0.178182
     18          1           0       -2.589621   -2.765852    2.079638
     19          1           0       -2.516149   -1.387627    3.187789
     20          1           0       -1.035512   -1.986191    2.420491
     21          6           0        2.326191   -2.075689   -1.283322
     22          6           0        3.652086   -1.652938   -1.424056
     23          6           0        4.084664   -0.463049   -0.831109
     24          6           0        3.160510    0.282819   -0.101102
     25          6           0        1.832915   -0.111785    0.057236
     26          6           0        1.422431   -1.305122   -0.544427
     27          1           0        1.998736   -3.001363   -1.747323
     28          1           0        4.356152   -2.249348   -1.997321
     29          1           0        5.105327   -0.112305   -0.924072
     30          1           0        1.154180    0.504057    0.634709
     31          1           0        0.392115   -1.630976   -0.433456
     32          7           0        3.606767    1.544325    0.531239
     33          8           0        2.773072    2.183442    1.169299
     34          8           0        4.781786    1.870091    0.376835
 ---------------------------------------------------------------------

 SCF Done:  E(RHF) =  -669.535602752     A.U. after   15 cycles
 E2 =    -0.2091426611D+01 EUMP2 =    -0.67162702936289D+03

 The electronic state is 1-A.
 Alpha  occ. eigenvalues --  -20.60723 -20.60718 -15.85775 -11.31124 -11.27697
 Alpha  occ. eigenvalues --  -11.27674 -11.27431 -11.26713 -11.26653 -11.22563
 Alpha  occ. eigenvalues --  -11.22025 -11.21973 -11.21858 -11.21828 -11.21349
 Alpha  occ. eigenvalues --   -1.59798  -1.39352  -1.19294  -1.09033  -1.08694
 Alpha  occ. eigenvalues --   -1.04694  -1.04124  -0.96534  -0.95531  -0.87549
 Alpha  occ. eigenvalues --   -0.86095  -0.82367  -0.80235  -0.78828  -0.77402
 Alpha  occ. eigenvalues --   -0.71994  -0.71121  -0.70407  -0.65685  -0.64945
 Alpha  occ. eigenvalues --   -0.64697  -0.62090  -0.61497  -0.59911  -0.58149
 Alpha  occ. eigenvalues --   -0.55800  -0.55199  -0.53248  -0.53040  -0.52937
 Alpha  occ. eigenvalues --   -0.52793  -0.50464  -0.48761  -0.48750  -0.48510
 Alpha  occ. eigenvalues --   -0.47256  -0.46355  -0.46259  -0.44762  -0.44363
 Alpha  occ. eigenvalues --   -0.37280  -0.36293
 Alpha virt. eigenvalues --    0.05114   0.11350   0.16585   0.19498   0.22656
 Alpha virt. eigenvalues --    0.23744   0.25036   0.25689   0.27309   0.28010
 Alpha virt. eigenvalues --    0.29096   0.29534   0.31172   0.31411   0.31763

 Mulliken charges:
               1
     1  C   -0.299360
     2  C   -0.300204
     3  C   -0.476182
     4  H    0.152568
     5  H    0.147615
     6  H    0.153668
     7  H    0.151895
     8  H    0.154859
     9  H    0.157111
    10  H    0.161603
    11  C   -0.297440
    12  C   -0.307309
    13  C   -0.477507
    14  H    0.153803
    15  H    0.150761
    16  H    0.154797
    17  H    0.143218
    18  H    0.156530
    19  H    0.161568
    20  H    0.159534
    21  C   -0.172106
    22  C   -0.218532
    23  C   -0.171035
    24  C    0.158908
    25  C   -0.175259
    26  C   -0.225392
    27  H    0.225664
    28  H    0.223071
    29  H    0.275328
    30  H    0.277175
    31  H    0.233910
    32  N    0.488123
    33  O   -0.460685
    34  O   -0.460695
 Sum of Mulliken charges =  -0.00000

 Dipole moment (field-independent basis, Debye):
    X=             -1.7852    Y=             -4.4063    Z=             -2.1598  Tot=              5.2218
 Quadrupole moment (field-independent basis, Debye-Ang):
   XX=            -99.9507   YY=            -97.6782   ZZ=            -94.3956
   XY=            -15.2530   XZ=             -9.3766   YZ=              1.1918

 Normal termination of Gaussian 16 at Thu May  6 04:20:44 2021.
