 Gaussian 16, Revision A.03,
 Gaussian 16:  EM64L-G16RevA.03 25-Dec-2016

 -------------
 #p 6-31g* mp2
 -------------

 ------------------------------------------------------
 Input file generated by CHIRIPA (05-May-2021 14:53:13)
 ------------------------------------------------------
 Symbolic Z-matrix:
 Charge =  0 Multiplicity = 1

                         Standard orientation:
 ---------------------------------------------------------------------
 Center     Atomic      Atomic             Coordinates (Angstroms)
 Number     Number       Type             X           Y           Z
 ---------------------------------------------------------------------
      1          6           0       -3.366390   -0.268185    0.486316
      2          6           0       -3.535311   -1.599020   -0.247392
      3          6           0       -3.583148   -2.795979    0.702763
      4          1           0       -2.445221   -0.300674    1.084093
      5          1           0       -4.195383   -0.141060    1.196250
      6          1           0       -2.706994   -1.722955   -0.956721
      7          1           0       -4.456085   -1.563289   -0.843642
      8          1           0       -4.419598   -2.699215    1.402470
      9          1           0       -2.660569   -2.859789    1.288748
     10          1           0       -3.704321   -3.737021    0.157220
     11          6           0       -3.316839    0.937815   -0.450080
     12          6           0       -3.147918    2.268650    0.283629
     13          6           0       -3.100081    3.465609   -0.666527
     14          1           0       -2.487846    0.810690   -1.160013
     15          1           0       -4.238008    0.970304   -1.047856
     16          1           0       -2.227144    2.232919    0.879878
     17          1           0       -3.976235    2.392585    0.992958
     18          1           0       -4.022660    3.529419   -1.252511
     19          1           0       -2.263631    3.368845   -1.366233
     20          1           0       -2.978908    4.406651   -0.120984
     21          6           0        4.789345    0.943664    0.393955
     22          6           0        4.583190    0.257769   -0.807532
     23          6           0        3.379948   -0.413518   -1.044443
     24          6           0        2.400006   -0.378092   -0.053610
     25          6           0        2.575445    0.296477    1.153646
     26          6           0        3.786583    0.960798    1.368991
     27          1           0        5.727119    1.462430    0.569616
     28          1           0        5.360179    0.242765   -1.566550
     29          1           0        3.193915   -0.952283   -1.965607
     30          1           0        1.782254    0.293547    1.891385
     31          1           0        3.943914    1.492658    2.303024
     32          7           0        1.122009   -1.085067   -0.293000
     33          8           0        0.274425   -1.038755    0.595872
     34          8           0        0.992096   -1.672118   -1.364975
 ---------------------------------------------------------------------

 SCF Done:  E(RHF) =  -669.536687670     A.U. after   15 cycles
 E2 =    -0.2091710383D+01 EUMP2 =    -0.67162839805279D+03

 The electronic state is 1-A.
 Alpha  occ. eigenvalues --  -20.61117 -20.61111 -15.86133 -11.31394 -11.27949
 Alpha  occ. eigenvalues --  -11.27944 -11.27673 -11.26941 -11.26931 -11.20783
 Alpha  occ. eigenvalues --  -11.20474 -11.20220 -11.19952 -11.19794 -11.19545
 Alpha  occ. eigenvalues --   -1.60163  -1.39722  -1.19555  -1.08970  -1.07154
 Alpha  occ. eigenvalues --   -1.04941  -1.02319  -0.95822  -0.94797  -0.86345
 Alpha  occ. eigenvalues --   -0.85826  -0.82660  -0.78447  -0.77723  -0.76897
 Alpha  occ. eigenvalues --   -0.72359  -0.71473  -0.70663  -0.65215  -0.64945
 Alpha  occ. eigenvalues --   -0.63751  -0.62289  -0.59692  -0.58227  -0.56400
 Alpha  occ. eigenvalues --   -0.55446  -0.54071  -0.53275  -0.53032  -0.51561
 Alpha  occ. eigenvalues --   -0.51229  -0.49146  -0.49107  -0.48697  -0.46759
 Alpha  occ. eigenvalues --   -0.45468  -0.45177  -0.44445  -0.44236  -0.42554
 Alpha  occ. eigenvalues --   -0.37529  -0.36539
 Alpha virt. eigenvalues --    0.04789   0.11116   0.16284   0.21222   0.24041
 Alpha virt. eigenvalues --    0.25530   0.27148   0.27607   0.28307   0.28811
 Alpha virt. eigenvalues --    0.29133   0.30907   0.32386   0.32524   0.32720

 Mulliken charges:
               1
     1  C   -0.303016
     2  C   -0.298649
     3  C   -0.477104
     4  H    0.168874
     5  H    0.140003
     6  H    0.166613
     7  H    0.142505
     8  H    0.146752
     9  H    0.164763
    10  H    0.155476
    11  C   -0.297491
    12  C   -0.298446
    13  C   -0.474714
    14  H    0.152119
    15  H    0.145004
    16  H    0.149659
    17  H    0.149335
    18  H    0.154372
    19  H    0.153285
    20  H    0.155757
    21  C   -0.170357
    22  C   -0.218572
    23  C   -0.170464
    24  C    0.157591
    25  C   -0.170609
    26  C   -0.218496
    27  H    0.226428
    28  H    0.224206
    29  H    0.276069
    30  H    0.275605
    31  H    0.224265
    32  N    0.491884
    33  O   -0.463989
    34  O   -0.458660
 Sum of Mulliken charges =  -0.00000

 Dipole moment (field-independent basis, Debye):
    X=              4.9336    Y=              2.3670    Z=              0.8290  Tot=              5.5345
 Quadrupole moment (field-independent basis, Debye-Ang):
   XX=            -73.5298   YY=            -98.5880   ZZ=            -91.2943
   XY=              3.8718   XZ=              0.1590   YZ=              1.7819

 Normal termination of Gaussian 16 at Thu May  6 18:41:00 2021.
