 Gaussian 16, Revision A.03,
 Gaussian 16:  EM64L-G16RevA.03 25-Dec-2016

 -------------
 #p 6-31g* mp2
 -------------

 ------------------------------------------------------
 Input file generated by CHIRIPA (05-May-2021 14:55:25)
 ------------------------------------------------------
 Symbolic Z-matrix:
 Charge =  0 Multiplicity = 1

                         Standard orientation:
 ---------------------------------------------------------------------
 Center     Atomic      Atomic             Coordinates (Angstroms)
 Number     Number       Type             X           Y           Z
 ---------------------------------------------------------------------
      1          6           0        2.452061    2.402528    0.271084
      2          6           0        2.174670    1.625774   -0.858620
      3          6           0        2.656751    0.317109   -0.956297
      4          6           0        3.416447   -0.185262    0.099059
      5          6           0        3.709808    0.563709    1.237598
      6          6           0        3.217395    1.869955    1.313749
      7          1           0        2.073556    3.418191    0.338600
      8          1           0        1.580562    2.036765   -1.669895
      9          1           0        2.456996   -0.306223   -1.819415
     10          1           0        4.304798    0.126487    2.030215
     11          1           0        3.434392    2.470887    2.192292
     12          7           0        3.932273   -1.569407    0.007047
     13          8           0        4.599242   -1.988756    0.950411
     14          8           0        3.659842   -2.208741   -1.006694
     15          6           0       -3.547011   -0.270364   -0.296484
     16          6           0       -2.694938    0.842470   -0.907676
     17          6           0       -1.262652    0.396019   -1.202691
     18          1           0       -3.072125   -0.619981    0.630445
     19          1           0       -3.563419   -1.128727   -0.982295
     20          1           0       -2.681277    1.699002   -0.221542
     21          1           0       -3.172008    1.189610   -1.833157
     22          1           0       -1.257835   -0.443613   -1.905254
     23          1           0       -0.764315    0.068674   -0.284483
     24          1           0       -0.671202    1.206943   -1.639099
     25          6           0       -4.981456    0.160638    0.004071
     26          6           0       -5.833529   -0.952196    0.615264
     27          6           0       -7.265816   -0.505746    0.910279
     28          1           0       -4.965048    1.019001    0.689882
     29          1           0       -5.456343    0.510255   -0.922857
     30          1           0       -5.356460   -1.299336    1.540745
     31          1           0       -5.847191   -1.808729   -0.070870
     32          1           0       -7.764153   -0.178400   -0.007929
     33          1           0       -7.270633    0.333886    1.612842
     34          1           0       -7.857264   -1.316669    1.346686
 ---------------------------------------------------------------------

 SCF Done:  E(RHF) =  -669.534632230     A.U. after   15 cycles
 E2 =    -0.2091828954D+01 EUMP2 =    -0.67162646118368D+03

 The electronic state is 1-A.
 Alpha  occ. eigenvalues --  -20.60736 -20.60731 -15.85789 -11.31154 -11.27710
 Alpha  occ. eigenvalues --  -11.27696 -11.27452 -11.26745 -11.26715 -11.22034
 Alpha  occ. eigenvalues --  -11.21776 -11.21680 -11.21605 -11.21584 -11.21226
 Alpha  occ. eigenvalues --   -1.59812  -1.39365  -1.19325  -1.08734  -1.08708
 Alpha  occ. eigenvalues --   -1.04732  -1.03842  -0.96304  -0.95555  -0.87336
 Alpha  occ. eigenvalues --   -0.86123  -0.82390  -0.79915  -0.78516  -0.77434
 Alpha  occ. eigenvalues --   -0.72007  -0.71135  -0.70428  -0.65347  -0.64976
 Alpha  occ. eigenvalues --   -0.64770  -0.62117  -0.61235  -0.59681  -0.57909
 Alpha  occ. eigenvalues --   -0.55583  -0.55232  -0.53372  -0.53001  -0.52704
 Alpha  occ. eigenvalues --   -0.52534  -0.50214  -0.48768  -0.48762  -0.48221
 Alpha  occ. eigenvalues --   -0.46929  -0.46061  -0.45975  -0.44771  -0.44108
 Alpha  occ. eigenvalues --   -0.37303  -0.36265
 Alpha virt. eigenvalues --    0.05089   0.11286   0.16544   0.20736   0.22662
 Alpha virt. eigenvalues --    0.24012   0.26097   0.26392   0.27157   0.28182
 Alpha virt. eigenvalues --    0.28534   0.29792   0.31119   0.31652   0.32197

 Mulliken charges:
               1
     1  C   -0.172837
     2  C   -0.213281
     3  C   -0.170257
     4  C    0.157825
     5  C   -0.171566
     6  C   -0.218575
     7  H    0.225248
     8  H    0.223812
     9  H    0.276111
    10  H    0.275323
    11  H    0.223150
    12  N    0.488109
    13  O   -0.460663
    14  O   -0.460289
    15  C   -0.299177
    16  C   -0.299707
    17  C   -0.476077
    18  H    0.151236
    19  H    0.151611
    20  H    0.149958
    21  H    0.151807
    22  H    0.157787
    23  H    0.161450
    24  H    0.147772
    25  C   -0.298406
    26  C   -0.299994
    27  C   -0.475845
    28  H    0.148753
    29  H    0.149669
    30  H    0.152716
    31  H    0.153062
    32  H    0.155212
    33  H    0.154816
    34  H    0.161245
 Sum of Mulliken charges =  -0.00000

 Dipole moment (field-independent basis, Debye):
    X=             -1.8908    Y=              4.8230    Z=              0.3501  Tot=              5.1922
 Quadrupole moment (field-independent basis, Debye-Ang):
   XX=           -107.8907   YY=            -97.2129   ZZ=            -90.0997
   XY=             17.8057   XZ=              3.6569   YZ=              1.2855

 Normal termination of Gaussian 16 at Thu May  6 03:13:00 2021.
