 Gaussian 16, Revision A.03,
 Gaussian 16:  EM64L-G16RevA.03 25-Dec-2016

 -------------
 #p 6-31g* mp2
 -------------

 ------------------------------------------------------
 Input file generated by CHIRIPA (05-May-2021 14:57:22)
 ------------------------------------------------------
 Symbolic Z-matrix:
 Charge =  0 Multiplicity = 1

                         Standard orientation:
 ---------------------------------------------------------------------
 Center     Atomic      Atomic             Coordinates (Angstroms)
 Number     Number       Type             X           Y           Z
 ---------------------------------------------------------------------
      1          6           0        5.108256    2.224461   -0.459498
      2          6           0        5.707932    1.049748   -0.925287
      3          6           0        5.102421   -0.191326   -0.707027
      4          6           0        3.891997   -0.221038   -0.016171
      5          6           0        3.269703    0.931787    0.460312
      6          6           0        3.893197    2.161842    0.230598
      7          1           0        5.585617    3.184277   -0.633497
      8          1           0        6.651547    1.095357   -1.461530
      9          1           0        5.544768   -1.116253   -1.056678
     10          1           0        2.328896    0.854475    0.991652
     11          1           0        3.425185    3.072514    0.593483
     12          7           0        3.241450   -1.529074    0.220954
     13          8           0        2.175205   -1.528363    0.832312
     14          8           0        3.810115   -2.530257   -0.209034
     15          6           0       -1.797155   -0.638312    1.105211
     16          6           0       -2.570658    0.380949    1.670296
     17          6           0       -3.792398    0.745982    1.097015
     18          6           0       -4.212102    0.067695   -0.046255
     19          6           0       -3.464044   -0.951987   -0.632726
     20          6           0       -2.245526   -1.300360   -0.042472
     21          1           0       -0.849330   -0.915408    1.557141
     22          1           0       -2.224946    0.896830    2.561584
     23          1           0       -4.411161    1.531383    1.513781
     24          1           0       -3.834998   -1.448045   -1.521397
     25          1           0       -1.646903   -2.092317   -0.483495
     26          7           0       -5.503798    0.445320   -0.662145
     27          8           0       -5.851327   -0.167616   -1.669204
     28          8           0       -6.144241    1.347089   -0.126158
 ---------------------------------------------------------------------

 SCF Done:  E(RHF) =  -868.339879869     A.U. after   16 cycles
 E2 =    -0.2598308996D+01 EUMP2 =    -0.87093818886549D+03

 The electronic state is 1-A.
 Alpha  occ. eigenvalues --  -20.61794 -20.61726 -20.60387 -20.60378 -15.86808
 Alpha  occ. eigenvalues --  -15.85435 -11.31924 -11.30668 -11.28500 -11.28434
 Alpha  occ. eigenvalues --  -11.28136 -11.27424 -11.27393 -11.27269 -11.27196
 Alpha  occ. eigenvalues --  -11.26769 -11.26221 -11.26069  -1.60823  -1.59465
 Alpha  occ. eigenvalues --   -1.40389  -1.39022  -1.20068  -1.18816  -1.09502
 Alpha  occ. eigenvalues --   -1.08200  -1.05437  -1.04205  -0.96384  -0.95061
 Alpha  occ. eigenvalues --   -0.86846  -0.85585  -0.83233  -0.81908  -0.78312
 Alpha  occ. eigenvalues --   -0.77005  -0.73049  -0.72128  -0.71653  -0.71173
 Alpha  occ. eigenvalues --   -0.70789  -0.69813  -0.65726  -0.65434  -0.64448
 Alpha  occ. eigenvalues --   -0.64180  -0.62795  -0.61558  -0.55933  -0.54563
 Alpha  occ. eigenvalues --   -0.53773  -0.53527  -0.52544  -0.52274  -0.49803
 Alpha  occ. eigenvalues --   -0.49749  -0.48418  -0.48398  -0.45848  -0.44458
 Alpha  occ. eigenvalues --   -0.38022  -0.37027  -0.36749  -0.35833
 Alpha virt. eigenvalues --    0.04214   0.05529   0.10632   0.11833   0.15760
 Alpha virt. eigenvalues --    0.17055   0.20564   0.22104   0.26402   0.27184
 Alpha virt. eigenvalues --    0.27922   0.29032   0.30510   0.31278   0.32959

 Mulliken charges:
               1
     1  C   -0.169786
     2  C   -0.218267
     3  C   -0.170373
     4  C    0.158301
     5  C   -0.169390
     6  C   -0.218000
     7  H    0.228370
     8  H    0.225999
     9  H    0.276909
    10  H    0.270048
    11  H    0.225118
    12  N    0.492741
    13  O   -0.474989
    14  O   -0.455246
    15  C   -0.178420
    16  C   -0.221327
    17  C   -0.171934
    18  C    0.157372
    19  C   -0.172175
    20  C   -0.221072
    21  H    0.244661
    22  H    0.219429
    23  H    0.272725
    24  H    0.274289
    25  H    0.231016
    26  N    0.488202
    27  O   -0.461444
    28  O   -0.462758
 Sum of Mulliken charges =  -0.00000

 Dipole moment (field-independent basis, Debye):
    X=              7.3310    Y=              3.2173    Z=              1.2549  Tot=              8.1036
 Quadrupole moment (field-independent basis, Debye-Ang):
   XX=           -123.2430   YY=           -104.0971   ZZ=           -102.5013
   XY=             21.5990   XZ=            -15.6331   YZ=              4.3739

 Normal termination of Gaussian 16 at Thu May  6 22:36:53 2021.
