 Gaussian 16, Revision A.03,
 Gaussian 16:  EM64L-G16RevA.03 25-Dec-2016

 -------------
 #p 6-31g* mp2
 -------------

 ------------------------------------------------------
 Input file generated by CHIRIPA (05-May-2021 14:51:09)
 ------------------------------------------------------
 Symbolic Z-matrix:
 Charge =  0 Multiplicity = 1

                         Standard orientation:
 ---------------------------------------------------------------------
 Center     Atomic      Atomic             Coordinates (Angstroms)
 Number     Number       Type             X           Y           Z
 ---------------------------------------------------------------------
      1          6           0        4.223179    0.636987   -0.308369
      2          6           0        4.174177    1.961991    0.453174
      3          6           0        5.079065    3.030580   -0.160902
      4          1           0        5.259421    0.272832   -0.331579
      5          1           0        3.929662    0.811304   -1.352810
      6          1           0        4.466364    1.784983    1.496204
      7          1           0        3.137901    2.322938    0.474739
      8          1           0        4.785202    3.236216   -1.195291
      9          1           0        6.121214    2.695204   -0.168022
     10          1           0        5.028659    3.969543    0.399159
     11          6           0        3.323796   -0.441275    0.293453
     12          6           0        3.372797   -1.766279   -0.468090
     13          6           0        2.467909   -2.834868    0.145986
     14          1           0        3.617312   -0.615592    1.337894
     15          1           0        2.287554   -0.077119    0.316664
     16          1           0        4.409073   -2.127226   -0.489655
     17          1           0        3.080610   -1.589271   -1.511119
     18          1           0        1.425761   -2.499491    0.153106
     19          1           0        2.761772   -3.040503    1.180375
     20          1           0        2.518315   -3.773831   -0.414075
     21          6           0       -4.291524    0.327386   -0.358929
     22          6           0       -4.811711    1.499897    0.473300
     23          6           0       -5.847343    2.341254   -0.273277
     24          1           0       -3.851488    0.712769   -1.288872
     25          1           0       -5.138086   -0.308133   -0.653620
     26          1           0       -3.964255    2.132260    0.767498
     27          1           0       -5.250387    1.111692    1.401457
     28          1           0       -6.711115    1.729629   -0.553308
     29          1           0       -5.417675    2.755996   -1.190869
     30          1           0       -6.205743    3.173884    0.340022
     31          6           0       -3.255451   -0.523098    0.373846
     32          6           0       -2.735264   -1.695610   -0.458384
     33          6           0       -1.699631   -2.536966    0.288193
     34          1           0       -2.408888    0.112421    0.668536
     35          1           0       -3.695486   -0.908481    1.303788
     36          1           0       -2.296588   -1.307404   -1.386541
     37          1           0       -3.582720   -2.327973   -0.752582
     38          1           0       -2.129299   -2.951708    1.205785
     39          1           0       -0.835859   -1.925341    0.568223
     40          1           0       -1.341231   -3.369597   -0.325106
 ---------------------------------------------------------------------

 SCF Done:  E(RHF) =  -470.733118345     A.U. after   11 cycles
 E2 =    -0.1582420431D+01 EUMP2 =    -0.47231553877632D+03

 The electronic state is 1-A.
 Alpha  occ. eigenvalues --  -11.21631 -11.21621 -11.21608 -11.21561 -11.21432
 Alpha  occ. eigenvalues --  -11.21404 -11.21372 -11.21345 -11.21092 -11.21087
 Alpha  occ. eigenvalues --  -11.21077 -11.20947  -1.08458  -1.08419  -1.03564
 Alpha  occ. eigenvalues --   -1.03499  -0.96031  -0.95931  -0.87070  -0.86926
 Alpha  occ. eigenvalues --   -0.79664  -0.79527  -0.78275  -0.78228  -0.65113
 Alpha  occ. eigenvalues --   -0.65032  -0.61061  -0.60820  -0.59374  -0.59321
 Alpha  occ. eigenvalues --   -0.57638  -0.57550  -0.55482  -0.55086  -0.52750
 Alpha  occ. eigenvalues --   -0.52626  -0.52483  -0.52296  -0.50142  -0.49702
 Alpha  occ. eigenvalues --   -0.47998  -0.47820  -0.46762  -0.46473  -0.45843
 Alpha  occ. eigenvalues --   -0.45772  -0.45729  -0.45629  -0.43810  -0.43757
 Alpha virt. eigenvalues --    0.21827   0.23083   0.23580   0.24891   0.26007
 Alpha virt. eigenvalues --    0.26825   0.27084   0.27453   0.27771   0.29024
 Alpha virt. eigenvalues --    0.30526   0.31542   0.31757   0.31783   0.32085

 Mulliken charges:
               1
     1  C   -0.298251
     2  C   -0.299596
     3  C   -0.475698
     4  H    0.149828
     5  H    0.149408
     6  H    0.152009
     7  H    0.151619
     8  H    0.155124
     9  H    0.155254
    10  H    0.160236
    11  C   -0.298094
    12  C   -0.299277
    13  C   -0.483201
    14  H    0.149695
    15  H    0.148286
    16  H    0.151687
    17  H    0.151449
    18  H    0.164244
    19  H    0.154674
    20  H    0.159610
    21  C   -0.298302
    22  C   -0.299669
    23  C   -0.475720
    24  H    0.149545
    25  H    0.149658
    26  H    0.151890
    27  H    0.152049
    28  H    0.155237
    29  H    0.155152
    30  H    0.160335
    31  C   -0.298543
    32  C   -0.299704
    33  C   -0.479713
    34  H    0.149403
    35  H    0.149905
    36  H    0.151720
    37  H    0.152192
    38  H    0.155883
    39  H    0.157937
    40  H    0.161743
 Sum of Mulliken charges =  -0.00000

 Dipole moment (field-independent basis, Debye):
    X=             -0.0375    Y=             -0.0140    Z=              0.0082  Tot=              0.0409
 Quadrupole moment (field-independent basis, Debye-Ang):
   XX=            -84.5969   YY=            -85.5855   ZZ=            -84.5799
   XY=              0.2947   XZ=              0.0693   YZ=              0.1438

 Normal termination of Gaussian 16 at Wed May  5 18:09:22 2021.
