 Gaussian 16, Revision A.03,
 Gaussian 16:  EM64L-G16RevA.03 25-Dec-2016

 -------------
 #p 6-31g* mp2
 -------------

 ------------------------------------------------------
 Input file generated by CHIRIPA (05-May-2021 14:55:19)
 ------------------------------------------------------
 Symbolic Z-matrix:
 Charge =  0 Multiplicity = 1

                         Standard orientation:
 ---------------------------------------------------------------------
 Center     Atomic      Atomic             Coordinates (Angstroms)
 Number     Number       Type             X           Y           Z
 ---------------------------------------------------------------------
      1          6           0        0.989417   -1.521116    1.799314
      2          6           0        1.167816   -2.134520    0.554955
      3          6           0        1.991623   -1.551446   -0.412471
      4          6           0        2.624557   -0.349218   -0.100491
      5          6           0        2.466809    0.286332    1.130152
      6          6           0        1.638339   -0.314774    2.082442
      7          1           0        0.347652   -1.981065    2.544955
      8          1           0        0.665113   -3.071410    0.332309
      9          1           0        2.147377   -2.004794   -1.383880
     10          1           0        2.981185    1.219959    1.322963
     11          1           0        1.501641    0.163861    3.047982
     12          7           0        3.499153    0.277602   -1.116650
     13          8           0        4.045576    1.337030   -0.817200
     14          8           0        3.621678   -0.302395   -2.193325
     15          6           0       -2.810953    1.233009    0.067654
     16          6           0       -1.328771    1.040573    0.390284
     17          6           0       -0.614259    2.357554    0.694958
     18          1           0       -2.907684    1.911474   -0.790992
     19          1           0       -3.302102    1.730061    0.915656
     20          1           0       -0.840848    0.542786   -0.457511
     21          1           0       -1.235550    0.362335    1.248141
     22          1           0       -1.074567    2.855726    1.554343
     23          1           0       -0.677623    3.037202   -0.161000
     24          1           0        0.444071    2.196741    0.922851
     25          6           0       -3.538904   -0.074545   -0.239133
     26          6           0       -5.021087    0.117891   -0.561762
     27          6           0       -5.735599   -1.199091   -0.866437
     28          1           0       -3.047755   -0.571596   -1.087135
     29          1           0       -3.442173   -0.753009    0.619513
     30          1           0       -5.114309    0.796129   -1.419620
     31          1           0       -5.509009    0.615679    0.286031
     32          1           0       -5.672235   -1.878738   -0.010478
     33          1           0       -5.275290   -1.697262   -1.725822
     34          1           0       -6.793930   -1.038277   -1.094330
 ---------------------------------------------------------------------

 SCF Done:  E(RHF) =  -669.533308818     A.U. after   15 cycles
 E2 =    -0.2095257176D+01 EUMP2 =    -0.67162856599424D+03

 The electronic state is 1-A.
 Alpha  occ. eigenvalues --  -20.60812 -20.60806 -15.85867 -11.31252 -11.27821
 Alpha  occ. eigenvalues --  -11.27809 -11.27542 -11.26818 -11.26808 -11.21873
 Alpha  occ. eigenvalues --  -11.21708 -11.21693 -11.21563 -11.21365 -11.21145
 Alpha  occ. eigenvalues --   -1.59888  -1.39441  -1.19436  -1.08833  -1.08655
 Alpha  occ. eigenvalues --   -1.04853  -1.03736  -0.96208  -0.95655  -0.87225
 Alpha  occ. eigenvalues --   -0.86234  -0.82487  -0.79813  -0.78493  -0.77528
 Alpha  occ. eigenvalues --   -0.72085  -0.71214  -0.70548  -0.65311  -0.65084
 Alpha  occ. eigenvalues --   -0.64833  -0.62197  -0.61150  -0.59667  -0.57932
 Alpha  occ. eigenvalues --   -0.55500  -0.55336  -0.53380  -0.52927  -0.52706
 Alpha  occ. eigenvalues --   -0.52428  -0.50150  -0.48845  -0.48839  -0.48141
 Alpha  occ. eigenvalues --   -0.46868  -0.46027  -0.45967  -0.44842  -0.44026
 Alpha  occ. eigenvalues --   -0.37302  -0.36331
 Alpha virt. eigenvalues --    0.04969   0.11119   0.16407   0.20990   0.22729
 Alpha virt. eigenvalues --    0.24191   0.26310   0.26728   0.27097   0.28007
 Alpha virt. eigenvalues --    0.28428   0.30755   0.31188   0.31576   0.31709

 Mulliken charges:
               1
     1  C   -0.169512
     2  C   -0.216062
     3  C   -0.172396
     4  C    0.160824
     5  C   -0.174791
     6  C   -0.213043
     7  H    0.225690
     8  H    0.223904
     9  H    0.275792
    10  H    0.276256
    11  H    0.224338
    12  N    0.488082
    13  O   -0.460279
    14  O   -0.460419
    15  C   -0.298559
    16  C   -0.297568
    17  C   -0.479120
    18  H    0.151671
    19  H    0.148076
    20  H    0.154248
    21  H    0.145967
    22  H    0.151118
    23  H    0.158949
    24  H    0.159822
    25  C   -0.297045
    26  C   -0.299676
    27  C   -0.475694
    28  H    0.149415
    29  H    0.144204
    30  H    0.153915
    31  H    0.151946
    32  H    0.153193
    33  H    0.155260
    34  H    0.161491
 Sum of Mulliken charges =  -0.00000

 Dipole moment (field-independent basis, Debye):
    X=             -3.0098    Y=             -2.2532    Z=              3.5525  Tot=              5.1727
 Quadrupole moment (field-independent basis, Debye-Ang):
   XX=           -112.0560   YY=            -91.5216   ZZ=            -92.9533
   XY=             -4.4733   XZ=             10.2809   YZ=              1.2085

 Normal termination of Gaussian 16 at Wed May  5 22:09:04 2021.
