 Gaussian 16, Revision A.03,
 Gaussian 16:  EM64L-G16RevA.03 25-Dec-2016

 -------------
 #p 6-31g* mp2
 -------------

 ------------------------------------------------------
 Input file generated by CHIRIPA (05-May-2021 14:51:12)
 ------------------------------------------------------
 Symbolic Z-matrix:
 Charge =  0 Multiplicity = 1

                         Standard orientation:
 ---------------------------------------------------------------------
 Center     Atomic      Atomic             Coordinates (Angstroms)
 Number     Number       Type             X           Y           Z
 ---------------------------------------------------------------------
      1          6           0       -2.162972   -1.041372    0.530316
      2          6           0       -1.489571   -2.190687   -0.220409
      3          6           0       -0.659195   -3.089458    0.696368
      4          1           0       -1.393807   -0.441432    1.035690
      5          1           0       -2.805546   -1.455020    1.319867
      6          1           0       -0.849531   -1.775035   -1.009205
      7          1           0       -2.260413   -2.787849   -0.724212
      8          1           0       -1.288528   -3.531401    1.475616
      9          1           0        0.130371   -2.512833    1.189004
     10          1           0       -0.186760   -3.904386    0.139092
     11          6           0       -2.996698   -0.134058   -0.372685
     12          6           0       -3.670100    1.015258    0.378041
     13          6           0       -4.500475    1.914029   -0.538736
     14          1           0       -2.354125    0.279591   -1.162235
     15          1           0       -3.765863   -0.733997   -0.878058
     16          1           0       -2.899258    1.612419    0.881844
     17          1           0       -4.310140    0.599606    1.166837
     18          1           0       -5.290041    1.337403   -1.031372
     19          1           0       -3.871143    2.355971   -1.317985
     20          1           0       -4.972911    2.728957    0.018540
     21          6           0        2.317463    1.259428   -0.330598
     22          6           0        2.602322    2.418465    0.625160
     23          6           0        2.071352    3.755623    0.107597
     24          1           0        2.766638    1.480140   -1.308592
     25          1           0        1.233342    1.186027   -0.493963
     26          1           0        3.685481    2.488784    0.787760
     27          1           0        2.152580    2.194880    1.601048
     28          1           0        0.987167    3.709494   -0.037375
     29          1           0        2.528778    4.005068   -0.855285
     30          1           0        2.285849    4.570292    0.806286
     31          6           0        2.842207   -0.083998    0.172967
     32          6           0        2.557349   -1.243035   -0.782792
     33          6           0        3.088318   -2.580194   -0.265229
     34          1           0        3.926329   -0.010598    0.336331
     35          1           0        2.393033   -0.304712    1.150961
     36          1           0        3.007090   -1.019451   -1.758680
     37          1           0        1.474190   -1.313356   -0.945392
     38          1           0        2.630894   -2.829639    0.697653
     39          1           0        4.172503   -2.534064   -0.120256
     40          1           0        2.873823   -3.394862   -0.963918
 ---------------------------------------------------------------------

 SCF Done:  E(RHF) =  -470.732640505     A.U. after   11 cycles
 E2 =    -0.1584458014D+01 EUMP2 =    -0.47231709851883D+03

 The electronic state is 1-A.
 Alpha  occ. eigenvalues --  -11.21651 -11.21647 -11.21645 -11.21566 -11.21467
 Alpha  occ. eigenvalues --  -11.21451 -11.21406 -11.21389 -11.21111 -11.21102
 Alpha  occ. eigenvalues --  -11.21094 -11.21009  -1.08516  -1.08436  -1.03640
 Alpha  occ. eigenvalues --   -1.03487  -0.96081  -0.95939  -0.87082  -0.86970
 Alpha  occ. eigenvalues --   -0.79716  -0.79545  -0.78342  -0.78236  -0.65418
 Alpha  occ. eigenvalues --   -0.64862  -0.61391  -0.60555  -0.59457  -0.59295
 Alpha  occ. eigenvalues --   -0.57694  -0.57541  -0.55579  -0.54995  -0.52749
 Alpha  occ. eigenvalues --   -0.52644  -0.52486  -0.52370  -0.50124  -0.49790
 Alpha  occ. eigenvalues --   -0.48087  -0.47806  -0.46979  -0.46424  -0.45993
 Alpha  occ. eigenvalues --   -0.45853  -0.45721  -0.45460  -0.43846  -0.43779
 Alpha virt. eigenvalues --    0.19172   0.22640   0.23754   0.24940   0.25692
 Alpha virt. eigenvalues --    0.26164   0.26907   0.28015   0.29224   0.29612
 Alpha virt. eigenvalues --    0.30170   0.30683   0.31208   0.32282   0.32660

 Mulliken charges:
               1
     1  C   -0.298973
     2  C   -0.305122
     3  C   -0.478258
     4  H    0.149250
     5  H    0.150062
     6  H    0.155528
     7  H    0.152845
     8  H    0.155212
     9  H    0.157419
    10  H    0.162107
    11  C   -0.298634
    12  C   -0.299620
    13  C   -0.475779
    14  H    0.149568
    15  H    0.150056
    16  H    0.151569
    17  H    0.152126
    18  H    0.155322
    19  H    0.155324
    20  H    0.160457
    21  C   -0.298839
    22  C   -0.299665
    23  C   -0.475662
    24  H    0.150040
    25  H    0.148716
    26  H    0.152292
    27  H    0.151815
    28  H    0.154819
    29  H    0.155337
    30  H    0.160509
    31  C   -0.298664
    32  C   -0.308648
    33  C   -0.475963
    34  H    0.150038
    35  H    0.148948
    36  H    0.151943
    37  H    0.160616
    38  H    0.158021
    39  H    0.154320
    40  H    0.159567
 Sum of Mulliken charges =  -0.00000

 Dipole moment (field-independent basis, Debye):
    X=             -0.0187    Y=             -0.0215    Z=             -0.0019  Tot=              0.0285
 Quadrupole moment (field-independent basis, Debye-Ang):
   XX=            -83.8030   YY=            -85.9370   ZZ=            -84.8893
   XY=              1.4994   XZ=             -0.9555   YZ=              0.4505

 Normal termination of Gaussian 16 at Thu May  6 02:20:44 2021.
