 Gaussian 16, Revision A.03,
 Gaussian 16:  EM64L-G16RevA.03 25-Dec-2016

 -------------
 #p 6-31g* mp2
 -------------

 ------------------------------------------------------
 Input file generated by CHIRIPA (05-May-2021 14:55:25)
 ------------------------------------------------------
 Symbolic Z-matrix:
 Charge =  0 Multiplicity = 1

                         Standard orientation:
 ---------------------------------------------------------------------
 Center     Atomic      Atomic             Coordinates (Angstroms)
 Number     Number       Type             X           Y           Z
 ---------------------------------------------------------------------
      1          6           0       -4.777749    1.333113   -0.588880
      2          6           0       -4.777828   -0.060382   -0.710093
      3          6           0       -3.673273   -0.809371   -0.293534
      4          6           0       -2.580648   -0.129253    0.242098
      5          6           0       -2.550445    1.258001    0.375905
      6          6           0       -3.666018    1.986705   -0.047222
      7          1           0       -5.640073    1.907066   -0.915024
      8          1           0       -5.639824   -0.570646   -1.130378
      9          1           0       -3.646753   -1.889156   -0.375868
     10          1           0       -1.676526    1.738464    0.798798
     11          1           0       -3.663170    3.068807    0.048120
     12          7           0       -1.405473   -0.911436    0.686567
     13          8           0       -0.455228   -0.288450    1.155139
     14          8           0       -1.456867   -2.132687    0.557953
     15          6           0        3.102115   -0.552118   -0.492690
     16          6           0        3.497427   -1.950159   -0.016040
     17          6           0        2.589799   -3.044879   -0.577817
     18          1           0        2.061661   -0.352974   -0.201587
     19          1           0        3.130071   -0.525179   -1.590820
     20          1           0        3.470073   -1.974057    1.080909
     21          1           0        4.537122   -2.145923   -0.308144
     22          1           0        2.624243   -3.049955   -1.672070
     23          1           0        1.551130   -2.877113   -0.275125
     24          1           0        2.890300   -4.036144   -0.224329
     25          6           0        4.000172    0.552988    0.060450
     26          6           0        3.604861    1.951028   -0.416200
     27          6           0        4.512488    3.045750    0.145577
     28          1           0        3.972216    0.526049    1.158579
     29          1           0        5.040627    0.353844   -0.230653
     30          1           0        2.565165    2.146792   -0.124096
     31          1           0        3.632215    1.974926   -1.513148
     32          1           0        5.551157    2.877982   -0.157115
     33          1           0        4.478045    3.050825    1.239830
     34          1           0        4.211988    4.037014   -0.207911
 ---------------------------------------------------------------------

 SCF Done:  E(RHF) =  -669.537131648     A.U. after   15 cycles
 E2 =    -0.2091801536D+01 EUMP2 =    -0.67162893318404D+03

 The electronic state is 1-A.
 Alpha  occ. eigenvalues --  -20.61179 -20.61159 -15.86161 -11.31402 -11.27953
 Alpha  occ. eigenvalues --  -11.27948 -11.27677 -11.26940 -11.26930 -11.20835
 Alpha  occ. eigenvalues --  -11.20493 -11.20339 -11.20209 -11.19929 -11.19502
 Alpha  occ. eigenvalues --   -1.60202  -1.39761  -1.19560  -1.08980  -1.07278
 Alpha  occ. eigenvalues --   -1.04943  -1.02420  -0.95834  -0.94862  -0.86347
 Alpha  occ. eigenvalues --   -0.85885  -0.82673  -0.78534  -0.77738  -0.77045
 Alpha  occ. eigenvalues --   -0.72379  -0.71498  -0.70669  -0.65218  -0.64946
 Alpha  occ. eigenvalues --   -0.63888  -0.62290  -0.59803  -0.58298  -0.56476
 Alpha  occ. eigenvalues --   -0.55452  -0.54126  -0.53278  -0.53033  -0.51614
 Alpha  occ. eigenvalues --   -0.51295  -0.49172  -0.49169  -0.48762  -0.46835
 Alpha  occ. eigenvalues --   -0.45561  -0.45269  -0.44601  -0.44284  -0.42654
 Alpha  occ. eigenvalues --   -0.37531  -0.36538
 Alpha virt. eigenvalues --    0.04734   0.11118   0.16221   0.21221   0.23968
 Alpha virt. eigenvalues --    0.25475   0.27103   0.27565   0.28122   0.28896
 Alpha virt. eigenvalues --    0.29086   0.30935   0.32234   0.32559   0.32639

 Mulliken charges:
               1
     1  C   -0.170250
     2  C   -0.218613
     3  C   -0.170384
     4  C    0.158441
     5  C   -0.170375
     6  C   -0.218568
     7  H    0.226462
     8  H    0.224261
     9  H    0.276227
    10  H    0.275750
    11  H    0.224308
    12  N    0.489117
    13  O   -0.459861
    14  O   -0.458181
    15  C   -0.309121
    16  C   -0.296153
    17  C   -0.483588
    18  H    0.172598
    19  H    0.141172
    20  H    0.154091
    21  H    0.144104
    22  H    0.146685
    23  H    0.176812
    24  H    0.154566
    25  C   -0.296604
    26  C   -0.298801
    27  C   -0.475010
    28  H    0.150903
    29  H    0.145092
    30  H    0.151835
    31  H    0.148508
    32  H    0.154018
    33  H    0.154944
    34  H    0.155617
 Sum of Mulliken charges =  -0.00000

 Dipole moment (field-independent basis, Debye):
    X=             -4.6127    Y=              2.7231    Z=             -1.4253  Tot=              5.5429
 Quadrupole moment (field-independent basis, Debye-Ang):
   XX=            -73.9344   YY=            -93.4240   ZZ=            -95.6178
   XY=             -5.0373   XZ=              3.7399   YZ=              1.8087

 Normal termination of Gaussian 16 at Thu May  6 12:42:59 2021.
