 Gaussian 16, Revision A.03,
 Gaussian 16:  EM64L-G16RevA.03 25-Dec-2016

 -------------
 #p 6-31g* mp2
 -------------

 ------------------------------------------------------
 Input file generated by CHIRIPA (05-May-2021 14:51:09)
 ------------------------------------------------------
 Symbolic Z-matrix:
 Charge =  0 Multiplicity = 1

                         Standard orientation:
 ---------------------------------------------------------------------
 Center     Atomic      Atomic             Coordinates (Angstroms)
 Number     Number       Type             X           Y           Z
 ---------------------------------------------------------------------
      1          6           0       -2.853267   -0.086492    0.060194
      2          6           0       -4.129535    0.122933   -0.755443
      3          6           0       -4.572824    1.585728   -0.794430
      4          1           0       -3.016577    0.276058    1.084319
      5          1           0       -2.049296    0.530032   -0.365159
      6          1           0       -4.930495   -0.494859   -0.329518
      7          1           0       -3.963230   -0.240334   -1.777694
      8          1           0       -3.793295    2.212773   -1.239120
      9          1           0       -4.766056    1.956802    0.217284
     10          1           0       -5.486981    1.712652   -1.382706
     11          6           0       -2.397468   -1.543763    0.108507
     12          6           0       -1.121199   -1.753188    0.924145
     13          6           0       -0.677910   -3.215983    0.963131
     14          1           0       -3.201438   -2.160287    0.533861
     15          1           0       -2.234157   -1.906314   -0.915618
     16          1           0       -1.287505   -1.389921    1.946395
     17          1           0       -0.320239   -1.135396    0.498219
     18          1           0       -0.484678   -3.587057   -0.048583
     19          1           0       -1.457439   -3.843028    1.407821
     20          1           0        0.236246   -3.342907    1.551407
     21          6           0        3.230063    0.353065   -0.018981
     22          6           0        3.178569   -0.850009   -0.961289
     23          6           0        4.395193   -1.765050   -0.818753
     24          1           0        4.146588    0.925947   -0.215793
     25          1           0        3.301560   -0.004643    1.017517
     26          1           0        3.105795   -0.490149   -1.995611
     27          1           0        2.261965   -1.419987   -0.762343
     28          1           0        4.468646   -2.151976    0.202762
     29          1           0        5.317271   -1.216854   -1.037514
     30          1           0        4.337810   -2.618524   -1.501504
     31          6           0        2.020670    1.277190   -0.149720
     32          6           0        2.072167    2.480264    0.792588
     33          6           0        0.855541    3.395305    0.650053
     34          1           0        1.949175    1.634898   -1.186218
     35          1           0        1.104147    0.704307    0.047091
     36          1           0        2.988770    3.050242    0.593642
     37          1           0        2.144939    2.120403    1.826910
     38          1           0       -0.066536    2.847109    0.868812
     39          1           0        0.782089    3.782232   -0.371463
     40          1           0        0.912924    4.248779    1.332804
 ---------------------------------------------------------------------

 SCF Done:  E(RHF) =  -470.733378324     A.U. after   11 cycles
 E2 =    -0.1583717928D+01 EUMP2 =    -0.47231709625258D+03

 The electronic state is 1-A.
 Alpha  occ. eigenvalues --  -11.21656 -11.21618 -11.21617 -11.21596 -11.21444
 Alpha  occ. eigenvalues --  -11.21410 -11.21384 -11.21349 -11.21132 -11.21078
 Alpha  occ. eigenvalues --  -11.21068 -11.21056  -1.08483  -1.08427  -1.03568
 Alpha  occ. eigenvalues --   -1.03530  -0.96012  -0.95980  -0.87032  -0.86992
 Alpha  occ. eigenvalues --   -0.79642  -0.79594  -0.78385  -0.78163  -0.65260
 Alpha  occ. eigenvalues --   -0.64929  -0.60988  -0.60904  -0.59386  -0.59347
 Alpha  occ. eigenvalues --   -0.57635  -0.57582  -0.55306  -0.55263  -0.52711
 Alpha  occ. eigenvalues --   -0.52672  -0.52459  -0.52385  -0.50000  -0.49882
 Alpha  occ. eigenvalues --   -0.47973  -0.47920  -0.46809  -0.46636  -0.46180
 Alpha  occ. eigenvalues --   -0.45791  -0.45753  -0.45140  -0.43819  -0.43785
 Alpha virt. eigenvalues --    0.20022   0.22623   0.23519   0.24426   0.25525
 Alpha virt. eigenvalues --    0.26868   0.27135   0.27523   0.27684   0.29709
 Alpha virt. eigenvalues --    0.31429   0.31548   0.31832   0.32045   0.32068

 Mulliken charges:
               1
     1  C   -0.301211
     2  C   -0.299639
     3  C   -0.475908
     4  H    0.149461
     5  H    0.151765
     6  H    0.152048
     7  H    0.152134
     8  H    0.155776
     9  H    0.155183
    10  H    0.160287
    11  C   -0.297394
    12  C   -0.311255
    13  C   -0.475176
    14  H    0.149824
    15  H    0.149869
    16  H    0.151797
    17  H    0.161630
    18  H    0.155458
    19  H    0.155625
    20  H    0.160068
    21  C   -0.297522
    22  C   -0.303021
    23  C   -0.475496
    24  H    0.149851
    25  H    0.149560
    26  H    0.151742
    27  H    0.154487
    28  H    0.155277
    29  H    0.155239
    30  H    0.160309
    31  C   -0.308337
    32  C   -0.298822
    33  C   -0.477358
    34  H    0.149126
    35  H    0.158469
    36  H    0.151921
    37  H    0.152080
    38  H    0.157076
    39  H    0.154753
    40  H    0.160326
 Sum of Mulliken charges =  -0.00000

 Dipole moment (field-independent basis, Debye):
    X=             -0.0156    Y=             -0.0075    Z=              0.0004  Tot=              0.0173
 Quadrupole moment (field-independent basis, Debye-Ang):
   XX=            -85.0634   YY=            -86.0704   ZZ=            -83.5593
   XY=              1.4123   XZ=             -0.8500   YZ=             -0.3920

 Normal termination of Gaussian 16 at Wed May  5 21:23:39 2021.
