 Gaussian 16, Revision A.03,
 Gaussian 16:  EM64L-G16RevA.03 25-Dec-2016

 -------------
 #p 6-31g* mp2
 -------------

 ------------------------------------------------------
 Input file generated by CHIRIPA (05-May-2021 14:53:12)
 ------------------------------------------------------
 Symbolic Z-matrix:
 Charge =  0 Multiplicity = 1

                         Standard orientation:
 ---------------------------------------------------------------------
 Center     Atomic      Atomic             Coordinates (Angstroms)
 Number     Number       Type             X           Y           Z
 ---------------------------------------------------------------------
      1          6           0       -4.406921    0.176931   -0.080499
      2          6           0       -5.922285    0.229344    0.116756
      3          6           0       -6.505883    1.616621   -0.152816
      4          1           0       -3.931478    0.911677    0.583615
      5          1           0       -4.167124    0.483258   -1.108144
      6          1           0       -6.159253   -0.078321    1.143306
      7          1           0       -6.394163   -0.505747   -0.547766
      8          1           0       -6.298479    1.928559   -1.181544
      9          1           0       -6.062234    2.358414    0.519137
     10          1           0       -7.590346    1.631431   -0.005915
     11          6           0       -3.808782   -1.203399    0.185298
     12          6           0       -2.293418   -1.255812   -0.011957
     13          6           0       -1.709821   -2.643089    0.257616
     14          1           0       -4.048580   -1.509726    1.212944
     15          1           0       -4.284225   -1.938145   -0.478816
     16          1           0       -1.821541   -0.520721    0.652565
     17          1           0       -2.056451   -0.948147   -1.038507
     18          1           0       -2.153469   -3.384882   -0.414337
     19          1           0       -1.917225   -2.955027    1.286343
     20          1           0       -0.625357   -2.657899    0.110714
     21          6           0        1.308054    2.059625   -0.054514
     22          6           0        2.609073    2.488398    0.228373
     23          6           0        3.670167    1.578168    0.238661
     24          6           0        3.393061    0.240611   -0.039625
     25          6           0        2.107736   -0.217351   -0.325110
     26          6           0        1.061972    0.710497   -0.329867
     27          1           0        0.489724    2.773557   -0.060358
     28          1           0        2.803136    3.535537    0.442580
     29          1           0        4.687001    1.882965    0.454452
     30          1           0        1.945401   -1.267635   -0.534799
     31          1           0        0.052593    0.374662   -0.549897
     32          7           0        4.508279   -0.732335   -0.031661
     33          8           0        4.237877   -1.905284   -0.280076
     34          8           0        5.631673   -0.303558    0.222846
 ---------------------------------------------------------------------

 SCF Done:  E(RHF) =  -669.535230554     A.U. after   15 cycles
 E2 =    -0.2091914988D+01 EUMP2 =    -0.67162714554162D+03

 The electronic state is 1-A.
 Alpha  occ. eigenvalues --  -20.60709 -20.60704 -15.85760 -11.31110 -11.27676
 Alpha  occ. eigenvalues --  -11.27659 -11.27397 -11.26695 -11.26574 -11.22694
 Alpha  occ. eigenvalues --  -11.22236 -11.22207 -11.22141 -11.21920 -11.21634
 Alpha  occ. eigenvalues --   -1.59784  -1.39338  -1.19273  -1.09254  -1.08670
 Alpha  occ. eigenvalues --   -1.04680  -1.04323  -0.96737  -0.95512  -0.87752
 Alpha  occ. eigenvalues --   -0.86074  -0.82351  -0.80448  -0.79085  -0.77382
 Alpha  occ. eigenvalues --   -0.71979  -0.71107  -0.70389  -0.65871  -0.64922
 Alpha  occ. eigenvalues --   -0.64686  -0.62099  -0.61707  -0.60082  -0.58356
 Alpha  occ. eigenvalues --   -0.55994  -0.55168  -0.53437  -0.53188  -0.53000
 Alpha  occ. eigenvalues --   -0.52765  -0.50663  -0.48816  -0.48736  -0.48605
 Alpha  occ. eigenvalues --   -0.47459  -0.46575  -0.46510  -0.44747  -0.44573
 Alpha  occ. eigenvalues --   -0.37255  -0.36267
 Alpha virt. eigenvalues --    0.05126   0.11324   0.16583   0.19825   0.22361
 Alpha virt. eigenvalues --    0.23651   0.25507   0.25862   0.25958   0.28346
 Alpha virt. eigenvalues --    0.28746   0.30023   0.30674   0.31426   0.32414

 Mulliken charges:
               1
     1  C   -0.299263
     2  C   -0.300194
     3  C   -0.476157
     4  H    0.147159
     5  H    0.148525
     6  H    0.153755
     7  H    0.153976
     8  H    0.155298
     9  H    0.154605
    10  H    0.162693
    11  C   -0.296581
    12  C   -0.310859
    13  C   -0.475912
    14  H    0.153263
    15  H    0.153322
    16  H    0.150583
    17  H    0.148299
    18  H    0.160379
    19  H    0.161040
    20  H    0.157870
    21  C   -0.173782
    22  C   -0.218344
    23  C   -0.171293
    24  C    0.159299
    25  C   -0.176698
    26  C   -0.226761
    27  H    0.225701
    28  H    0.222939
    29  H    0.275228
    30  H    0.276103
    31  H    0.239090
    32  N    0.488103
    33  O   -0.460650
    34  O   -0.460736
 Sum of Mulliken charges =  -0.00000

 Dipole moment (field-independent basis, Debye):
    X=             -4.1931    Y=              3.3241    Z=              0.0145  Tot=              5.3509
 Quadrupole moment (field-independent basis, Debye-Ang):
   XX=           -119.2783   YY=            -91.1770   ZZ=            -94.3895
   XY=             14.3356   XZ=              0.8611   YZ=              1.1642

 Normal termination of Gaussian 16 at Thu May  6 15:19:34 2021.
