 Gaussian 16, Revision A.03,
 Gaussian 16:  EM64L-G16RevA.03 25-Dec-2016

 -------------
 #p 6-31g* mp2
 -------------

 ------------------------------------------------------
 Input file generated by CHIRIPA (05-May-2021 14:51:10)
 ------------------------------------------------------
 Symbolic Z-matrix:
 Charge =  0 Multiplicity = 1

                         Standard orientation:
 ---------------------------------------------------------------------
 Center     Atomic      Atomic             Coordinates (Angstroms)
 Number     Number       Type             X           Y           Z
 ---------------------------------------------------------------------
      1          6           0       -3.746221   -0.302416   -0.016024
      2          6           0       -3.928601    1.059473   -0.686831
      3          6           0       -5.377753    1.328961   -1.093191
      4          1           0       -4.089070   -1.090156   -0.700760
      5          1           0       -4.392724   -0.356030    0.870855
      6          1           0       -3.280914    1.111026   -1.571398
      7          1           0       -3.585100    1.844050   -0.000492
      8          1           0       -6.034310    1.304623   -0.217439
      9          1           0       -5.728395    0.567434   -1.797271
     10          1           0       -5.485377    2.307825   -1.570794
     11          6           0       -2.302834   -0.586363    0.395967
     12          6           0       -2.120454   -1.948251    1.066774
     13          6           0       -0.671302   -2.217740    1.473134
     14          1           0       -1.656331   -0.532748   -0.490912
     15          1           0       -1.959985    0.201378    1.080703
     16          1           0       -2.463956   -2.732829    0.380435
     17          1           0       -2.768142   -1.999804    1.951341
     18          1           0       -0.320661   -1.456213    2.177213
     19          1           0       -0.014746   -2.193402    0.597382
     20          1           0       -0.563679   -3.196603    1.950737
     21          6           0        2.557514    0.996069    0.056967
     22          6           0        3.270743    2.323630    0.315564
     23          6           0        2.323210    3.417425    0.809107
     24          1           0        1.760159    1.153419   -0.682230
     25          1           0        2.065256    0.665982    0.982235
     26          1           0        3.762666    2.650422   -0.609550
     27          1           0        4.066617    2.163062    1.054089
     28          1           0        1.841739    3.116476    1.745171
     29          1           0        1.536061    3.606605    0.072080
     30          1           0        2.853923    4.357815    0.987629
     31          6           0        3.491542   -0.107291   -0.436910
     32          6           0        2.778312   -1.434851   -0.695507
     33          6           0        3.725846   -2.528647   -1.189049
     34          1           0        3.983800    0.222797   -1.362177
     35          1           0        4.288896   -0.264641    0.302288
     36          1           0        1.982439   -1.274283   -1.434032
     37          1           0        2.286390   -1.761644    0.229607
     38          1           0        4.512995   -2.717827   -0.452022
     39          1           0        4.207317   -2.227698   -2.125114
     40          1           0        3.195132   -3.469037   -1.367572
 ---------------------------------------------------------------------

 SCF Done:  E(RHF) =  -470.733150396     A.U. after   11 cycles
 E2 =    -0.1582995174D+01 EUMP2 =    -0.47231614557000D+03

 The electronic state is 1-A.
 Alpha  occ. eigenvalues --  -11.21590 -11.21583 -11.21572 -11.21563 -11.21381
 Alpha  occ. eigenvalues --  -11.21379 -11.21320 -11.21318 -11.21062 -11.21060
 Alpha  occ. eigenvalues --  -11.21058 -11.20999  -1.08421  -1.08394  -1.03534
 Alpha  occ. eigenvalues --   -1.03487  -0.95970  -0.95948  -0.87010  -0.86947
 Alpha  occ. eigenvalues --   -0.79674  -0.79496  -0.78295  -0.78139  -0.65051
 Alpha  occ. eigenvalues --   -0.65029  -0.60973  -0.60856  -0.59359  -0.59304
 Alpha  occ. eigenvalues --   -0.57617  -0.57527  -0.55286  -0.55207  -0.52677
 Alpha  occ. eigenvalues --   -0.52650  -0.52448  -0.52325  -0.49986  -0.49843
 Alpha  occ. eigenvalues --   -0.48095  -0.47736  -0.46700  -0.46500  -0.45945
 Alpha  occ. eigenvalues --   -0.45738  -0.45657  -0.45415  -0.43763  -0.43762
 Alpha virt. eigenvalues --    0.21795   0.23140   0.23808   0.24369   0.25469
 Alpha virt. eigenvalues --    0.26096   0.27077   0.27796   0.28154   0.29690
 Alpha virt. eigenvalues --    0.30304   0.31167   0.31767   0.31831   0.32120

 Mulliken charges:
               1
     1  C   -0.298308
     2  C   -0.299588
     3  C   -0.475684
     4  H    0.149503
     5  H    0.149493
     6  H    0.151602
     7  H    0.152138
     8  H    0.155203
     9  H    0.155110
    10  H    0.160185
    11  C   -0.298234
    12  C   -0.299618
    13  C   -0.482171
    14  H    0.149611
    15  H    0.149917
    16  H    0.151696
    17  H    0.151583
    18  H    0.154132
    19  H    0.163438
    20  H    0.159513
    21  C   -0.299023
    22  C   -0.299657
    23  C   -0.475598
    24  H    0.149699
    25  H    0.150603
    26  H    0.151839
    27  H    0.151848
    28  H    0.154875
    29  H    0.155377
    30  H    0.160128
    31  C   -0.297781
    32  C   -0.306090
    33  C   -0.475347
    34  H    0.149235
    35  H    0.149571
    36  H    0.150451
    37  H    0.160029
    38  H    0.155290
    39  H    0.154996
    40  H    0.160033
 Sum of Mulliken charges =  -0.00000

 Dipole moment (field-independent basis, Debye):
    X=              0.0153    Y=             -0.0046    Z=              0.0032  Tot=              0.0162
 Quadrupole moment (field-independent basis, Debye-Ang):
   XX=            -86.1203   YY=            -85.4780   ZZ=            -83.3149
   XY=              0.6612   XZ=             -0.0790   YZ=             -0.0739

 Normal termination of Gaussian 16 at Wed May  5 23:02:17 2021.
