 Gaussian 16, Revision A.03,
 Gaussian 16:  EM64L-G16RevA.03 25-Dec-2016

 -------------
 #p 6-31g* mp2
 -------------

 ------------------------------------------------------
 Input file generated by CHIRIPA (05-May-2021 14:57:26)
 ------------------------------------------------------
 Symbolic Z-matrix:
 Charge =  0 Multiplicity = 1

                         Standard orientation:
 ---------------------------------------------------------------------
 Center     Atomic      Atomic             Coordinates (Angstroms)
 Number     Number       Type             X           Y           Z
 ---------------------------------------------------------------------
      1          6           0       -4.758392    2.384108    0.255470
      2          6           0       -3.399968    2.057597    0.187676
      3          6           0       -2.996191    0.728274    0.031434
      4          6           0       -3.982003   -0.253647   -0.053979
      5          6           0       -5.343243    0.039935    0.010244
      6          6           0       -5.723992    1.376012    0.166694
      7          1           0       -5.063112    3.419381    0.376923
      8          1           0       -2.647873    2.838419    0.256339
      9          1           0       -1.951435    0.447503   -0.023981
     10          1           0       -6.069812   -0.760326   -0.061162
     11          1           0       -6.779684    1.626650    0.219037
     12          7           0       -3.566732   -1.664517   -0.219495
     13          8           0       -4.454785   -2.511102   -0.292246
     14          8           0       -2.361052   -1.897057   -0.273343
     15          6           0        1.577622   -0.457099    0.176289
     16          6           0        2.504174   -1.455708    0.493780
     17          6           0        3.876711   -1.201945    0.414452
     18          6           0        4.289509    0.067351    0.012238
     19          6           0        3.390955    1.083046   -0.310648
     20          6           0        2.023184    0.806863   -0.224206
     21          1           0        0.513253   -0.662936    0.240676
     22          1           0        2.161024   -2.438240    0.805105
     23          1           0        4.615719   -1.956720    0.654453
     24          1           0        3.763361    2.052757   -0.617882
     25          1           0        1.305886    1.584316   -0.471381
     26          7           0        5.740029    0.347866   -0.075508
     27          8           0        6.078092    1.474329   -0.432486
     28          8           0        6.511420   -0.564040    0.214355
 ---------------------------------------------------------------------

 SCF Done:  E(RHF) =  -868.338478685     A.U. after   16 cycles
 E2 =    -0.2599344877D+01 EUMP2 =    -0.87093782356207D+03

 The electronic state is 1-A.
 Alpha  occ. eigenvalues --  -20.61842 -20.61792 -20.60607 -20.60596 -15.86861
 Alpha  occ. eigenvalues --  -15.85658 -11.32120 -11.30974 -11.28782 -11.28603
 Alpha  occ. eigenvalues --  -11.28332 -11.27684 -11.27607 -11.27587 -11.27510
 Alpha  occ. eigenvalues --  -11.27208 -11.26640 -11.26436  -1.60874  -1.59681
 Alpha  occ. eigenvalues --   -1.40439  -1.39236  -1.20266  -1.19145  -1.09666
 Alpha  occ. eigenvalues --   -1.08534  -1.05664  -1.04552  -0.96531  -0.95376
 Alpha  occ. eigenvalues --   -0.87063  -0.85947  -0.83377  -0.82219  -0.78458
 Alpha  occ. eigenvalues --   -0.77288  -0.73093  -0.72181  -0.71877  -0.71378
 Alpha  occ. eigenvalues --   -0.71005  -0.70202  -0.65924  -0.65664  -0.64797
 Alpha  occ. eigenvalues --   -0.64566  -0.63034  -0.61909  -0.56135  -0.54991
 Alpha  occ. eigenvalues --   -0.53975  -0.53745  -0.52872  -0.52646  -0.49853
 Alpha  occ. eigenvalues --   -0.49804  -0.48634  -0.48630  -0.45864  -0.44653
 Alpha  occ. eigenvalues --   -0.38206  -0.37254  -0.37096  -0.36163
 Alpha virt. eigenvalues --    0.04099   0.05266   0.10404   0.11495   0.15633
 Alpha virt. eigenvalues --    0.16775   0.18314   0.21955   0.25118   0.26597
 Alpha virt. eigenvalues --    0.27639   0.29008   0.30425   0.31028   0.32483

 Mulliken charges:
               1
     1  C   -0.169554
     2  C   -0.219563
     3  C   -0.170396
     4  C    0.157873
     5  C   -0.169273
     6  C   -0.218155
     7  H    0.228988
     8  H    0.223376
     9  H    0.269756
    10  H    0.278022
    11  H    0.226905
    12  N    0.491195
    13  O   -0.454014
    14  O   -0.473209
    15  C   -0.180196
    16  C   -0.220053
    17  C   -0.170652
    18  C    0.157726
    19  C   -0.170678
    20  C   -0.219847
    21  H    0.243542
    22  H    0.230149
    23  H    0.275764
    24  H    0.273533
    25  H    0.212843
    26  N    0.488148
    27  O   -0.462051
    28  O   -0.460179
 Sum of Mulliken charges =  -0.00000

 Dipole moment (field-independent basis, Debye):
    X=             -6.9873    Y=              3.8690    Z=              0.9335  Tot=              8.0413
 Quadrupole moment (field-independent basis, Debye-Ang):
   XX=           -131.2103   YY=           -102.9477   ZZ=           -106.1600
   XY=            -24.3265   XZ=             -0.5699   YZ=             -1.9866

 Normal termination of Gaussian 16 at Wed May  5 19:36:47 2021.
