 Gaussian 16, Revision A.03,
 Gaussian 16:  EM64L-G16RevA.03 25-Dec-2016

 -------------
 #p 6-31g* mp2
 -------------

 ------------------------------------------------------
 Input file generated by CHIRIPA (05-May-2021 14:51:09)
 ------------------------------------------------------
 Symbolic Z-matrix:
 Charge =  0 Multiplicity = 1

                         Standard orientation:
 ---------------------------------------------------------------------
 Center     Atomic      Atomic             Coordinates (Angstroms)
 Number     Number       Type             X           Y           Z
 ---------------------------------------------------------------------
      1          6           0        3.465566   -0.430709   -0.367211
      2          6           0        4.986681   -0.285406   -0.422725
      3          6           0        5.537752   -0.377312   -1.845984
      4          1           0        3.179153   -1.393859   -0.811344
      5          1           0        3.006701    0.349530   -0.990159
      6          1           0        5.442498   -1.064832    0.201247
      7          1           0        5.269520    0.677426    0.021766
      8          1           0        5.110335    0.409349   -2.476127
      9          1           0        5.284296   -1.342809   -2.295626
     10          1           0        6.626907   -0.270872   -1.862436
     11          6           0        2.899708   -0.341003    1.048941
     12          6           0        1.378593   -0.486306    1.104455
     13          6           0        0.827522   -0.394400    2.527714
     14          1           0        3.358574   -1.121242    1.671889
     15          1           0        3.186121    0.622147    1.493074
     16          1           0        1.095754   -1.449139    0.659964
     17          1           0        0.922776    0.293120    0.480483
     18          1           0        1.080978    0.571097    2.977356
     19          1           0        1.254939   -1.181061    3.157857
     20          1           0       -0.261633   -0.500841    2.544165
     21          6           0       -3.898173    0.119150   -0.358429
     22          6           0       -3.975421   -1.399852   -0.515425
     23          6           0       -5.413427   -1.918324   -0.548899
     24          1           0       -4.416931    0.412867    0.564374
     25          1           0       -4.441120    0.594507   -1.187066
     26          1           0       -3.431315   -1.872183    0.312505
     27          1           0       -3.456253   -1.690006   -1.437863
     28          1           0       -5.963699   -1.474224   -1.384708
     29          1           0       -5.938620   -1.657436    0.375606
     30          1           0       -5.445326   -3.006497   -0.661701
     31          6           0       -2.467101    0.652562   -0.323301
     32          6           0       -2.389853    2.171565   -0.166305
     33          6           0       -0.951847    2.690037   -0.132830
     34          1           0       -1.924154    0.177206    0.505336
     35          1           0       -1.948343    0.358845   -1.246104
     36          1           0       -2.909021    2.461718    0.756133
     37          1           0       -2.933959    2.643895   -0.994235
     38          1           0       -0.426655    2.429148   -1.057336
     39          1           0       -0.401575    2.245936    0.702978
     40          1           0       -0.919949    3.778209   -0.020029
 ---------------------------------------------------------------------

 SCF Done:  E(RHF) =  -470.732789763     A.U. after   11 cycles
 E2 =    -0.1583856234D+01 EUMP2 =    -0.47231664599708D+03

 The electronic state is 1-A.
 Alpha  occ. eigenvalues --  -11.21623 -11.21605 -11.21574 -11.21493 -11.21403
 Alpha  occ. eigenvalues --  -11.21365 -11.21343 -11.21305 -11.21106 -11.21102
 Alpha  occ. eigenvalues --  -11.21073 -11.21052  -1.08455  -1.08381  -1.03580
 Alpha  occ. eigenvalues --   -1.03477  -0.96003  -0.95966  -0.87027  -0.86974
 Alpha  occ. eigenvalues --   -0.79687  -0.79507  -0.78334  -0.78116  -0.65135
 Alpha  occ. eigenvalues --   -0.64985  -0.61102  -0.60796  -0.59453  -0.59242
 Alpha  occ. eigenvalues --   -0.57611  -0.57575  -0.55371  -0.55175  -0.52698
 Alpha  occ. eigenvalues --   -0.52665  -0.52487  -0.52341  -0.49954  -0.49900
 Alpha  occ. eigenvalues --   -0.48103  -0.47769  -0.46726  -0.46509  -0.45954
 Alpha  occ. eigenvalues --   -0.45722  -0.45710  -0.45368  -0.43796  -0.43758
 Alpha virt. eigenvalues --    0.20610   0.22924   0.23629   0.24609   0.25834
 Alpha virt. eigenvalues --    0.26490   0.26736   0.27548   0.28244   0.29472
 Alpha virt. eigenvalues --    0.31157   0.31267   0.31615   0.31721   0.32185

 Mulliken charges:
               1
     1  C   -0.298313
     2  C   -0.299622
     3  C   -0.475691
     4  H    0.149520
     5  H    0.149710
     6  H    0.151840
     7  H    0.151984
     8  H    0.155132
     9  H    0.155076
    10  H    0.160171
    11  C   -0.297875
    12  C   -0.307477
    13  C   -0.479001
    14  H    0.149114
    15  H    0.149365
    16  H    0.151783
    17  H    0.161489
    18  H    0.154915
    19  H    0.155783
    20  H    0.160675
    21  C   -0.298204
    22  C   -0.299552
    23  C   -0.475705
    24  H    0.149504
    25  H    0.149573
    26  H    0.151650
    27  H    0.152085
    28  H    0.155208
    29  H    0.155181
    30  H    0.160259
    31  C   -0.304417
    32  C   -0.299058
    33  C   -0.480922
    34  H    0.156119
    35  H    0.149888
    36  H    0.151927
    37  H    0.151966
    38  H    0.154623
    39  H    0.160810
    40  H    0.160489
 Sum of Mulliken charges =  -0.00000

 Dipole moment (field-independent basis, Debye):
    X=             -0.0158    Y=              0.0132    Z=             -0.0099  Tot=              0.0228
 Quadrupole moment (field-independent basis, Debye-Ang):
   XX=            -86.1421   YY=            -84.0397   ZZ=            -84.7139
   XY=             -0.5732   XZ=              0.5028   YZ=             -0.2559

 Normal termination of Gaussian 16 at Wed May  5 16:39:22 2021.
