 Gaussian 16, Revision A.03,
 Gaussian 16:  EM64L-G16RevA.03 25-Dec-2016

 -------------
 #p 6-31g* mp2
 -------------

 ------------------------------------------------------
 Input file generated by CHIRIPA (05-May-2021 14:57:23)
 ------------------------------------------------------
 Symbolic Z-matrix:
 Charge =  0 Multiplicity = 1

                         Standard orientation:
 ---------------------------------------------------------------------
 Center     Atomic      Atomic             Coordinates (Angstroms)
 Number     Number       Type             X           Y           Z
 ---------------------------------------------------------------------
      1          6           0       -2.880974    2.491312    0.038861
      2          6           0       -4.254661    2.310341   -0.152856
      3          6           0       -4.793666    1.024608   -0.257324
      4          6           0       -3.926046   -0.062605   -0.165161
      5          6           0       -2.553076    0.085144    0.025659
      6          6           0       -2.036055    1.380095    0.127351
      7          1           0       -2.470801    3.493680    0.118936
      8          1           0       -4.913223    3.171484   -0.221948
      9          1           0       -5.853305    0.855780   -0.405916
     10          1           0       -1.921738   -0.792699    0.090636
     11          1           0       -0.968832    1.517628    0.276223
     12          7           0       -4.485030   -1.428631   -0.274287
     13          8           0       -3.699423   -2.370078   -0.189800
     14          8           0       -5.698183   -1.532011   -0.442241
     15          6           0        5.979048    0.446679   -1.033167
     16          6           0        5.566280   -0.888572   -0.976181
     17          6           0        4.379503   -1.237683   -0.324852
     18          6           0        3.626535   -0.221430    0.261287
     19          6           0        4.011140    1.117893    0.221483
     20          6           0        5.201531    1.443892   -0.435207
     21          1           0        6.902367    0.708900   -1.541219
     22          1           0        6.168102   -1.665121   -1.439675
     23          1           0        4.036439   -2.263468   -0.265758
     24          1           0        3.390074    1.869866    0.692896
     25          1           0        5.519628    2.481696   -0.477893
     26          7           0        2.368235   -0.578784    0.953658
     27          8           0        1.722719    0.335220    1.462127
     28          8           0        2.051324   -1.766117    0.974759
 ---------------------------------------------------------------------

 SCF Done:  E(RHF) =  -868.339569500     A.U. after   16 cycles
 E2 =    -0.2598516780D+01 EUMP2 =    -0.87093808628021D+03

 The electronic state is 1-A.
 Alpha  occ. eigenvalues --  -20.61620 -20.61542 -20.59962 -20.59938 -15.86604
 Alpha  occ. eigenvalues --  -15.84998 -11.31764 -11.30268 -11.28341 -11.28275
 Alpha  occ. eigenvalues --  -11.28003 -11.27289 -11.27246 -11.26887 -11.26695
 Alpha  occ. eigenvalues --  -11.26587 -11.25923 -11.25666  -1.60644  -1.59031
 Alpha  occ. eigenvalues --   -1.40203  -1.38585  -1.19917  -1.18431  -1.09348
 Alpha  occ. eigenvalues --   -1.07861  -1.05288  -1.03793  -0.96216  -0.94708
 Alpha  occ. eigenvalues --   -0.86695  -0.85209  -0.83055  -0.81519  -0.78131
 Alpha  occ. eigenvalues --   -0.76568  -0.72823  -0.71951  -0.71221  -0.71020
 Alpha  occ. eigenvalues --   -0.70353  -0.69565  -0.65571  -0.65286  -0.64078
 Alpha  occ. eigenvalues --   -0.63777  -0.62638  -0.61115  -0.55790  -0.54356
 Alpha  occ. eigenvalues --   -0.53627  -0.53375  -0.52169  -0.51862  -0.49601
 Alpha  occ. eigenvalues --   -0.49560  -0.47983  -0.47968  -0.45642  -0.44011
 Alpha  occ. eigenvalues --   -0.37881  -0.36881  -0.36452  -0.35396
 Alpha virt. eigenvalues --    0.04354   0.05924   0.10776   0.12242   0.15865
 Alpha virt. eigenvalues --    0.17432   0.20917   0.22426   0.26848   0.27621
 Alpha virt. eigenvalues --    0.28539   0.29206   0.30525   0.31686   0.32321

 Mulliken charges:
               1
     1  C   -0.172235
     2  C   -0.218883
     3  C   -0.172806
     4  C    0.157591
     5  C   -0.172950
     6  C   -0.223554
     7  H    0.221489
     8  H    0.219308
     9  H    0.272426
    10  H    0.284116
    11  H    0.237344
    12  N    0.487811
    13  O   -0.458494
    14  O   -0.464398
    15  C   -0.169939
    16  C   -0.218395
    17  C   -0.170114
    18  C    0.157689
    19  C   -0.171366
    20  C   -0.218336
    21  H    0.227660
    22  H    0.226069
    23  H    0.278172
    24  H    0.272566
    25  H    0.224279
    26  N    0.488514
    27  O   -0.470041
    28  O   -0.453521
 Sum of Mulliken charges =  -0.00000

 Dipole moment (field-independent basis, Debye):
    X=              6.9222    Y=              5.8812    Z=             -2.0542  Tot=              9.3126
 Quadrupole moment (field-independent basis, Debye-Ang):
   XX=            -84.8305   YY=           -101.2738   ZZ=           -107.5965
   XY=            -18.2658   XZ=             -9.7578   YZ=              1.0085

 Normal termination of Gaussian 16 at Wed May  5 19:24:57 2021.
