 Gaussian 16, Revision A.03,
 Gaussian 16:  EM64L-G16RevA.03 25-Dec-2016

 -------------
 #p 6-31g* mp2
 -------------

 ------------------------------------------------------
 Input file generated by CHIRIPA (05-May-2021 14:57:24)
 ------------------------------------------------------
 Symbolic Z-matrix:
 Charge =  0 Multiplicity = 1

                         Standard orientation:
 ---------------------------------------------------------------------
 Center     Atomic      Atomic             Coordinates (Angstroms)
 Number     Number       Type             X           Y           Z
 ---------------------------------------------------------------------
      1          6           0       -6.054432    0.269333   -0.513424
      2          6           0       -5.241456   -0.399277   -1.434592
      3          6           0       -3.908584   -0.687921   -1.126882
      4          6           0       -3.419207   -0.291637    0.116806
      5          6           0       -4.204110    0.375908    1.055742
      6          6           0       -5.534082    0.654114    0.726616
      7          1           0       -7.088713    0.489505   -0.760779
      8          1           0       -5.642878   -0.699297   -2.398383
      9          1           0       -3.257069   -1.204309   -1.821354
     10          1           0       -3.775630    0.662393    2.008500
     11          1           0       -6.163131    1.173494    1.443964
     12          7           0       -2.009690   -0.591686    0.453900
     13          8           0       -1.602460   -0.231930    1.556341
     14          8           0       -1.338830   -1.180939   -0.390709
     15          6           0        5.626128   -1.327851   -0.018780
     16          6           0        5.809138    0.018215   -0.352149
     17          6           0        4.722275    0.897170   -0.378868
     18          6           0        3.460614    0.393971   -0.065354
     19          6           0        3.246100   -0.941827    0.270680
     20          6           0        4.347448   -1.802739    0.291026
     21          1           0        6.476055   -2.003636   -0.000500
     22          1           0        6.801039    0.389798   -0.593197
     23          1           0        4.835564    1.943944   -0.633519
     24          1           0        2.245318   -1.282946    0.506245
     25          1           0        4.202343   -2.847619    0.550285
     26          7           0        2.302334    1.314930   -0.090266
     27          8           0        1.200946    0.846879    0.189928
     28          8           0        2.517795    2.487391   -0.389513
 ---------------------------------------------------------------------

 SCF Done:  E(RHF) =  -868.337109498     A.U. after   16 cycles
 E2 =    -0.2600568717D+01 EUMP2 =    -0.87093767821524D+03

 The electronic state is 1-A.
 Alpha  occ. eigenvalues --  -20.59898 -20.59868 -20.59542 -20.59393 -15.84930
 Alpha  occ. eigenvalues --  -15.84507 -11.30528 -11.30092 -11.27135 -11.27112
 Alpha  occ. eigenvalues --  -11.26925 -11.26775 -11.26577 -11.26558 -11.26208
 Alpha  occ. eigenvalues --  -11.26191 -11.25839 -11.25745  -1.58908  -1.58558
 Alpha  occ. eigenvalues --   -1.38472  -1.38090  -1.18719  -1.18310  -1.08073
 Alpha  occ. eigenvalues --   -1.07683  -1.04163  -1.03738  -0.94878  -0.94464
 Alpha  occ. eigenvalues --   -0.85552  -0.85128  -0.81719  -0.81283  -0.76718
 Alpha  occ. eigenvalues --   -0.76275  -0.71170  -0.70855  -0.70089  -0.69887
 Alpha  occ. eigenvalues --   -0.69839  -0.69413  -0.64378  -0.64181  -0.63950
 Alpha  occ. eigenvalues --   -0.63755  -0.61513  -0.61058  -0.54667  -0.54273
 Alpha  occ. eigenvalues --   -0.52471  -0.52267  -0.52077  -0.51829  -0.48015
 Alpha  occ. eigenvalues --   -0.47893  -0.47531  -0.47375  -0.43916  -0.43342
 Alpha  occ. eigenvalues --   -0.36712  -0.36338  -0.35775  -0.35356
 Alpha virt. eigenvalues --    0.05841   0.06241   0.11877   0.12293   0.17288
 Alpha virt. eigenvalues --    0.17666   0.21944   0.22380   0.27837   0.28273
 Alpha virt. eigenvalues --    0.28853   0.29361   0.31463   0.31891   0.33107

 Mulliken charges:
               1
     1  C   -0.171597
     2  C   -0.218534
     3  C   -0.170718
     4  C    0.161719
     5  C   -0.170206
     6  C   -0.218543
     7  H    0.223300
     8  H    0.221100
     9  H    0.273976
    10  H    0.275831
    11  H    0.221687
    12  N    0.492341
    13  O   -0.455037
    14  O   -0.463507
    15  C   -0.171721
    16  C   -0.219490
    17  C   -0.172094
    18  C    0.156299
    19  C   -0.172527
    20  C   -0.219984
    21  H    0.221581
    22  H    0.219223
    23  H    0.272494
    24  H    0.291751
    25  H    0.221776
    26  N    0.487001
    27  O   -0.444852
    28  O   -0.471268
 Sum of Mulliken charges =  -0.00000

 Dipole moment (field-independent basis, Debye):
    X=             -1.1224    Y=             -2.2557    Z=             -0.9631  Tot=              2.6973
 Quadrupole moment (field-independent basis, Debye-Ang):
   XX=            -44.8162   YY=           -105.7741   ZZ=           -101.8151
   XY=            -10.1508   XZ=              2.0868   YZ=              1.8931

 Normal termination of Gaussian 16 at Thu May  6 13:02:00 2021.
