 Gaussian 16, Revision A.03,
 Gaussian 16:  EM64L-G16RevA.03 25-Dec-2016

 -------------
 #p 6-31g* mp2
 -------------

 ------------------------------------------------------
 Input file generated by CHIRIPA (05-May-2021 14:51:10)
 ------------------------------------------------------
 Symbolic Z-matrix:
 Charge =  0 Multiplicity = 1

                         Standard orientation:
 ---------------------------------------------------------------------
 Center     Atomic      Atomic             Coordinates (Angstroms)
 Number     Number       Type             X           Y           Z
 ---------------------------------------------------------------------
      1          6           0        3.142090    0.721758   -0.559004
      2          6           0        3.282672    2.016574    0.242041
      3          6           0        2.622758    3.211958   -0.445973
      4          1           0        3.584691    0.864000   -1.554402
      5          1           0        2.075444    0.511365   -0.718372
      6          1           0        4.348703    2.223729    0.401040
      7          1           0        2.839856    1.871172    1.235715
      8          1           0        1.552777    3.030779   -0.590597
      9          1           0        3.070198    3.385339   -1.430015
     10          1           0        2.735222    4.127018    0.143837
     11          6           0        3.796762   -0.482255    0.115892
     12          6           0        3.656180   -1.777070   -0.685154
     13          6           0        4.316094   -2.972455    0.002861
     14          1           0        4.863407   -0.271861    0.275260
     15          1           0        3.354161   -0.624496    1.111290
     16          1           0        4.098996   -1.631669   -1.678828
     17          1           0        2.590149   -1.984225   -0.844152
     18          1           0        3.868654   -3.145835    0.986903
     19          1           0        5.386075   -2.791276    0.147485
     20          1           0        4.203630   -3.887515   -0.586950
     21          6           0       -2.954022   -0.094918    0.784738
     22          6           0       -1.514399    0.027458    0.284246
     23          6           0       -0.494871    0.075959    1.422668
     24          1           0       -3.179413    0.753884    1.444799
     25          1           0       -3.045489   -1.001419    1.398974
     26          1           0       -1.426008    0.932722   -0.330003
     27          1           0       -1.292471   -0.821632   -0.374852
     28          1           0       -0.553903   -0.831951    2.031615
     29          1           0       -0.688200    0.932371    2.076720
     30          1           0        0.527666    0.163515    1.042390
     31          6           0       -3.984830   -0.144586   -0.341626
     32          6           0       -5.424453   -0.266961    0.158867
     33          6           0       -6.443980   -0.315463   -0.979556
     34          1           0       -3.893363    0.761916   -0.955861
     35          1           0       -3.759439   -0.993387   -1.001687
     36          1           0       -5.646381    0.582128    0.817965
     37          1           0       -5.512843   -1.172225    0.773115
     38          1           0       -6.250653   -1.171874   -1.633607
     39          1           0       -6.384949    0.592447   -1.588503
     40          1           0       -7.466518   -0.403018   -0.599277
 ---------------------------------------------------------------------

 SCF Done:  E(RHF) =  -470.733218884     A.U. after   11 cycles
 E2 =    -0.1583261994D+01 EUMP2 =    -0.47231648087802D+03

 The electronic state is 1-A.
 Alpha  occ. eigenvalues --  -11.21680 -11.21626 -11.21599 -11.21591 -11.21448
 Alpha  occ. eigenvalues --  -11.21401 -11.21386 -11.21341 -11.21124 -11.21088
 Alpha  occ. eigenvalues --  -11.21066 -11.21065  -1.08484  -1.08427  -1.03585
 Alpha  occ. eigenvalues --   -1.03519  -0.96042  -0.95964  -0.87059  -0.86979
 Alpha  occ. eigenvalues --   -0.79641  -0.79587  -0.78293  -0.78239  -0.65141
 Alpha  occ. eigenvalues --   -0.65101  -0.61022  -0.60901  -0.59377  -0.59337
 Alpha  occ. eigenvalues --   -0.57658  -0.57566  -0.55330  -0.55248  -0.52724
 Alpha  occ. eigenvalues --   -0.52664  -0.52478  -0.52360  -0.49972  -0.49902
 Alpha  occ. eigenvalues --   -0.47967  -0.47893  -0.46695  -0.46597  -0.45828
 Alpha  occ. eigenvalues --   -0.45774  -0.45751  -0.45705  -0.43820  -0.43772
 Alpha virt. eigenvalues --    0.19947   0.23047   0.23893   0.24908   0.26263
 Alpha virt. eigenvalues --    0.26489   0.26685   0.27625   0.27922   0.29352
 Alpha virt. eigenvalues --    0.30606   0.31510   0.31657   0.31731   0.32129

 Mulliken charges:
               1
     1  C   -0.303136
     2  C   -0.300945
     3  C   -0.475900
     4  H    0.150779
     5  H    0.152155
     6  H    0.152168
     7  H    0.153361
     8  H    0.155359
     9  H    0.155137
    10  H    0.160238
    11  C   -0.299872
    12  C   -0.299574
    13  C   -0.475765
    14  H    0.149878
    15  H    0.150794
    16  H    0.151973
    17  H    0.151892
    18  H    0.155410
    19  H    0.155175
    20  H    0.160157
    21  C   -0.298360
    22  C   -0.299715
    23  C   -0.485158
    24  H    0.149929
    25  H    0.149750
    26  H    0.151854
    27  H    0.151832
    28  H    0.155322
    29  H    0.155628
    30  H    0.169178
    31  C   -0.298352
    32  C   -0.299707
    33  C   -0.475744
    34  H    0.149682
    35  H    0.149739
    36  H    0.152021
    37  H    0.151969
    38  H    0.155230
    39  H    0.155270
    40  H    0.160346
 Sum of Mulliken charges =  -0.00000

 Dipole moment (field-independent basis, Debye):
    X=             -0.0068    Y=             -0.0003    Z=              0.0035  Tot=              0.0077
 Quadrupole moment (field-independent basis, Debye-Ang):
   XX=            -84.8509   YY=            -84.6128   ZZ=            -85.2095
   XY=              0.4746   XZ=             -1.1831   YZ=              0.2568

 Normal termination of Gaussian 16 at Wed May  5 23:03:03 2021.
