 Gaussian 16, Revision A.03,
 Gaussian 16:  EM64L-G16RevA.03 25-Dec-2016

 -------------
 #p 6-31g* mp2
 -------------

 ------------------------------------------------------
 Input file generated by CHIRIPA (05-May-2021 14:53:15)
 ------------------------------------------------------
 Symbolic Z-matrix:
 Charge =  0 Multiplicity = 1

                         Standard orientation:
 ---------------------------------------------------------------------
 Center     Atomic      Atomic             Coordinates (Angstroms)
 Number     Number       Type             X           Y           Z
 ---------------------------------------------------------------------
      1          6           0        3.981453    0.759299   -0.171127
      2          6           0        3.410556    2.027592    0.464085
      3          6           0        4.085336    3.300484   -0.047980
      4          1           0        5.060477    0.710129    0.029458
      5          1           0        3.868907    0.821509   -1.262392
      6          1           0        3.522893    1.962396    1.553923
      7          1           0        2.332730    2.073651    0.262128
      8          1           0        3.961668    3.392756   -1.131858
      9          1           0        5.158593    3.280869    0.167277
     10          1           0        3.661921    4.195107    0.419172
     11          6           0        3.317027   -0.521488    0.330718
     12          6           0        3.887924   -1.789781   -0.304495
     13          6           0        3.213144   -3.062673    0.207570
     14          1           0        3.429573   -0.583698    1.421982
     15          1           0        2.238003   -0.472318    0.130132
     16          1           0        4.965750   -1.835840   -0.102537
     17          1           0        3.775587   -1.724585   -1.394332
     18          1           0        2.139887   -3.043058   -0.007686
     19          1           0        3.336812   -3.154945    1.291449
     20          1           0        3.636559   -3.957296   -0.259581
     21          6           0       -1.607557   -2.285907   -0.165045
     22          6           0       -0.947629   -1.091915   -0.473911
     23          6           0       -1.626626    0.129003   -0.420347
     24          6           0       -2.971177    0.119117   -0.052411
     25          6           0       -3.656341   -1.053733    0.261060
     26          6           0       -2.957428   -2.263045    0.200809
     27          1           0       -1.072360   -3.229838   -0.209252
     28          1           0        0.100664   -1.106649   -0.758355
     29          1           0       -1.140138    1.068135   -0.654395
     30          1           0       -4.701682   -1.007213    0.541269
     31          1           0       -3.472495   -3.188766    0.441209
     32          7           0       -3.700543    1.405506    0.007835
     33          8           0       -4.884799    1.369922    0.334804
     34          8           0       -3.074155    2.425003   -0.273056
 ---------------------------------------------------------------------

 SCF Done:  E(RHF) =  -669.535364651     A.U. after   15 cycles
 E2 =    -0.2091706802D+01 EUMP2 =    -0.67162707145242D+03

 The electronic state is 1-A.
 Alpha  occ. eigenvalues --  -20.60758 -20.60753 -15.85812 -11.31180 -11.27756
 Alpha  occ. eigenvalues --  -11.27751 -11.27492 -11.26764 -11.26746 -11.22471
 Alpha  occ. eigenvalues --  -11.22250 -11.22096 -11.22079 -11.21988 -11.21370
 Alpha  occ. eigenvalues --   -1.59833  -1.39387  -1.19354  -1.09159  -1.08747
 Alpha  occ. eigenvalues --   -1.04761  -1.04206  -0.96665  -0.95582  -0.87679
 Alpha  occ. eigenvalues --   -0.86161  -0.82418  -0.80281  -0.78948  -0.77461
 Alpha  occ. eigenvalues --   -0.72030  -0.71156  -0.70463  -0.65872  -0.65008
 Alpha  occ. eigenvalues --   -0.64736  -0.62133  -0.61581  -0.60037  -0.58255
 Alpha  occ. eigenvalues --   -0.55988  -0.55252  -0.53332  -0.53103  -0.53080
 Alpha  occ. eigenvalues --   -0.52856  -0.50621  -0.48799  -0.48785  -0.48576
 Alpha  occ. eigenvalues --   -0.47320  -0.46474  -0.46386  -0.44792  -0.44464
 Alpha  occ. eigenvalues --   -0.37329  -0.36356
 Alpha virt. eigenvalues --    0.05068   0.11238   0.16503   0.18402   0.22664
 Alpha virt. eigenvalues --    0.23384   0.25049   0.25835   0.26532   0.28111
 Alpha virt. eigenvalues --    0.29617   0.30385   0.31062   0.31380   0.31609

 Mulliken charges:
               1
     1  C   -0.298946
     2  C   -0.299253
     3  C   -0.476331
     4  H    0.152587
     5  H    0.149336
     6  H    0.154250
     7  H    0.149294
     8  H    0.155838
     9  H    0.155835
    10  H    0.164206
    11  C   -0.302247
    12  C   -0.301003
    13  C   -0.474897
    14  H    0.154111
    15  H    0.142101
    16  H    0.156833
    17  H    0.151737
    18  H    0.143079
    19  H    0.159564
    20  H    0.163760
    21  C   -0.172546
    22  C   -0.223204
    23  C   -0.172708
    24  C    0.158679
    25  C   -0.170814
    26  C   -0.218557
    27  H    0.226675
    28  H    0.230995
    29  H    0.275281
    30  H    0.275648
    31  H    0.223538
    32  N    0.488099
    33  O   -0.460452
    34  O   -0.460489
 Sum of Mulliken charges =  -0.00000

 Dipole moment (field-independent basis, Debye):
    X=              2.7641    Y=             -4.4826    Z=             -0.1493  Tot=              5.2684
 Quadrupole moment (field-independent basis, Debye-Ang):
   XX=           -105.4438   YY=            -95.8433   ZZ=            -94.6533
   XY=             15.8575   XZ=             -0.0391   YZ=             -0.3850

 Normal termination of Gaussian 16 at Wed May  5 20:18:44 2021.
