 Gaussian 16, Revision A.03,
 Gaussian 16:  EM64L-G16RevA.03 25-Dec-2016

 -------------
 #p 6-31g* mp2
 -------------

 ------------------------------------------------------
 Input file generated by CHIRIPA (05-May-2021 14:53:17)
 ------------------------------------------------------
 Symbolic Z-matrix:
 Charge =  0 Multiplicity = 1

                         Standard orientation:
 ---------------------------------------------------------------------
 Center     Atomic      Atomic             Coordinates (Angstroms)
 Number     Number       Type             X           Y           Z
 ---------------------------------------------------------------------
      1          6           0       -4.404549    0.187598   -0.297078
      2          6           0       -4.979611   -0.904837    0.605071
      3          6           0       -6.141154   -1.657421   -0.044721
      4          1           0       -5.202332    0.896391   -0.558038
      5          1           0       -4.067716   -0.264925   -1.240032
      6          1           0       -5.313992   -0.450597    1.546597
      7          1           0       -4.180322   -1.611006    0.864069
      8          1           0       -5.817604   -2.136879   -0.974257
      9          1           0       -6.957715   -0.969877   -0.287851
     10          1           0       -6.537085   -2.433707    0.617456
     11          6           0       -3.242611    0.948857    0.338621
     12          6           0       -2.667549    2.041292   -0.563528
     13          6           0       -1.506006    2.793876    0.086264
     14          1           0       -3.579443    1.401379    1.281575
     15          1           0       -2.444828    0.240064    0.599581
     16          1           0       -3.466837    2.747460   -0.822526
     17          1           0       -2.333168    1.587051   -1.505054
     18          1           0       -0.689445    2.106332    0.329394
     19          1           0       -1.829556    3.273334    1.015799
     20          1           0       -1.110075    3.570162   -0.575913
     21          6           0        4.812703    1.289445    0.153419
     22          6           0        5.138395   -0.070752    0.135799
     23          6           0        4.135142   -1.039900    0.042092
     24          6           0        2.810686   -0.611503   -0.032629
     25          6           0        2.454318    0.736109   -0.017384
     26          6           0        3.474064    1.687831    0.076907
     27          1           0        5.598460    2.035535    0.226440
     28          1           0        6.177143   -0.383055    0.195080
     29          1           0        4.359159   -2.099612    0.026411
     30          1           0        1.409815    1.016753   -0.077951
     31          1           0        3.218178    2.743476    0.090377
     32          7           0        1.739857   -1.628274   -0.132141
     33          8           0        0.580632   -1.224959   -0.196726
     34          8           0        2.080043   -2.809281   -0.143669
 ---------------------------------------------------------------------

 SCF Done:  E(RHF) =  -669.535964309     A.U. after   15 cycles
 E2 =    -0.2091285437D+01 EUMP2 =    -0.67162724974517D+03

 The electronic state is 1-A.
 Alpha  occ. eigenvalues --  -20.60869 -20.60860 -15.85915 -11.31223 -11.27791
 Alpha  occ. eigenvalues --  -11.27770 -11.27527 -11.26799 -11.26781 -11.21308
 Alpha  occ. eigenvalues --  -11.21191 -11.20943 -11.20781 -11.20721 -11.20493
 Alpha  occ. eigenvalues --   -1.59936  -1.39492  -1.19394  -1.08800  -1.07897
 Alpha  occ. eigenvalues --   -1.04790  -1.03121  -0.95650  -0.95590  -0.86630
 Alpha  occ. eigenvalues --   -0.86190  -0.82476  -0.79187  -0.77685  -0.77521
 Alpha  occ. eigenvalues --   -0.72137  -0.71254  -0.70514  -0.65049  -0.64815
 Alpha  occ. eigenvalues --   -0.64493  -0.62169  -0.60498  -0.58982  -0.57191
 Alpha  occ. eigenvalues --   -0.55327  -0.54865  -0.53122  -0.52893  -0.52336
 Alpha  occ. eigenvalues --   -0.52016  -0.49535  -0.48895  -0.48882  -0.47504
 Alpha  occ. eigenvalues --   -0.46176  -0.45240  -0.45106  -0.44895  -0.43335
 Alpha  occ. eigenvalues --   -0.37376  -0.36389
 Alpha virt. eigenvalues --    0.04995   0.11256   0.16499   0.20318   0.23214
 Alpha virt. eigenvalues --    0.24243   0.26158   0.27372   0.27780   0.28325
 Alpha virt. eigenvalues --    0.29444   0.30477   0.31510   0.31890   0.32435

 Mulliken charges:
               1
     1  C   -0.298114
     2  C   -0.300857
     3  C   -0.475626
     4  H    0.145770
     5  H    0.152957
     6  H    0.149085
     7  H    0.158949
     8  H    0.156456
     9  H    0.152581
    10  H    0.159286
    11  C   -0.303816
    12  C   -0.297557
    13  C   -0.482869
    14  H    0.145412
    15  H    0.166450
    16  H    0.150258
    17  H    0.155766
    18  H    0.153593
    19  H    0.156599
    20  H    0.155674
    21  C   -0.170399
    22  C   -0.219101
    23  C   -0.169774
    24  C    0.157037
    25  C   -0.180113
    26  C   -0.223026
    27  H    0.225826
    28  H    0.223564
    29  H    0.275634
    30  H    0.291255
    31  H    0.224640
    32  N    0.487776
    33  O   -0.463798
    34  O   -0.459516
 Sum of Mulliken charges =  -0.00000

 Dipole moment (field-independent basis, Debye):
    X=              3.8307    Y=              3.4577    Z=              0.3428  Tot=              5.1718
 Quadrupole moment (field-independent basis, Debye-Ang):
   XX=            -72.0867   YY=            -97.0678   ZZ=            -95.6890
   XY=              4.3346   XZ=              0.5040   YZ=             -0.3669

 Normal termination of Gaussian 16 at Thu May  6 20:33:16 2021.
