 Gaussian 16, Revision A.03,
 Gaussian 16:  EM64L-G16RevA.03 25-Dec-2016

 -------------
 #p 6-31g* mp2
 -------------

 ------------------------------------------------------
 Input file generated by CHIRIPA (05-May-2021 14:57:22)
 ------------------------------------------------------
 Symbolic Z-matrix:
 Charge =  0 Multiplicity = 1

                         Standard orientation:
 ---------------------------------------------------------------------
 Center     Atomic      Atomic             Coordinates (Angstroms)
 Number     Number       Type             X           Y           Z
 ---------------------------------------------------------------------
      1          6           0       -3.086435    2.313987   -0.750792
      2          6           0       -4.392564    1.889238   -0.485958
      3          6           0       -4.640985    0.581540   -0.058452
      4          6           0       -3.554832   -0.278815    0.094352
      5          6           0       -2.242182    0.114595   -0.161519
      6          6           0       -2.017298    1.426874   -0.588014
      7          1           0       -2.902598    3.331618   -1.082496
      8          1           0       -5.224807    2.576008   -0.611507
      9          1           0       -5.642157    0.226438    0.153622
     10          1           0       -1.432974   -0.592912   -0.027228
     11          1           0       -1.001894    1.753986   -0.792948
     12          7           0       -3.805365   -1.665642    0.546398
     13          8           0       -2.831229   -2.404283    0.673304
     14          8           0       -4.971126   -1.987735    0.765246
     15          6           0        3.026741    2.381285    0.813952
     16          6           0        4.045343    1.625429    1.403573
     17          6           0        4.323827    0.332756    0.949711
     18          6           0        3.560603   -0.175106   -0.100458
     19          6           0        2.539226    0.553191   -0.708459
     20          6           0        2.278253    1.843701   -0.238327
     21          1           0        2.817209    3.384624    1.172842
     22          1           0        4.628246    2.040358    2.220949
     23          1           0        5.106644   -0.274268    1.388047
     24          1           0        1.975202    0.112528   -1.521546
     25          1           0        1.486591    2.428416   -0.698134
     26          7           0        3.846152   -1.542456   -0.589553
     27          8           0        3.159363   -1.967054   -1.516199
     28          8           0        4.751350   -2.163698   -0.036999
 ---------------------------------------------------------------------

 SCF Done:  E(RHF) =  -868.336252163     A.U. after   16 cycles
 E2 =    -0.2600038953D+01 EUMP2 =    -0.87093629111589D+03

 The electronic state is 1-A.
 Alpha  occ. eigenvalues --  -20.61087 -20.61082 -20.60892 -20.60878 -15.86152
 Alpha  occ. eigenvalues --  -15.85949 -11.31718 -11.31472 -11.28401 -11.28280
 Alpha  occ. eigenvalues --  -11.28116 -11.28091 -11.28062 -11.27905 -11.27513
 Alpha  occ. eigenvalues --  -11.27310 -11.27234 -11.27105  -1.60158  -1.59962
 Alpha  occ. eigenvalues --   -1.39707  -1.39510  -1.19926  -1.19682  -1.09277
 Alpha  occ. eigenvalues --   -1.09057  -1.05383  -1.05117  -0.96074  -0.95855
 Alpha  occ. eigenvalues --   -0.86768  -0.86514  -0.82929  -0.82685  -0.77950
 Alpha  occ. eigenvalues --   -0.77688  -0.72365  -0.72163  -0.71485  -0.71289
 Alpha  occ. eigenvalues --   -0.71022  -0.70799  -0.65588  -0.65519  -0.65342
 Alpha  occ. eigenvalues --   -0.65071  -0.62806  -0.62382  -0.55857  -0.55635
 Alpha  occ. eigenvalues --   -0.53678  -0.53565  -0.53427  -0.53136  -0.49140
 Alpha  occ. eigenvalues --   -0.49108  -0.48938  -0.48906  -0.45069  -0.44880
 Alpha  occ. eigenvalues --   -0.37895  -0.37683  -0.36991  -0.36716
 Alpha virt. eigenvalues --    0.04615   0.04854   0.10614   0.10941   0.15912
 Alpha virt. eigenvalues --    0.16296   0.18421   0.22025   0.24649   0.27197
 Alpha virt. eigenvalues --    0.28052   0.29095   0.29392   0.31601   0.32051

 Mulliken charges:
               1
     1  C   -0.171701
     2  C   -0.218454
     3  C   -0.169977
     4  C    0.158946
     5  C   -0.171385
     6  C   -0.220019
     7  H    0.223821
     8  H    0.224336
     9  H    0.277116
    10  H    0.279190
    11  H    0.215266
    12  N    0.487835
    13  O   -0.456918
    14  O   -0.459973
    15  C   -0.169719
    16  C   -0.218037
    17  C   -0.168747
    18  C    0.160167
    19  C   -0.173650
    20  C   -0.221634
    21  H    0.226442
    22  H    0.226108
    23  H    0.278626
    24  H    0.274636
    25  H    0.215768
    26  N    0.488266
    27  O   -0.458659
    28  O   -0.457652
 Sum of Mulliken charges =  -0.00000

 Dipole moment (field-independent basis, Debye):
    X=             -0.0061    Y=              9.5161    Z=              0.2625  Tot=              9.5197
 Quadrupole moment (field-independent basis, Debye-Ang):
   XX=           -109.5661   YY=           -110.3433   ZZ=           -104.4138
   XY=             -1.7466   XZ=             14.9779   YZ=              0.0236

 Normal termination of Gaussian 16 at Wed May  5 17:48:16 2021.
