 Gaussian 16, Revision A.03,
 Gaussian 16:  EM64L-G16RevA.03 25-Dec-2016

 -------------
 #p 6-31g* mp2
 -------------

 ------------------------------------------------------
 Input file generated by CHIRIPA (05-May-2021 14:55:18)
 ------------------------------------------------------
 Symbolic Z-matrix:
 Charge =  0 Multiplicity = 1

                         Standard orientation:
 ---------------------------------------------------------------------
 Center     Atomic      Atomic             Coordinates (Angstroms)
 Number     Number       Type             X           Y           Z
 ---------------------------------------------------------------------
      1          6           0        5.177070    1.314938   -1.004956
      2          6           0        4.642261    0.146484   -1.557418
      3          6           0        3.617966   -0.544122   -0.902873
      4          6           0        3.150159   -0.035732    0.307907
      5          6           0        3.662478    1.125783    0.883843
      6          6           0        4.686337    1.800003    0.211766
      7          1           0        5.972598    1.845053   -1.520233
      8          1           0        5.021417   -0.232546   -2.502205
      9          1           0        3.185824   -1.451034   -1.308066
     10          1           0        3.263930    1.479150    1.827087
     11          1           0        5.099778    2.707196    0.643175
     12          7           0        2.066014   -0.758172    1.010125
     13          8           0        1.671257   -0.289622    2.075613
     14          8           0        1.631548   -1.779292    0.481739
     15          6           0       -3.640711   -0.319070   -0.637984
     16          6           0       -2.824336   -1.406491    0.061322
     17          6           0       -1.586733   -1.820834   -0.735204
     18          1           0       -3.945139   -0.679086   -1.630283
     19          1           0       -3.001233    0.558465   -0.806492
     20          1           0       -3.465545   -2.281199    0.229702
     21          1           0       -2.521978   -1.043916    1.052149
     22          1           0       -0.924245   -0.963331   -0.891412
     23          1           0       -1.873172   -2.207644   -1.718531
     24          1           0       -1.017825   -2.599116   -0.217051
     25          6           0       -4.881117    0.105733    0.146022
     26          6           0       -5.697494    1.193154   -0.553285
     27          6           0       -6.935096    1.607496    0.243241
     28          1           0       -5.520595   -0.771802    0.314529
     29          1           0       -4.576690    0.465748    1.138321
     30          1           0       -5.999850    0.830580   -1.544112
     31          1           0       -5.056285    2.067862   -0.721666
     32          1           0       -6.648657    1.994307    1.226568
     33          1           0       -7.597583    0.749995    0.399449
     34          1           0       -7.504003    2.385778   -0.274912
 ---------------------------------------------------------------------

 SCF Done:  E(RHF) =  -669.535577056     A.U. after   15 cycles
 E2 =    -0.2091225848D+01 EUMP2 =    -0.67162680290362D+03

 The electronic state is 1-A.
 Alpha  occ. eigenvalues --  -20.60911 -20.60872 -15.85922 -11.31265 -11.27831
 Alpha  occ. eigenvalues --  -11.27824 -11.27570 -11.26841 -11.26831 -11.21066
 Alpha  occ. eigenvalues --  -11.20681 -11.20622 -11.20521 -11.20391 -11.19548
 Alpha  occ. eigenvalues --   -1.59957  -1.39513  -1.19435  -1.08837  -1.07617
 Alpha  occ. eigenvalues --   -1.04833  -1.02632  -0.95682  -0.95065  -0.86235
 Alpha  occ. eigenvalues --   -0.86089  -0.82510  -0.78736  -0.77562  -0.77397
 Alpha  occ. eigenvalues --   -0.72156  -0.71277  -0.70543  -0.65091  -0.64837
 Alpha  occ. eigenvalues --   -0.64256  -0.62180  -0.60037  -0.58478  -0.56657
 Alpha  occ. eigenvalues --   -0.55338  -0.54383  -0.53165  -0.52925  -0.51722
 Alpha  occ. eigenvalues --   -0.51513  -0.49123  -0.48906  -0.48829  -0.47029
 Alpha  occ. eigenvalues --   -0.45832  -0.45026  -0.44918  -0.44702  -0.42836
 Alpha  occ. eigenvalues --   -0.37414  -0.36435
 Alpha virt. eigenvalues --    0.04961   0.11217   0.16444   0.21348   0.23618
 Alpha virt. eigenvalues --    0.25246   0.27258   0.27400   0.28159   0.28266
 Alpha virt. eigenvalues --    0.28980   0.30917   0.32137   0.32441   0.32615

 Mulliken charges:
               1
     1  C   -0.170666
     2  C   -0.218545
     3  C   -0.170879
     4  C    0.157783
     5  C   -0.170860
     6  C   -0.218581
     7  H    0.225886
     8  H    0.223820
     9  H    0.276211
    10  H    0.275678
    11  H    0.223677
    12  N    0.488861
    13  O   -0.460335
    14  O   -0.458350
    15  C   -0.297136
    16  C   -0.301575
    17  C   -0.471454
    18  H    0.146151
    19  H    0.146785
    20  H    0.147667
    21  H    0.158259
    22  H    0.149272
    23  H    0.143091
    24  H    0.179716
    25  C   -0.297766
    26  C   -0.298820
    27  C   -0.475253
    28  H    0.148443
    29  H    0.150391
    30  H    0.150398
    31  H    0.150385
    32  H    0.154999
    33  H    0.154683
    34  H    0.158063
 Sum of Mulliken charges =  -0.00000

 Dipole moment (field-independent basis, Debye):
    X=              4.1123    Y=              2.4592    Z=             -2.3608  Tot=              5.3415
 Quadrupole moment (field-independent basis, Debye-Ang):
   XX=            -72.9975   YY=            -92.5521   ZZ=            -94.1364
   XY=              9.0399   XZ=             -6.4224   YZ=              3.7975

 Normal termination of Gaussian 16 at Thu May  6 04:26:22 2021.
