 Gaussian 16, Revision A.03,
 Gaussian 16:  EM64L-G16RevA.03 25-Dec-2016

 -------------
 #p 6-31g* mp2
 -------------

 ------------------------------------------------------
 Input file generated by CHIRIPA (05-May-2021 14:51:14)
 ------------------------------------------------------
 Symbolic Z-matrix:
 Charge =  0 Multiplicity = 1

                         Standard orientation:
 ---------------------------------------------------------------------
 Center     Atomic      Atomic             Coordinates (Angstroms)
 Number     Number       Type             X           Y           Z
 ---------------------------------------------------------------------
      1          6           0       -2.460104   -0.539933    0.731215
      2          6           0       -2.059249   -1.994275    0.481837
      3          6           0       -1.062594   -2.518436    1.516114
      4          1           0       -1.558877    0.088319    0.725313
      5          1           0       -2.894517   -0.453903    1.736839
      6          1           0       -1.626990   -2.077794   -0.523545
      7          1           0       -2.961556   -2.619110    0.488143
      8          1           0       -1.488236   -2.464069    2.523325
      9          1           0       -0.146088   -1.919677    1.505889
     10          1           0       -0.789710   -3.559826    1.318880
     11          6           0       -3.456016   -0.001619   -0.294508
     12          6           0       -3.856871    1.452723   -0.045131
     13          6           0       -4.853526    1.976885   -1.079407
     14          1           0       -3.021603   -0.087649   -1.300132
     15          1           0       -4.357242   -0.629871   -0.288606
     16          1           0       -2.954564    2.077559   -0.051436
     17          1           0       -4.289130    1.536242    0.960251
     18          1           0       -5.770032    1.378126   -1.069183
     19          1           0       -4.427884    1.922518   -2.086618
     20          1           0       -5.126410    3.018274   -0.882173
     21          6           0        3.234620   -0.436383   -0.301254
     22          6           0        2.230146   -1.412216   -0.915069
     23          6           0        2.798110   -2.822809   -1.074562
     24          1           0        4.134333   -0.401929   -0.930757
     25          1           0        3.553327   -0.817324    0.678902
     26          1           0        1.912381   -1.028852   -1.893166
     27          1           0        1.332643   -1.444207   -0.284135
     28          1           0        3.098208   -3.229360   -0.103347
     29          1           0        3.681241   -2.811644   -1.721520
     30          1           0        2.063409   -3.503978   -1.515113
     31          6           0        2.681501    0.977934   -0.135453
     32          6           0        3.685973    1.953768    0.478364
     33          6           0        3.118010    3.364362    0.637855
     34          1           0        2.362793    1.358876   -1.115607
     35          1           0        1.781787    0.943480    0.494051
     36          1           0        4.583477    1.985758   -0.152573
     37          1           0        4.003739    1.570403    1.456460
     38          1           0        2.234880    3.353196    1.284814
     39          1           0        2.817912    3.770911   -0.333361
     40          1           0        3.852711    4.045530    1.078407
 ---------------------------------------------------------------------

 SCF Done:  E(RHF) =  -470.733292352     A.U. after   11 cycles
 E2 =    -0.1583138884D+01 EUMP2 =    -0.47231643123664D+03

 The electronic state is 1-A.
 Alpha  occ. eigenvalues --  -11.21633 -11.21618 -11.21597 -11.21596 -11.21446
 Alpha  occ. eigenvalues --  -11.21415 -11.21381 -11.21354 -11.21102 -11.21096
 Alpha  occ. eigenvalues --  -11.21072 -11.21066  -1.08471  -1.08430  -1.03579
 Alpha  occ. eigenvalues --   -1.03514  -0.96017  -0.95977  -0.87026  -0.87000
 Alpha  occ. eigenvalues --   -0.79637  -0.79584  -0.78292  -0.78239  -0.65217
 Alpha  occ. eigenvalues --   -0.64967  -0.61165  -0.60751  -0.59371  -0.59349
 Alpha  occ. eigenvalues --   -0.57612  -0.57601  -0.55384  -0.55191  -0.52694
 Alpha  occ. eigenvalues --   -0.52680  -0.52453  -0.52393  -0.50044  -0.49853
 Alpha  occ. eigenvalues --   -0.48016  -0.47846  -0.46754  -0.46530  -0.45952
 Alpha  occ. eigenvalues --   -0.45775  -0.45735  -0.45529  -0.43810  -0.43792
 Alpha virt. eigenvalues --    0.19927   0.23261   0.23586   0.24661   0.25673
 Alpha virt. eigenvalues --    0.26719   0.27074   0.27809   0.28338   0.29288
 Alpha virt. eigenvalues --    0.30796   0.31262   0.31576   0.31743   0.32276

 Mulliken charges:
               1
     1  C   -0.299139
     2  C   -0.301051
     3  C   -0.478803
     4  H    0.149879
     5  H    0.149510
     6  H    0.153438
     7  H    0.152301
     8  H    0.155523
     9  H    0.156888
    10  H    0.160834
    11  C   -0.298287
    12  C   -0.299784
    13  C   -0.475714
    14  H    0.149918
    15  H    0.149620
    16  H    0.152275
    17  H    0.151810
    18  H    0.155120
    19  H    0.155233
    20  H    0.160287
    21  C   -0.298067
    22  C   -0.308352
    23  C   -0.475139
    24  H    0.149938
    25  H    0.149639
    26  H    0.151431
    27  H    0.160639
    28  H    0.155503
    29  H    0.155128
    30  H    0.160162
    31  C   -0.298999
    32  C   -0.299646
    33  C   -0.475804
    34  H    0.149548
    35  H    0.148958
    36  H    0.152190
    37  H    0.152192
    38  H    0.155249
    39  H    0.155117
    40  H    0.160454
 Sum of Mulliken charges =  -0.00000

 Dipole moment (field-independent basis, Debye):
    X=             -0.0012    Y=             -0.0083    Z=              0.0002  Tot=              0.0084
 Quadrupole moment (field-independent basis, Debye-Ang):
   XX=            -84.6127   YY=            -86.0075   ZZ=            -84.0562
   XY=              1.0116   XZ=             -1.1889   YZ=             -0.2637

 Normal termination of Gaussian 16 at Wed May  5 15:23:14 2021.
