 Gaussian 16, Revision A.03,
 Gaussian 16:  EM64L-G16RevA.03 25-Dec-2016

 -------------
 #p 6-31g* mp2
 -------------

 ------------------------------------------------------
 Input file generated by CHIRIPA (05-May-2021 14:55:23)
 ------------------------------------------------------
 Symbolic Z-matrix:
 Charge =  0 Multiplicity = 1

                         Standard orientation:
 ---------------------------------------------------------------------
 Center     Atomic      Atomic             Coordinates (Angstroms)
 Number     Number       Type             X           Y           Z
 ---------------------------------------------------------------------
      1          6           0       -3.640461   -2.201550   -0.037891
      2          6           0       -2.579367   -2.039638   -0.934765
      3          6           0       -2.004289   -0.781094   -1.134511
      4          6           0       -2.517474    0.298662   -0.417532
      5          6           0       -3.573687    0.169425    0.483025
      6          6           0       -4.133366   -1.098447    0.666899
      7          1           0       -4.081214   -3.182841    0.111112
      8          1           0       -2.194528   -2.894539   -1.483482
      9          1           0       -1.181959   -0.627441   -1.822684
     10          1           0       -3.935783    1.040434    1.015609
     11          1           0       -4.957335   -1.221223    1.364069
     12          7           0       -1.916816    1.635964   -0.620593
     13          8           0       -2.387110    2.571355    0.023227
     14          8           0       -0.987100    1.723428   -1.419727
     15          6           0        3.901739    0.158748    0.032298
     16          6           0        5.034272   -0.846384   -0.179985
     17          6           0        6.132327   -0.313890   -1.101135
     18          1           0        3.468419    0.424353   -0.941680
     19          1           0        4.317040    1.085120    0.452720
     20          1           0        4.616758   -1.771083   -0.598591
     21          1           0        5.464821   -1.109774    0.794628
     22          1           0        6.576020    0.596540   -0.685375
     23          1           0        5.723138   -0.068527   -2.086509
     24          1           0        6.931829   -1.048476   -1.239117
     25          6           0        2.796423   -0.359090    0.950910
     26          6           0        1.663891    0.646043    1.163192
     27          6           0        0.565835    0.113548    2.084342
     28          1           0        2.381122   -1.285462    0.530487
     29          1           0        3.229744   -0.624695    1.924887
     30          1           0        1.233342    0.909432    0.188579
     31          1           0        2.081405    1.570740    1.581798
     32          1           0        0.975025   -0.131816    3.069717
     33          1           0        0.122143   -0.796882    1.668582
     34          1           0       -0.233665    0.848135    2.222324
 ---------------------------------------------------------------------

 SCF Done:  E(RHF) =  -669.536342480     A.U. after   15 cycles
 E2 =    -0.2092813400D+01 EUMP2 =    -0.67162915587962D+03

 The electronic state is 1-A.
 Alpha  occ. eigenvalues --  -20.60966 -20.60957 -15.85972 -11.31268 -11.27839
 Alpha  occ. eigenvalues --  -11.27821 -11.27566 -11.26849 -11.26829 -11.21325
 Alpha  occ. eigenvalues --  -11.21008 -11.20943 -11.20881 -11.20810 -11.20686
 Alpha  occ. eigenvalues --   -1.60008  -1.39569  -1.19438  -1.08847  -1.08015
 Alpha  occ. eigenvalues --   -1.04835  -1.03131  -0.95695  -0.95618  -0.86635
 Alpha  occ. eigenvalues --   -0.86236  -0.82532  -0.79180  -0.77813  -0.77583
 Alpha  occ. eigenvalues --   -0.72203  -0.71326  -0.70551  -0.65100  -0.64842
 Alpha  occ. eigenvalues --   -0.64647  -0.62186  -0.60531  -0.58971  -0.57205
 Alpha  occ. eigenvalues --   -0.55342  -0.54948  -0.53159  -0.52929  -0.52303
 Alpha  occ. eigenvalues --   -0.52031  -0.49558  -0.48972  -0.48956  -0.47521
 Alpha  occ. eigenvalues --   -0.46258  -0.45481  -0.45337  -0.44677  -0.43378
 Alpha  occ. eigenvalues --   -0.37390  -0.36427
 Alpha virt. eigenvalues --    0.04908   0.11177   0.16379   0.21267   0.23143
 Alpha virt. eigenvalues --    0.24426   0.26874   0.27338   0.27788   0.28144
 Alpha virt. eigenvalues --    0.28509   0.30847   0.31535   0.31914   0.32297

 Mulliken charges:
               1
     1  C   -0.170490
     2  C   -0.218942
     3  C   -0.171706
     4  C    0.162156
     5  C   -0.170961
     6  C   -0.218129
     7  H    0.225991
     8  H    0.223737
     9  H    0.275276
    10  H    0.275753
    11  H    0.223867
    12  N    0.488822
    13  O   -0.458706
    14  O   -0.459159
    15  C   -0.298646
    16  C   -0.298982
    17  C   -0.475479
    18  H    0.153071
    19  H    0.150867
    20  H    0.148851
    21  H    0.150836
    22  H    0.155871
    23  H    0.155644
    24  H    0.158506
    25  C   -0.296935
    26  C   -0.309368
    27  C   -0.481248
    28  H    0.143180
    29  H    0.147180
    30  H    0.169436
    31  H    0.153916
    32  H    0.153214
    33  H    0.150932
    34  H    0.161644
 Sum of Mulliken charges =  -0.00000

 Dipole moment (field-independent basis, Debye):
    X=             -2.2688    Y=             -4.5834    Z=              0.6338  Tot=              5.1533
 Quadrupole moment (field-independent basis, Debye-Ang):
   XX=            -83.1129   YY=            -97.2121   ZZ=            -93.6041
   XY=             10.3001   XZ=             -2.5899   YZ=              4.2187

 Normal termination of Gaussian 16 at Thu May  6 12:37:53 2021.
