 Gaussian 16, Revision A.03,
 Gaussian 16:  EM64L-G16RevA.03 25-Dec-2016

 -------------
 #p 6-31g* mp2
 -------------

 ------------------------------------------------------
 Input file generated by CHIRIPA (05-May-2021 14:51:09)
 ------------------------------------------------------
 Symbolic Z-matrix:
 Charge =  0 Multiplicity = 1

                         Standard orientation:
 ---------------------------------------------------------------------
 Center     Atomic      Atomic             Coordinates (Angstroms)
 Number     Number       Type             X           Y           Z
 ---------------------------------------------------------------------
      1          6           0        2.646519   -0.444265   -0.634837
      2          6           0        2.703363   -1.328689    0.611176
      3          6           0        3.578428   -2.567444    0.417416
      4          1           0        2.266062   -1.035286   -1.479166
      5          1           0        3.666239   -0.135589   -0.903692
      6          1           0        1.683708   -1.634474    0.878410
      7          1           0        3.083548   -0.735442    1.452683
      8          1           0        4.605945   -2.278919    0.173362
      9          1           0        3.198151   -3.183058   -0.404174
     10          1           0        3.604942   -3.185465    1.320304
     11          6           0        1.775558    0.798081   -0.456705
     12          6           0        1.718714    1.682505   -1.702718
     13          6           0        0.843649    2.921260   -1.508957
     14          1           0        0.755838    0.489404   -0.187849
     15          1           0        2.156015    1.389102    0.387625
     16          1           0        1.338529    1.089258   -2.544224
     17          1           0        2.738369    1.988290   -1.969952
     18          1           0        1.223926    3.536874   -0.687368
     19          1           0       -0.183868    2.632735   -1.264903
     20          1           0        0.817135    3.539281   -2.411846
     21          6           0       -2.056535    0.447563    0.957592
     22          6           0       -1.166737    0.169776    2.169648
     23          6           0       -0.866499    1.428828    2.983551
     24          1           0       -1.568170    1.193246    0.315407
     25          1           0       -2.998864    0.898083    1.298829
     26          1           0       -0.226931   -0.281360    1.826348
     27          1           0       -1.657188   -0.575474    2.808925
     28          1           0       -1.793541    1.878317    3.353895
     29          1           0       -0.355157    2.174102    2.365735
     30          1           0       -0.229015    1.207350    3.845190
     31          6           0       -2.365543   -0.801379    0.133950
     32          6           0       -3.255340   -0.523592   -1.078107
     33          6           0       -3.555578   -1.782645   -1.892010
     34          1           0       -1.423213   -1.251900   -0.207287
     35          1           0       -2.853907   -1.547062    0.776134
     36          1           0       -2.764888    0.221659   -1.717383
     37          1           0       -4.195146   -0.072456   -0.734806
     38          1           0       -4.066921   -2.527918   -1.274194
     39          1           0       -2.628535   -2.232132   -2.262353
     40          1           0       -4.193062   -1.561166   -2.753649
 ---------------------------------------------------------------------

 SCF Done:  E(RHF) =  -470.732004572     A.U. after   11 cycles
 E2 =    -0.1586122940D+01 EUMP2 =    -0.47231812751160D+03

 The electronic state is 1-A.
 Alpha  occ. eigenvalues --  -11.21668 -11.21665 -11.21659 -11.21519 -11.21455
 Alpha  occ. eigenvalues --  -11.21452 -11.21384 -11.21362 -11.21155 -11.21118
 Alpha  occ. eigenvalues --  -11.21115 -11.21010  -1.08574  -1.08398  -1.03602
 Alpha  occ. eigenvalues --   -1.03532  -0.96048  -0.95990  -0.87065  -0.87007
 Alpha  occ. eigenvalues --   -0.79703  -0.79579  -0.78380  -0.78243  -0.65595
 Alpha  occ. eigenvalues --   -0.64701  -0.61012  -0.60938  -0.59456  -0.59316
 Alpha  occ. eigenvalues --   -0.57669  -0.57588  -0.55361  -0.55267  -0.52744
 Alpha  occ. eigenvalues --   -0.52673  -0.52484  -0.52402  -0.50011  -0.49961
 Alpha  occ. eigenvalues --   -0.48031  -0.47962  -0.46841  -0.46627  -0.46263
 Alpha  occ. eigenvalues --   -0.45810  -0.45634  -0.45102  -0.43843  -0.43791
 Alpha virt. eigenvalues --    0.19577   0.22223   0.23645   0.24009   0.25113
 Alpha virt. eigenvalues --    0.26236   0.26490   0.28179   0.28933   0.30302
 Alpha virt. eigenvalues --    0.30691   0.31390   0.31732   0.31852   0.32508

 Mulliken charges:
               1
     1  C   -0.297668
     2  C   -0.304884
     3  C   -0.475410
     4  H    0.149041
     5  H    0.149885
     6  H    0.156021
     7  H    0.152365
     8  H    0.155438
     9  H    0.155225
    10  H    0.160645
    11  C   -0.309506
    12  C   -0.299040
    13  C   -0.480873
    14  H    0.161834
    15  H    0.150066
    16  H    0.151573
    17  H    0.152337
    18  H    0.155505
    19  H    0.158703
    20  H    0.161085
    21  C   -0.307612
    22  C   -0.307809
    23  C   -0.476115
    24  H    0.155625
    25  H    0.151174
    26  H    0.160709
    27  H    0.151786
    28  H    0.154765
    29  H    0.156507
    30  H    0.159858
    31  C   -0.300199
    32  C   -0.299748
    33  C   -0.475683
    34  H    0.149026
    35  H    0.150506
    36  H    0.151450
    37  H    0.152562
    38  H    0.155443
    39  H    0.154880
    40  H    0.160535
 Sum of Mulliken charges =  -0.00000

 Dipole moment (field-independent basis, Debye):
    X=              0.0186    Y=             -0.0020    Z=             -0.0013  Tot=              0.0187
 Quadrupole moment (field-independent basis, Debye-Ang):
   XX=            -83.8155   YY=            -86.0121   ZZ=            -84.8795
   XY=              0.8889   XZ=             -0.3668   YZ=             -0.4967

 Normal termination of Gaussian 16 at Thu May  6 02:07:59 2021.
