 Gaussian 16, Revision A.03,
 Gaussian 16:  EM64L-G16RevA.03 25-Dec-2016

 -------------
 #p 6-31g* mp2
 -------------

 ------------------------------------------------------
 Input file generated by CHIRIPA (05-May-2021 14:51:14)
 ------------------------------------------------------
 Symbolic Z-matrix:
 Charge =  0 Multiplicity = 1

                         Standard orientation:
 ---------------------------------------------------------------------
 Center     Atomic      Atomic             Coordinates (Angstroms)
 Number     Number       Type             X           Y           Z
 ---------------------------------------------------------------------
      1          6           0       -3.741764   -0.231175    0.115089
      2          6           0       -4.163272    0.913188   -0.807272
      3          6           0       -5.607370    0.780594   -1.291828
      4          1           0       -3.866072   -1.185496   -0.414783
      5          1           0       -4.418305   -0.263631    0.980324
      6          1           0       -3.485290    0.944345   -1.669818
      7          1           0       -4.037765    1.864909   -0.275209
      8          1           0       -6.299167    0.771991   -0.443333
      9          1           0       -5.743553   -0.153803   -1.845866
     10          1           0       -5.887738    1.609071   -1.949764
     11          6           0       -2.300607   -0.112687    0.607791
     12          6           0       -1.879098   -1.257050    1.530152
     13          6           0       -0.435001   -1.124455    2.014708
     14          1           0       -1.624065   -0.080231   -0.257445
     15          1           0       -2.176299    0.841634    1.137663
     16          1           0       -2.004606   -2.208771    0.998089
     17          1           0       -2.557081   -1.288207    2.392698
     18          1           0       -0.298818   -0.190059    2.568746
     19          1           0        0.256797   -1.115853    1.166213
     20          1           0       -0.154633   -1.952933    2.672644
     21          6           0        3.129950   -0.562890   -0.183562
     22          6           0        2.713830   -1.524380   -1.297280
     23          6           0        2.937443   -2.990769   -0.926479
     24          1           0        4.190110   -0.724758    0.054775
     25          1           0        2.564651   -0.801905    0.727868
     26          1           0        3.278741   -1.282732   -2.206729
     27          1           0        1.654587   -1.360072   -1.533126
     28          1           0        2.361243   -3.254569   -0.033728
     29          1           0        3.994626   -3.176789   -0.711157
     30          1           0        2.633276   -3.660654   -1.736784
     31          6           0        2.912421    0.906752   -0.539317
     32          6           0        3.328541    1.868241    0.574400
     33          6           0        3.104927    3.334631    0.203599
     34          1           0        3.477721    1.145767   -1.450747
     35          1           0        1.852262    1.068620   -0.777655
     36          1           0        4.387783    1.703934    0.810246
     37          1           0        2.763629    1.626594    1.483849
     38          1           0        2.047744    3.520650   -0.011722
     39          1           0        3.681127    3.598429   -0.689153
     40          1           0        3.409095    4.004516    1.013905
 ---------------------------------------------------------------------

 SCF Done:  E(RHF) =  -470.733289723     A.U. after   11 cycles
 E2 =    -0.1583215785D+01 EUMP2 =    -0.47231650550803D+03

 The electronic state is 1-A.
 Alpha  occ. eigenvalues --  -11.21675 -11.21640 -11.21614 -11.21560 -11.21471
 Alpha  occ. eigenvalues --  -11.21406 -11.21362 -11.21295 -11.21158 -11.21099
 Alpha  occ. eigenvalues --  -11.21070 -11.21039  -1.08494  -1.08404  -1.03593
 Alpha  occ. eigenvalues --   -1.03509  -0.96049  -0.95952  -0.87073  -0.86966
 Alpha  occ. eigenvalues --   -0.79666  -0.79567  -0.78309  -0.78210  -0.65217
 Alpha  occ. eigenvalues --   -0.64980  -0.61084  -0.60818  -0.59409  -0.59325
 Alpha  occ. eigenvalues --   -0.57664  -0.57557  -0.55389  -0.55194  -0.52738
 Alpha  occ. eigenvalues --   -0.52656  -0.52497  -0.52357  -0.50082  -0.49816
 Alpha  occ. eigenvalues --   -0.48003  -0.47875  -0.46742  -0.46568  -0.45933
 Alpha  occ. eigenvalues --   -0.45797  -0.45694  -0.45524  -0.43844  -0.43761
 Alpha virt. eigenvalues --    0.19860   0.23096   0.24044   0.24832   0.25634
 Alpha virt. eigenvalues --    0.25954   0.27096   0.27865   0.28427   0.29489
 Alpha virt. eigenvalues --    0.30592   0.31502   0.31663   0.31986   0.32126

 Mulliken charges:
               1
     1  C   -0.298346
     2  C   -0.299752
     3  C   -0.475754
     4  H    0.149878
     5  H    0.149789
     6  H    0.151995
     7  H    0.151994
     8  H    0.155254
     9  H    0.155282
    10  H    0.160429
    11  C   -0.298673
    12  C   -0.299602
    13  C   -0.482865
    14  H    0.148971
    15  H    0.149749
    16  H    0.152335
    17  H    0.152357
    18  H    0.155292
    19  H    0.161966
    20  H    0.160697
    21  C   -0.304321
    22  C   -0.300369
    23  C   -0.476355
    24  H    0.150034
    25  H    0.155746
    26  H    0.152291
    27  H    0.150724
    28  H    0.155942
    29  H    0.155446
    30  H    0.160022
    31  C   -0.298493
    32  C   -0.299872
    33  C   -0.475799
    34  H    0.149367
    35  H    0.149678
    36  H    0.151784
    37  H    0.152779
    38  H    0.155337
    39  H    0.155004
    40  H    0.160060
 Sum of Mulliken charges =  -0.00000

 Dipole moment (field-independent basis, Debye):
    X=             -0.0193    Y=             -0.0067    Z=              0.0221  Tot=              0.0301
 Quadrupole moment (field-independent basis, Debye-Ang):
   XX=            -84.7891   YY=            -85.7354   ZZ=            -84.1773
   XY=              0.0040   XZ=             -1.0612   YZ=              0.5599

 Normal termination of Gaussian 16 at Thu May  6 00:49:53 2021.
