 Gaussian 16, Revision A.03,
 Gaussian 16:  EM64L-G16RevA.03 25-Dec-2016

 -------------
 #p 6-31g* mp2
 -------------

 ------------------------------------------------------
 Input file generated by CHIRIPA (05-May-2021 14:51:13)
 ------------------------------------------------------
 Symbolic Z-matrix:
 Charge =  0 Multiplicity = 1

                         Standard orientation:
 ---------------------------------------------------------------------
 Center     Atomic      Atomic             Coordinates (Angstroms)
 Number     Number       Type             X           Y           Z
 ---------------------------------------------------------------------
      1          6           0       -3.092616    0.351440    0.259339
      2          6           0       -4.073990   -0.135358   -0.807393
      3          6           0       -5.019861   -1.219453   -0.289841
      4          1           0       -2.507543   -0.502524    0.627279
      5          1           0       -3.657922    0.736733    1.119208
      6          1           0       -3.507005   -0.518345   -1.665569
      7          1           0       -4.656661    0.719897   -1.172973
      8          1           0       -5.610689   -0.845175    0.552441
      9          1           0       -4.454501   -2.090452    0.057047
     10          1           0       -5.712747   -1.552940   -1.068657
     11          6           0       -2.140422    1.435320   -0.242917
     12          6           0       -1.159049    1.922118    0.823815
     13          6           0       -0.213177    3.006213    0.306263
     14          1           0       -1.575117    1.050027   -1.102785
     15          1           0       -2.725495    2.289284   -0.610857
     16          1           0       -0.576377    1.066863    1.189396
     17          1           0       -1.726033    2.305104    1.681992
     18          1           0       -0.778537    3.877211   -0.040624
     19          1           0        0.377651    2.631935   -0.536019
     20          1           0        0.479708    3.339700    1.085080
     21          6           0        1.858219   -0.984577   -0.018009
     22          6           0        1.409448   -2.378864    0.420799
     23          6           0       -0.110186   -2.545861    0.395937
     24          1           0        1.394680   -0.234118    0.636888
     25          1           0        1.483426   -0.788630   -1.032173
     26          1           0        1.786147   -2.572668    1.433298
     27          1           0        1.874261   -3.126103   -0.235098
     28          1           0       -0.499613   -2.379003   -0.613571
     29          1           0       -0.588228   -1.822425    1.064304
     30          1           0       -0.408984   -3.549821    0.713186
     31          6           0        3.374819   -0.802183    0.001587
     32          6           0        3.823590    0.592105   -0.437221
     33          6           0        5.343224    0.759102   -0.412359
     34          1           0        3.749612   -0.998130    1.015751
     35          1           0        3.838358   -1.552642   -0.653310
     36          1           0        3.358776    1.339342    0.218676
     37          1           0        3.446892    0.785908   -1.449720
     38          1           0        5.821266    0.035664   -1.080727
     39          1           0        5.732651    0.592244    0.597149
     40          1           0        5.642022    1.763060   -0.729608
 ---------------------------------------------------------------------

 SCF Done:  E(RHF) =  -470.732677113     A.U. after   11 cycles
 E2 =    -0.1584798248D+01 EUMP2 =    -0.47231747536104D+03

 The electronic state is 1-A.
 Alpha  occ. eigenvalues --  -11.21689 -11.21625 -11.21553 -11.21530 -11.21464
 Alpha  occ. eigenvalues --  -11.21401 -11.21318 -11.21232 -11.21183 -11.21089
 Alpha  occ. eigenvalues --  -11.21035 -11.21003  -1.08507  -1.08348  -1.03595
 Alpha  occ. eigenvalues --   -1.03471  -0.96062  -0.95905  -0.87082  -0.86922
 Alpha  occ. eigenvalues --   -0.79674  -0.79539  -0.78360  -0.78130  -0.65234
 Alpha  occ. eigenvalues --   -0.64908  -0.61017  -0.60861  -0.59413  -0.59286
 Alpha  occ. eigenvalues --   -0.57711  -0.57499  -0.55424  -0.55128  -0.52740
 Alpha  occ. eigenvalues --   -0.52631  -0.52520  -0.52297  -0.50054  -0.49790
 Alpha  occ. eigenvalues --   -0.48048  -0.47871  -0.46856  -0.46542  -0.46094
 Alpha  occ. eigenvalues --   -0.45812  -0.45628  -0.45111  -0.43847  -0.43715
 Alpha virt. eigenvalues --    0.20144   0.22489   0.23800   0.24115   0.25193
 Alpha virt. eigenvalues --    0.25947   0.26934   0.28007   0.28937   0.30093
 Alpha virt. eigenvalues --    0.30783   0.30992   0.31757   0.31837   0.32291

 Mulliken charges:
               1
     1  C   -0.305981
     2  C   -0.298973
     3  C   -0.475982
     4  H    0.158606
     5  H    0.148544
     6  H    0.151358
     7  H    0.151493
     8  H    0.154876
     9  H    0.155893
    10  H    0.159828
    11  C   -0.297771
    12  C   -0.305175
    13  C   -0.477056
    14  H    0.149803
    15  H    0.149357
    16  H    0.155787
    17  H    0.151665
    18  H    0.155194
    19  H    0.157499
    20  H    0.159135
    21  C   -0.305502
    22  C   -0.299428
    23  C   -0.481616
    24  H    0.157183
    25  H    0.148948
    26  H    0.152211
    27  H    0.152393
    28  H    0.155416
    29  H    0.159915
    30  H    0.161065
    31  C   -0.297798
    32  C   -0.300841
    33  C   -0.475787
    34  H    0.149612
    35  H    0.149814
    36  H    0.153763
    37  H    0.151609
    38  H    0.155165
    39  H    0.155213
    40  H    0.160569
 Sum of Mulliken charges =  -0.00000

 Dipole moment (field-independent basis, Debye):
    X=              0.0476    Y=             -0.0348    Z=              0.0085  Tot=              0.0596
 Quadrupole moment (field-independent basis, Debye-Ang):
   XX=            -86.1796   YY=            -84.8738   ZZ=            -83.8202
   XY=             -1.3317   XZ=             -0.0306   YZ=              0.6552

 Normal termination of Gaussian 16 at Wed May  5 19:59:07 2021.
