 Gaussian 16, Revision A.03,
 Gaussian 16:  EM64L-G16RevA.03 25-Dec-2016

 -------------
 #p 6-31g* mp2
 -------------

 ------------------------------------------------------
 Input file generated by CHIRIPA (05-May-2021 14:53:15)
 ------------------------------------------------------
 Symbolic Z-matrix:
 Charge =  0 Multiplicity = 1

                         Standard orientation:
 ---------------------------------------------------------------------
 Center     Atomic      Atomic             Coordinates (Angstroms)
 Number     Number       Type             X           Y           Z
 ---------------------------------------------------------------------
      1          6           0       -3.823587   -0.481189    0.263858
      2          6           0       -4.470304   -1.679044   -0.432478
      3          6           0       -4.853368   -2.793285    0.541956
      4          1           0       -2.930013   -0.819045    0.806374
      5          1           0       -4.517253   -0.086581    1.019177
      6          1           0       -3.776176   -2.070419   -1.187216
      7          1           0       -5.362334   -1.338264   -0.973557
      8          1           0       -5.564774   -2.424815    1.288102
      9          1           0       -3.969603   -3.161131    1.073229
     10          1           0       -5.313963   -3.639684    0.022994
     11          6           0       -3.435046    0.640988   -0.697122
     12          6           0       -2.788330    1.838844   -0.000785
     13          6           0       -2.405265    2.953084   -0.975220
     14          1           0       -2.741380    0.246381   -1.452440
     15          1           0       -4.328620    0.978845   -1.239638
     16          1           0       -1.896299    1.498063    0.540293
     17          1           0       -3.482457    2.230219    0.753952
     18          1           0       -3.289030    3.320930   -1.506492
     19          1           0       -1.693859    2.584614   -1.721365
     20          1           0       -1.944670    3.799483   -0.456257
     21          6           0        1.553077    0.965650    2.083566
     22          6           0        1.240196    1.312494    0.765110
     23          6           0        1.944089    0.749118   -0.303389
     24          6           0        2.959374   -0.161812   -0.015826
     25          6           0        3.294636   -0.527550    1.286912
     26          6           0        2.577492    0.048352    2.339807
     27          1           0        1.001129    1.408159    2.907542
     28          1           0        0.445118    2.024602    0.563126
     29          1           0        1.722630    0.999836   -1.333688
     30          1           0        4.092437   -1.240336    1.456815
     31          1           0        2.822655   -0.222877    3.362732
     32          7           0        3.711568   -0.764863   -1.138739
     33          8           0        4.601622   -1.564928   -0.858849
     34          8           0        3.396841   -0.426052   -2.277506
 ---------------------------------------------------------------------

 SCF Done:  E(RHF) =  -669.535513637     A.U. after   15 cycles
 E2 =    -0.2091551147D+01 EUMP2 =    -0.67162706478344D+03

 The electronic state is 1-A.
 Alpha  occ. eigenvalues --  -20.60783 -20.60778 -15.85836 -11.31208 -11.27779
 Alpha  occ. eigenvalues --  -11.27773 -11.27517 -11.26790 -11.26748 -11.22442
 Alpha  occ. eigenvalues --  -11.21968 -11.21961 -11.21923 -11.21822 -11.21339
 Alpha  occ. eigenvalues --   -1.59858  -1.39412  -1.19381  -1.08991  -1.08772
 Alpha  occ. eigenvalues --   -1.04785  -1.04112  -0.96549  -0.95607  -0.87562
 Alpha  occ. eigenvalues --   -0.86182  -0.82438  -0.80192  -0.78770  -0.77485
 Alpha  occ. eigenvalues --   -0.72054  -0.71182  -0.70485  -0.65688  -0.65030
 Alpha  occ. eigenvalues --   -0.64763  -0.62215  -0.61419  -0.59940  -0.58151
 Alpha  occ. eigenvalues --   -0.55836  -0.55269  -0.53261  -0.53116  -0.52964
 Alpha  occ. eigenvalues --   -0.52859  -0.50490  -0.48820  -0.48809  -0.48487
 Alpha  occ. eigenvalues --   -0.47216  -0.46312  -0.46207  -0.44816  -0.44343
 Alpha  occ. eigenvalues --   -0.37357  -0.36376
 Alpha virt. eigenvalues --    0.05048   0.11149   0.16498   0.19715   0.22773
 Alpha virt. eigenvalues --    0.23691   0.25939   0.26507   0.26749   0.28259
 Alpha virt. eigenvalues --    0.28892   0.30586   0.31112   0.31375   0.31806

 Mulliken charges:
               1
     1  C   -0.299030
     2  C   -0.300403
     3  C   -0.476064
     4  H    0.149852
     5  H    0.149192
     6  H    0.154463
     7  H    0.152737
     8  H    0.154753
     9  H    0.155477
    10  H    0.162125
    11  C   -0.297978
    12  C   -0.305133
    13  C   -0.479055
    14  H    0.151965
    15  H    0.152206
    16  H    0.145613
    17  H    0.154232
    18  H    0.161984
    19  H    0.154517
    20  H    0.157142
    21  C   -0.172501
    22  C   -0.222509
    23  C   -0.172862
    24  C    0.158632
    25  C   -0.170902
    26  C   -0.218458
    27  H    0.226181
    28  H    0.231794
    29  H    0.275540
    30  H    0.275692
    31  H    0.223522
    32  N    0.488086
    33  O   -0.460377
    34  O   -0.460429
 Sum of Mulliken charges =  -0.00000

 Dipole moment (field-independent basis, Debye):
    X=             -2.7784    Y=              2.0760    Z=              3.9167  Tot=              5.2316
 Quadrupole moment (field-independent basis, Debye-Ang):
   XX=           -108.2025   YY=            -95.2390   ZZ=            -93.3664
   XY=              4.3889   XZ=             14.2429   YZ=             -2.1112

 Normal termination of Gaussian 16 at Thu May  6 07:27:53 2021.
