 Gaussian 16, Revision A.03,
 Gaussian 16:  EM64L-G16RevA.03 25-Dec-2016

 -------------
 #p 6-31g* mp2
 -------------

 ------------------------------------------------------
 Input file generated by CHIRIPA (05-May-2021 14:57:25)
 ------------------------------------------------------
 Symbolic Z-matrix:
 Charge =  0 Multiplicity = 1

                         Standard orientation:
 ---------------------------------------------------------------------
 Center     Atomic      Atomic             Coordinates (Angstroms)
 Number     Number       Type             X           Y           Z
 ---------------------------------------------------------------------
      1          6           0        2.033067   -1.511887   -2.010944
      2          6           0        2.296253   -0.142790   -2.124202
      3          6           0        2.460899    0.645492   -0.981375
      4          6           0        2.355379    0.029118    0.264514
      5          6           0        2.094003   -1.332418    0.410091
      6          6           0        1.932958   -2.101292   -0.746388
      7          1           0        1.906565   -2.116705   -2.904022
      8          1           0        2.374534    0.317644   -3.104975
      9          1           0        2.665394    1.707632   -1.040171
     10          1           0        2.021601   -1.763008    1.401438
     11          1           0        1.728642   -3.164317   -0.655403
     12          7           0        2.527776    0.853364    1.481600
     13          8           0        2.430058    0.286367    2.567695
     14          8           0        2.757354    2.050798    1.326411
     15          6           0       -1.978833    2.443164   -0.950371
     16          6           0       -3.165591    2.116065   -0.286192
     17          6           0       -3.369289    0.824663    0.209119
     18          6           0       -2.360622   -0.119151    0.021774
     19          6           0       -1.167339    0.176059   -0.635655
     20          6           0       -0.985245    1.473826   -1.122678
     21          1           0       -1.828987    3.448829   -1.331920
     22          1           0       -3.938956    2.866835   -0.150926
     23          1           0       -4.278431    0.544357    0.727103
     24          1           0       -0.414666   -0.593749   -0.755226
     25          1           0       -0.062587    1.725018   -1.638090
     26          7           0       -2.564832   -1.489670    0.541751
     27          8           0       -1.660783   -2.303100    0.363809
     28          8           0       -3.625073   -1.724501    1.117407
 ---------------------------------------------------------------------

 SCF Done:  E(RHF) =  -868.336481807     A.U. after   16 cycles
 E2 =    -0.2606366593D+01 EUMP2 =    -0.87094284840005D+03

 The electronic state is 1-A.
 Alpha  occ. eigenvalues --  -20.61175 -20.61146 -20.60878 -20.60827 -15.86222
 Alpha  occ. eigenvalues --  -15.85901 -11.31757 -11.31037 -11.28426 -11.28180
 Alpha  occ. eigenvalues --  -11.28060 -11.27630 -11.27489 -11.27462 -11.27342
 Alpha  occ. eigenvalues --  -11.27177 -11.26597 -11.26518  -1.60233  -1.59926
 Alpha  occ. eigenvalues --   -1.39781  -1.39490  -1.20027  -1.19206  -1.09318
 Alpha  occ. eigenvalues --   -1.08659  -1.05392  -1.04588  -0.96114  -0.95526
 Alpha  occ. eigenvalues --   -0.86721  -0.86016  -0.82912  -0.82380  -0.77954
 Alpha  occ. eigenvalues --   -0.77462  -0.72431  -0.72148  -0.71572  -0.71238
 Alpha  occ. eigenvalues --   -0.71003  -0.70358  -0.65579  -0.65283  -0.64880
 Alpha  occ. eigenvalues --   -0.64645  -0.62679  -0.62107  -0.55793  -0.55282
 Alpha  occ. eigenvalues --   -0.53541  -0.53372  -0.52908  -0.52531  -0.49208
 Alpha  occ. eigenvalues --   -0.49175  -0.48898  -0.48859  -0.45148  -0.44947
 Alpha  occ. eigenvalues --   -0.38171  -0.37240  -0.36914  -0.36009
 Alpha virt. eigenvalues --    0.04509   0.05097   0.10336   0.11701   0.15850
 Alpha virt. eigenvalues --    0.16675   0.20600   0.22161   0.26137   0.27756
 Alpha virt. eigenvalues --    0.28590   0.29140   0.30628   0.31531   0.32304

 Mulliken charges:
               1
     1  C   -0.177657
     2  C   -0.223452
     3  C   -0.184719
     4  C    0.162572
     5  C   -0.170893
     6  C   -0.216896
     7  H    0.231193
     8  H    0.224465
     9  H    0.274343
    10  H    0.284503
    11  H    0.237260
    12  N    0.489048
    13  O   -0.454692
    14  O   -0.462373
    15  C   -0.168237
    16  C   -0.219307
    17  C   -0.169061
    18  C    0.153940
    19  C   -0.177883
    20  C   -0.222329
    21  H    0.225341
    22  H    0.223344
    23  H    0.275083
    24  H    0.288035
    25  H    0.218203
    26  N    0.488463
    27  O   -0.469621
    28  O   -0.458672
 Sum of Mulliken charges =  -0.00000

 Dipole moment (field-independent basis, Debye):
    X=              0.3197    Y=              1.6336    Z=             -5.9283  Tot=              6.1575
 Quadrupole moment (field-independent basis, Debye-Ang):
   XX=           -107.6305   YY=           -102.7569   ZZ=           -106.0151
   XY=            -19.9550   XZ=             -8.1290   YZ=             -2.4730

 Normal termination of Gaussian 16 at Wed May  5 19:31:09 2021.
