 Gaussian 16, Revision A.03,
 Gaussian 16:  EM64L-G16RevA.03 25-Dec-2016

 -------------
 #p 6-31g* mp2
 -------------

 ------------------------------------------------------
 Input file generated by CHIRIPA (05-May-2021 14:53:13)
 ------------------------------------------------------
 Symbolic Z-matrix:
 Charge =  0 Multiplicity = 1

                         Standard orientation:
 ---------------------------------------------------------------------
 Center     Atomic      Atomic             Coordinates (Angstroms)
 Number     Number       Type             X           Y           Z
 ---------------------------------------------------------------------
      1          6           0       -3.289821    0.997673    0.104707
      2          6           0       -2.578965    1.656391   -1.077984
      3          6           0       -2.581884    3.183049   -0.993716
      4          1           0       -4.325303    1.361789    0.150984
      5          1           0       -2.804816    1.315226    1.038155
      6          1           0       -3.064297    1.336600   -2.009006
      7          1           0       -1.545111    1.290519   -1.121566
      8          1           0       -2.079589    3.519450   -0.080953
      9          1           0       -3.607407    3.565793   -0.973436
     10          1           0       -2.068568    3.633321   -1.849065
     11          6           0       -3.295232   -0.528368    0.034729
     12          6           0       -4.006089   -1.187086    1.217421
     13          6           0       -4.003170   -2.713744    1.133152
     14          1           0       -3.780238   -0.845921   -0.898718
     15          1           0       -2.259750   -0.892485   -0.011547
     16          1           0       -5.039943   -0.821214    1.261002
     17          1           0       -3.520757   -0.867295    2.148443
     18          1           0       -2.977647   -3.096488    1.112872
     19          1           0       -4.505464   -3.050145    0.220389
     20          1           0       -4.516485   -3.164016    1.988501
     21          6           0        3.230048    1.815007    1.338354
     22          6           0        2.047072    1.840496    0.592406
     23          6           0        1.672702    0.738997   -0.182898
     24          6           0        2.508696   -0.376513   -0.189121
     25          6           0        3.693505   -0.432301    0.543278
     26          6           0        4.048047    0.680690    1.311457
     27          1           0        3.513166    2.675141    1.937862
     28          1           0        1.409861    2.720067    0.611392
     29          1           0        0.762335    0.731913   -0.769924
     30          1           0        4.308240   -1.323367    0.504298
     31          1           0        4.967332    0.658084    1.889771
     32          7           0        2.122864   -1.548703   -1.006128
     33          8           0        2.876656   -2.519426   -0.994680
     34          8           0        1.073962   -1.474548   -1.642479
 ---------------------------------------------------------------------

 SCF Done:  E(RHF) =  -669.535617518     A.U. after   15 cycles
 E2 =    -0.2091633230D+01 EUMP2 =    -0.67162725074786D+03

 The electronic state is 1-A.
 Alpha  occ. eigenvalues --  -20.60817 -20.60811 -15.85863 -11.31218 -11.27787
 Alpha  occ. eigenvalues --  -11.27776 -11.27530 -11.26804 -11.26792 -11.21927
 Alpha  occ. eigenvalues --  -11.21519 -11.21500 -11.21424 -11.21171 -11.20762
 Alpha  occ. eigenvalues --   -1.59888  -1.39441  -1.19392  -1.08789  -1.08457
 Alpha  occ. eigenvalues --   -1.04795  -1.03586  -0.96020  -0.95626  -0.87036
 Alpha  occ. eigenvalues --   -0.86194  -0.82456  -0.79670  -0.78209  -0.77502
 Alpha  occ. eigenvalues --   -0.72081  -0.71209  -0.70511  -0.65144  -0.65041
 Alpha  occ. eigenvalues --   -0.64775  -0.62174  -0.60968  -0.59412  -0.57613
 Alpha  occ. eigenvalues --   -0.55336  -0.55274  -0.53124  -0.52909  -0.52734
 Alpha  occ. eigenvalues --   -0.52423  -0.49962  -0.48840  -0.48839  -0.47963
 Alpha  occ. eigenvalues --   -0.46718  -0.45750  -0.45658  -0.44839  -0.43812
 Alpha  occ. eigenvalues --   -0.37374  -0.36396
 Alpha virt. eigenvalues --    0.05013   0.11239   0.16513   0.19433   0.23064
 Alpha virt. eigenvalues --    0.24069   0.25158   0.26605   0.27568   0.28269
 Alpha virt. eigenvalues --    0.29295   0.30656   0.31488   0.31718   0.32320

 Mulliken charges:
               1
     1  C   -0.298059
     2  C   -0.304972
     3  C   -0.476310
     4  H    0.150423
     5  H    0.145582
     6  H    0.158750
     7  H    0.148872
     8  H    0.148272
     9  H    0.158980
    10  H    0.160501
    11  C   -0.300848
    12  C   -0.299755
    13  C   -0.476086
    14  H    0.152379
    15  H    0.157616
    16  H    0.150425
    17  H    0.149585
    18  H    0.159495
    19  H    0.156527
    20  H    0.158663
    21  C   -0.170597
    22  C   -0.223075
    23  C   -0.182275
    24  C    0.158624
    25  C   -0.169953
    26  C   -0.218972
    27  H    0.225826
    28  H    0.224415
    29  H    0.290775
    30  H    0.275725
    31  H    0.223616
    32  N    0.486536
    33  O   -0.459899
    34  O   -0.460784
 Sum of Mulliken charges =  -0.00000

 Dipole moment (field-independent basis, Debye):
    X=              1.3044    Y=              4.0322    Z=              2.8171  Tot=              5.0888
 Quadrupole moment (field-independent basis, Debye-Ang):
   XX=            -83.6079   YY=            -98.5361   ZZ=            -95.8949
   XY=              7.6834   XZ=              9.3760   YZ=             -2.5484

 Normal termination of Gaussian 16 at Thu May  6 15:23:37 2021.
