 Gaussian 16, Revision A.03,
 Gaussian 16:  EM64L-G16RevA.03 25-Dec-2016

 -------------
 #p 6-31g* mp2
 -------------

 ------------------------------------------------------
 Input file generated by CHIRIPA (05-May-2021 14:55:21)
 ------------------------------------------------------
 Symbolic Z-matrix:
 Charge =  0 Multiplicity = 1

                         Standard orientation:
 ---------------------------------------------------------------------
 Center     Atomic      Atomic             Coordinates (Angstroms)
 Number     Number       Type             X           Y           Z
 ---------------------------------------------------------------------
      1          6           0       -1.675216    1.650838    1.258947
      2          6           0       -2.582238    2.039147    0.267460
      3          6           0       -3.457305    1.107297   -0.298632
      4          6           0       -3.397955   -0.210384    0.152461
      5          6           0       -2.505564   -0.628059    1.138603
      6          6           0       -1.639836    0.320819    1.690593
      7          1           0       -0.999070    2.381336    1.693223
      8          1           0       -2.611944    3.071369   -0.069708
      9          1           0       -4.169461    1.380742   -1.067710
     10          1           0       -2.499439   -1.664289    1.454210
     11          1           0       -0.936475    0.016405    2.460437
     12          7           0       -4.319406   -1.205906   -0.439370
     13          8           0       -4.247290   -2.360653   -0.024649
     14          8           0       -5.096308   -0.812597   -1.306762
     15          6           0        3.458039    0.297114   -0.117227
     16          6           0        2.642714    0.851641   -1.285871
     17          6           0        1.250753    1.323403   -0.864352
     18          1           0        2.909626   -0.537348    0.340879
     19          1           0        3.551118    1.072054    0.656207
     20          1           0        2.552376    0.076344   -2.057472
     21          1           0        3.193220    1.684757   -1.741367
     22          1           0        1.323825    2.114692   -0.111276
     23          1           0        0.679340    0.497139   -0.429177
     24          1           0        0.685168    1.715961   -1.715159
     25          6           0        4.851950   -0.178560   -0.522780
     26          6           0        5.667274   -0.733089    0.645865
     27          6           0        7.059236   -1.204850    0.224346
     28          1           0        4.758869   -0.953502   -1.296213
     29          1           0        5.400363    0.655902   -0.980885
     30          1           0        5.116768   -1.566204    1.101361
     31          1           0        5.757612    0.042210    1.417465
     32          1           0        7.630648   -0.378586   -0.210830
     33          1           0        6.986162   -1.996139   -0.528730
     34          1           0        7.624820   -1.597407    1.075153
 ---------------------------------------------------------------------

 SCF Done:  E(RHF) =  -669.535162530     A.U. after   15 cycles
 E2 =    -0.2091980262D+01 EUMP2 =    -0.67162714279220D+03

 The electronic state is 1-A.
 Alpha  occ. eigenvalues --  -20.60753 -20.60748 -15.85809 -11.31164 -11.27761
 Alpha  occ. eigenvalues --  -11.27750 -11.27482 -11.26745 -11.26735 -11.21995
 Alpha  occ. eigenvalues --  -11.21942 -11.21845 -11.21725 -11.21526 -11.21343
 Alpha  occ. eigenvalues --   -1.59830  -1.39383  -1.19352  -1.08831  -1.08737
 Alpha  occ. eigenvalues --   -1.04757  -1.03909  -0.96372  -0.95573  -0.87387
 Alpha  occ. eigenvalues --   -0.86151  -0.82410  -0.79979  -0.78645  -0.77457
 Alpha  occ. eigenvalues --   -0.72027  -0.71154  -0.70458  -0.65453  -0.65003
 Alpha  occ. eigenvalues --   -0.64755  -0.62104  -0.61307  -0.59733  -0.57993
 Alpha  occ. eigenvalues --   -0.55693  -0.55238  -0.53416  -0.52982  -0.52846
 Alpha  occ. eigenvalues --   -0.52545  -0.50295  -0.48785  -0.48781  -0.48288
 Alpha  occ. eigenvalues --   -0.47004  -0.46185  -0.46107  -0.44792  -0.44170
 Alpha  occ. eigenvalues --   -0.37243  -0.36355
 Alpha virt. eigenvalues --    0.05075   0.11248   0.16526   0.20952   0.22575
 Alpha virt. eigenvalues --    0.24001   0.25993   0.26788   0.27172   0.27476
 Alpha virt. eigenvalues --    0.28654   0.30260   0.31372   0.31612   0.32041

 Mulliken charges:
               1
     1  C   -0.163221
     2  C   -0.218728
     3  C   -0.170649
     4  C    0.158302
     5  C   -0.171722
     6  C   -0.220689
     7  H    0.226089
     8  H    0.223473
     9  H    0.275570
    10  H    0.275487
    11  H    0.223729
    12  N    0.488135
    13  O   -0.460716
    14  O   -0.460552
    15  C   -0.297946
    16  C   -0.300732
    17  C   -0.476504
    18  H    0.148105
    19  H    0.146345
    20  H    0.154920
    21  H    0.151909
    22  H    0.143925
    23  H    0.161432
    24  H    0.161151
    25  C   -0.298426
    26  C   -0.299779
    27  C   -0.475912
    28  H    0.151404
    29  H    0.150308
    30  H    0.151708
    31  H    0.150883
    32  H    0.155565
    33  H    0.156324
    34  H    0.160811
 Sum of Mulliken charges =  -0.00000

 Dipole moment (field-independent basis, Debye):
    X=              3.2623    Y=              3.4958    Z=              2.0631  Tot=              5.2076
 Quadrupole moment (field-independent basis, Debye-Ang):
   XX=           -117.6158   YY=            -93.3920   ZZ=            -92.8583
   XY=            -13.7929   XZ=             -5.2012   YZ=             -2.1377

 Normal termination of Gaussian 16 at Thu May  6 10:53:17 2021.
