 Gaussian 16, Revision A.03,
 Gaussian 16:  EM64L-G16RevA.03 25-Dec-2016

 -------------
 #p 6-31g* mp2
 -------------

 ------------------------------------------------------
 Input file generated by CHIRIPA (05-May-2021 14:55:20)
 ------------------------------------------------------
 Symbolic Z-matrix:
 Charge =  0 Multiplicity = 1

                         Standard orientation:
 ---------------------------------------------------------------------
 Center     Atomic      Atomic             Coordinates (Angstroms)
 Number     Number       Type             X           Y           Z
 ---------------------------------------------------------------------
      1          6           0       -4.074536    1.811309    0.965477
      2          6           0       -3.033958    2.253650    0.142038
      3          6           0       -2.275741    1.340309   -0.596518
      4          6           0       -2.586858   -0.014158   -0.487373
      5          6           0       -3.617351   -0.485911    0.324307
      6          6           0       -4.362404    0.445348    1.053828
      7          1           0       -4.658425    2.527773    1.535695
      8          1           0       -2.808148    3.313874    0.071470
      9          1           0       -1.464636    1.655369   -1.241703
     10          1           0       -3.818761   -1.549102    0.374070
     11          1           0       -5.169952    0.098950    1.692513
     12          7           0       -1.791136   -0.990556   -1.264466
     13          8           0       -2.085230   -2.178519   -1.150932
     14          8           0       -0.888421   -0.549405   -1.972372
     15          6           0        3.052483   -0.428996    1.045845
     16          6           0        1.880940   -1.314105    0.619165
     17          6           0        1.036919   -1.788618    1.802491
     18          1           0        3.686087   -0.984849    1.750486
     19          1           0        2.665026    0.441298    1.593441
     20          1           0        2.270392   -2.181762    0.071336
     21          1           0        1.250156   -0.756148   -0.084690
     22          1           0        0.620939   -0.934228    2.346164
     23          1           0        1.646972   -2.367942    2.503077
     24          1           0        0.205033   -2.419822    1.474762
     25          6           0        3.905605    0.053281   -0.126041
     26          6           0        5.077147    0.938391    0.300639
     27          6           0        5.921168    1.412903   -0.882687
     28          1           0        4.293060   -0.817013   -0.673637
     29          1           0        3.272000    0.609134   -0.830681
     30          1           0        5.707931    0.380433    1.004494
     31          1           0        4.687694    1.806046    0.848467
     32          1           0        5.311115    1.992226   -1.583272
     33          1           0        6.337148    0.558513   -1.426359
     34          1           0        6.753054    2.044108   -0.554958
 ---------------------------------------------------------------------

 SCF Done:  E(RHF) =  -669.536386710     A.U. after   15 cycles
 E2 =    -0.2091768717D+01 EUMP2 =    -0.67162815542767D+03

 The electronic state is 1-A.
 Alpha  occ. eigenvalues --  -20.60975 -20.60969 -15.85983 -11.31290 -11.27855
 Alpha  occ. eigenvalues --  -11.27845 -11.27586 -11.26857 -11.26846 -11.21187
 Alpha  occ. eigenvalues --  -11.20811 -11.20751 -11.20710 -11.20648 -11.20409
 Alpha  occ. eigenvalues --   -1.60019  -1.39579  -1.19456  -1.08863  -1.07826
 Alpha  occ. eigenvalues --   -1.04851  -1.02937  -0.95709  -0.95424  -0.86442
 Alpha  occ. eigenvalues --   -0.86253  -0.82545  -0.78992  -0.77629  -0.77578
 Alpha  occ. eigenvalues --   -0.72209  -0.71331  -0.70568  -0.65114  -0.64856
 Alpha  occ. eigenvalues --   -0.64465  -0.62201  -0.60344  -0.58775  -0.57001
 Alpha  occ. eigenvalues --   -0.55357  -0.54736  -0.53181  -0.52945  -0.52114
 Alpha  occ. eigenvalues --   -0.51841  -0.49390  -0.48979  -0.48966  -0.47333
 Alpha  occ. eigenvalues --   -0.46090  -0.45362  -0.45130  -0.44600  -0.43179
 Alpha  occ. eigenvalues --   -0.37430  -0.36450
 Alpha virt. eigenvalues --    0.04899   0.11194   0.16356   0.21305   0.23387
 Alpha virt. eigenvalues --    0.24740   0.27093   0.27326   0.27865   0.28436
 Alpha virt. eigenvalues --    0.28531   0.30835   0.31830   0.32145   0.32506

 Mulliken charges:
               1
     1  C   -0.170549
     2  C   -0.218547
     3  C   -0.171341
     4  C    0.159066
     5  C   -0.170426
     6  C   -0.218488
     7  H    0.226010
     8  H    0.223743
     9  H    0.275385
    10  H    0.275857
    11  H    0.223911
    12  N    0.488418
    13  O   -0.458631
    14  O   -0.458370
    15  C   -0.297692
    16  C   -0.305449
    17  C   -0.480617
    18  H    0.146987
    19  H    0.143988
    20  H    0.155613
    21  H    0.164523
    22  H    0.148229
    23  H    0.152732
    24  H    0.166190
    25  C   -0.297938
    26  C   -0.299025
    27  C   -0.475204
    28  H    0.151243
    29  H    0.151905
    30  H    0.150881
    31  H    0.148853
    32  H    0.154694
    33  H    0.155947
    34  H    0.158103
 Sum of Mulliken charges =  -0.00000

 Dipole moment (field-independent basis, Debye):
    X=             -2.9939    Y=              3.3755    Z=              2.5865  Tot=              5.2007
 Quadrupole moment (field-independent basis, Debye-Ang):
   XX=            -79.7336   YY=            -91.7397   ZZ=            -98.2635
   XY=             -7.6729   XZ=             -6.8527   YZ=             -2.9180

 Normal termination of Gaussian 16 at Thu May  6 07:43:19 2021.
