 Gaussian 16, Revision A.03,
 Gaussian 16:  EM64L-G16RevA.03 25-Dec-2016

 -------------
 #p 6-31g* mp2
 -------------

 ------------------------------------------------------
 Input file generated by CHIRIPA (05-May-2021 14:57:22)
 ------------------------------------------------------
 Symbolic Z-matrix:
 Charge =  0 Multiplicity = 1

                         Standard orientation:
 ---------------------------------------------------------------------
 Center     Atomic      Atomic             Coordinates (Angstroms)
 Number     Number       Type             X           Y           Z
 ---------------------------------------------------------------------
      1          6           0       -1.245803   -1.049080    1.679387
      2          6           0       -2.305055   -1.823291    1.194515
      3          6           0       -3.269194   -1.260070    0.353226
      4          6           0       -3.142717    0.086498    0.015516
      5          6           0       -2.098975    0.883950    0.482381
      6          6           0       -1.146319    0.299692    1.322402
      7          1           0       -0.501296   -1.494775    2.332428
      8          1           0       -2.384846   -2.871020    1.470092
      9          1           0       -4.099484   -1.836421   -0.036463
     10          1           0       -2.046099    1.925695    0.190165
     11          1           0       -0.324763    0.903367    1.697460
     12          7           0       -4.157330    0.693891   -0.874448
     13          8           0       -4.023393    1.882484   -1.157191
     14          8           0       -5.067308   -0.030129   -1.272406
     15          6           0        3.156061    2.400152    0.636383
     16          6           0        2.476100    1.452995    1.409082
     17          6           0        2.369811    0.127820    0.976456
     18          6           0        2.958040   -0.217115   -0.239396
     19          6           0        3.642024    0.703546   -1.031759
     20          6           0        3.735831    2.023070   -0.579429
     21          1           0        3.233781    3.427386    0.980110
     22          1           0        2.024865    1.742996    2.353715
     23          1           0        1.849163   -0.625747    1.554798
     24          1           0        4.081517    0.384479   -1.969022
     25          1           0        4.264501    2.756517   -1.181599
     26          7           0        2.852124   -1.617026   -0.707828
     27          8           0        3.379069   -1.895605   -1.782705
     28          8           0        2.244167   -2.409191    0.008761
 ---------------------------------------------------------------------

 SCF Done:  E(RHF) =  -868.335467587     A.U. after   16 cycles
 E2 =    -0.2602713796D+01 EUMP2 =    -0.87093818138324D+03

 The electronic state is 1-A.
 Alpha  occ. eigenvalues --  -20.61475 -20.61449 -20.60749 -20.60734 -15.86524
 Alpha  occ. eigenvalues --  -15.85797 -11.31983 -11.31160 -11.28713 -11.28523
 Alpha  occ. eigenvalues --  -11.28327 -11.27771 -11.27694 -11.27680 -11.27511
 Alpha  occ. eigenvalues --  -11.27506 -11.26800 -11.26684  -1.60530  -1.59818
 Alpha  occ. eigenvalues --   -1.40085  -1.39373  -1.20191  -1.19336  -1.09543
 Alpha  occ. eigenvalues --   -1.08749  -1.05655  -1.04735  -0.96372  -0.95578
 Alpha  occ. eigenvalues --   -0.87014  -0.86178  -0.83233  -0.82407  -0.78290
 Alpha  occ. eigenvalues --   -0.77439  -0.72751  -0.72024  -0.71846  -0.71325
 Alpha  occ. eigenvalues --   -0.71139  -0.70459  -0.65881  -0.65656  -0.65008
 Alpha  occ. eigenvalues --   -0.64838  -0.62978  -0.62043  -0.56084  -0.55314
 Alpha  occ. eigenvalues --   -0.53994  -0.53746  -0.53008  -0.52764  -0.49512
 Alpha  occ. eigenvalues --   -0.49488  -0.48777  -0.48771  -0.45470  -0.44779
 Alpha  occ. eigenvalues --   -0.38152  -0.37570  -0.37023  -0.36198
 Alpha virt. eigenvalues --    0.04290   0.05079   0.10172   0.11491   0.15581
 Alpha virt. eigenvalues --    0.16504   0.19029   0.22311   0.25465   0.25803
 Alpha virt. eigenvalues --    0.27851   0.29182   0.30438   0.31363   0.33062

 Mulliken charges:
               1
     1  C   -0.169847
     2  C   -0.215491
     3  C   -0.170558
     4  C    0.158949
     5  C   -0.173564
     6  C   -0.217775
     7  H    0.224068
     8  H    0.227475
     9  H    0.276671
    10  H    0.273636
    11  H    0.216568
    12  N    0.488191
    13  O   -0.461976
    14  O   -0.459291
    15  C   -0.169967
    16  C   -0.227392
    17  C   -0.166209
    18  C    0.158146
    19  C   -0.168157
    20  C   -0.218384
    21  H    0.229021
    22  H    0.219763
    23  H    0.270672
    24  H    0.279200
    25  H    0.227594
    26  N    0.488721
    27  O   -0.456012
    28  O   -0.464051
 Sum of Mulliken charges =  -0.00000

 Dipole moment (field-independent basis, Debye):
    X=              4.1064    Y=              2.6997    Z=              4.5282  Tot=              6.6825
 Quadrupole moment (field-independent basis, Debye-Ang):
   XX=           -122.7434   YY=           -103.5344   ZZ=           -103.3535
   XY=             25.5119   XZ=             -7.8648   YZ=             -2.3315

 Normal termination of Gaussian 16 at Thu May  6 03:22:04 2021.
