 Gaussian 16, Revision A.03,
 Gaussian 16:  EM64L-G16RevA.03 25-Dec-2016

 -------------
 #p 6-31g* mp2
 -------------

 ------------------------------------------------------
 Input file generated by CHIRIPA (05-May-2021 14:57:23)
 ------------------------------------------------------
 Symbolic Z-matrix:
 Charge =  0 Multiplicity = 1

                         Standard orientation:
 ---------------------------------------------------------------------
 Center     Atomic      Atomic             Coordinates (Angstroms)
 Number     Number       Type             X           Y           Z
 ---------------------------------------------------------------------
      1          6           0        1.458428    0.660528   -0.862848
      2          6           0        1.846290   -0.628107   -0.481397
      3          6           0        3.149083   -0.875614   -0.038657
      4          6           0        4.042203    0.193606    0.010297
      5          6           0        3.685923    1.488608   -0.362963
      6          6           0        2.377862    1.712917   -0.802521
      7          1           0        0.444341    0.843786   -1.205543
      8          1           0        1.134367   -1.447321   -0.527217
      9          1           0        3.475960   -1.863434    0.262640
     10          1           0        4.417954    2.285070   -0.306420
     11          1           0        2.079433    2.714715   -1.098133
     12          7           0        5.424200   -0.056139    0.477321
     13          8           0        6.192170    0.902874    0.511274
     14          8           0        5.713272   -1.206174    0.800577
     15          6           0       -5.722098    1.272081    0.742059
     16          6           0       -5.456792    1.042789   -0.612030
     17          6           0       -4.402399    0.209738   -0.997812
     18          6           0       -3.630007   -0.380443    0.001381
     19          6           0       -3.869259   -0.171536    1.358733
     20          6           0       -4.928884    0.665256    1.721393
     21          1           0       -6.543209    1.920668    1.032763
     22          1           0       -6.071158    1.512725   -1.374764
     23          1           0       -4.174879    0.014986   -2.038833
     24          1           0       -3.239376   -0.654037    2.096201
     25          1           0       -5.132604    0.841520    2.773759
     26          7           0       -2.510999   -1.264338   -0.394791
     27          8           0       -1.845255   -1.772429    0.504801
     28          8           0       -2.320853   -1.432306   -1.597399
 ---------------------------------------------------------------------

 SCF Done:  E(RHF) =  -868.340447331     A.U. after   16 cycles
 E2 =    -0.2598785309D+01 EUMP2 =    -0.87093923263959D+03

 The electronic state is 1-A.
 Alpha  occ. eigenvalues --  -20.62060 -20.62038 -20.60091 -20.60079 -15.87050
 Alpha  occ. eigenvalues --  -15.85130 -11.32105 -11.30329 -11.28639 -11.28613
 Alpha  occ. eigenvalues --  -11.28301 -11.27567 -11.27545 -11.26908 -11.26760
 Alpha  occ. eigenvalues --  -11.26509 -11.25931 -11.25580  -1.61120  -1.59166
 Alpha  occ. eigenvalues --   -1.40671  -1.38724  -1.20246  -1.18455  -1.09699
 Alpha  occ. eigenvalues --   -1.07875  -1.05592  -1.03810  -0.96581  -0.94751
 Alpha  occ. eigenvalues --   -0.87003  -0.85204  -0.83415  -0.81576  -0.78504
 Alpha  occ. eigenvalues --   -0.76650  -0.73260  -0.72437  -0.71353  -0.71334
 Alpha  occ. eigenvalues --   -0.70487  -0.69558  -0.65891  -0.65582  -0.64092
 Alpha  occ. eigenvalues --   -0.63758  -0.62936  -0.61139  -0.56095  -0.54312
 Alpha  occ. eigenvalues --   -0.53947  -0.53670  -0.52180  -0.51871  -0.50041
 Alpha  occ. eigenvalues --   -0.50004  -0.48119  -0.48090  -0.46130  -0.44167
 Alpha  occ. eigenvalues --   -0.38208  -0.37182  -0.36433  -0.35411
 Alpha virt. eigenvalues --    0.03970   0.05839   0.10476   0.12241   0.15532
 Alpha virt. eigenvalues --    0.17397   0.20677   0.22411   0.26625   0.27520
 Alpha virt. eigenvalues --    0.28481   0.28948   0.30383   0.31690   0.32115

 Mulliken charges:
               1
     1  C   -0.173325
     2  C   -0.222292
     3  C   -0.173693
     4  C    0.158315
     5  C   -0.173572
     6  C   -0.218994
     7  H    0.224497
     8  H    0.246964
     9  H    0.274935
    10  H    0.271790
    11  H    0.218282
    12  N    0.488064
    13  O   -0.463653
    14  O   -0.461379
    15  C   -0.169571
    16  C   -0.218661
    17  C   -0.171939
    18  C    0.155887
    19  C   -0.170384
    20  C   -0.218587
    21  H    0.228829
    22  H    0.225991
    23  H    0.275860
    24  H    0.277520
    25  H    0.226778
    26  N    0.486498
    27  O   -0.461495
    28  O   -0.462664
 Sum of Mulliken charges =  -0.00000

 Dipole moment (field-independent basis, Debye):
    X=             -9.3758    Y=              3.8663    Z=             -0.1851  Tot=             10.1433
 Quadrupole moment (field-independent basis, Debye-Ang):
   XX=           -116.2588   YY=           -102.9312   ZZ=           -100.8351
   XY=             -7.1543   XZ=            -11.1550   YZ=             -2.3296

 Normal termination of Gaussian 16 at Fri May  7 00:17:42 2021.
