 Gaussian 16, Revision A.03,
 Gaussian 16:  EM64L-G16RevA.03 25-Dec-2016

 -------------
 #p 6-31g* mp2
 -------------

 ------------------------------------------------------
 Input file generated by CHIRIPA (05-May-2021 14:53:12)
 ------------------------------------------------------
 Symbolic Z-matrix:
 Charge =  0 Multiplicity = 1

                         Standard orientation:
 ---------------------------------------------------------------------
 Center     Atomic      Atomic             Coordinates (Angstroms)
 Number     Number       Type             X           Y           Z
 ---------------------------------------------------------------------
      1          6           0       -3.443527   -0.090932    0.276016
      2          6           0       -3.258287   -1.445713   -0.408265
      3          6           0       -3.873706   -2.598209    0.385968
      4          1           0       -2.994200   -0.128816    1.277822
      5          1           0       -4.516703    0.094790    0.421605
      6          1           0       -2.185840   -1.628201   -0.553770
      7          1           0       -3.707939   -1.404540   -1.408632
      8          1           0       -4.949199   -2.442990    0.519468
      9          1           0       -3.418451   -2.667922    1.379188
     10          1           0       -3.729736   -3.557278   -0.121298
     11          6           0       -2.833629    1.071127   -0.505886
     12          6           0       -3.018869    2.425907    0.178396
     13          6           0       -2.403450    3.578403   -0.615838
     14          1           0       -1.760453    0.885404   -0.651475
     15          1           0       -3.282956    1.109010   -1.507691
     16          1           0       -2.569217    2.384734    1.178762
     17          1           0       -4.091316    2.608395    0.323900
     18          1           0       -2.858705    3.648116   -1.609057
     19          1           0       -1.327957    3.423184   -0.749338
     20          1           0       -2.547420    4.537472   -0.108572
     21          6           0        4.288132    1.347241    0.125100
     22          6           0        3.221043    1.440523    1.024621
     23          6           0        2.198151    0.487564    1.014069
     24          6           0        2.274505   -0.550151    0.086379
     25          6           0        3.324561   -0.670370   -0.822586
     26          6           0        4.336401    0.293950   -0.794013
     27          1           0        5.078445    2.091936    0.140297
     28          1           0        3.180942    2.257440    1.739522
     29          1           0        1.360476    0.535707    1.699198
     30          1           0        3.336991   -1.496122   -1.523584
     31          1           0        5.163904    0.218984   -1.493772
     32          7           0        1.197466   -1.565019    0.065669
     33          8           0        1.287989   -2.469616   -0.761463
     34          8           0        0.283153   -1.436659    0.876960
 ---------------------------------------------------------------------

 SCF Done:  E(RHF) =  -669.536663782     A.U. after   15 cycles
 E2 =    -0.2091860564D+01 EUMP2 =    -0.67162852434600D+03

 The electronic state is 1-A.
 Alpha  occ. eigenvalues --  -20.61097 -20.61085 -15.86102 -11.31377 -11.27932
 Alpha  occ. eigenvalues --  -11.27925 -11.27656 -11.26924 -11.26914 -11.21149
 Alpha  occ. eigenvalues --  -11.20831 -11.20626 -11.20282 -11.20069 -11.19715
 Alpha  occ. eigenvalues --   -1.60139  -1.39696  -1.19537  -1.08951  -1.07519
 Alpha  occ. eigenvalues --   -1.04924  -1.02604  -0.95799  -0.95105  -0.86327
 Alpha  occ. eigenvalues --   -0.86133  -0.82634  -0.78746  -0.77695  -0.77243
 Alpha  occ. eigenvalues --   -0.72321  -0.71450  -0.70643  -0.65195  -0.64926
 Alpha  occ. eigenvalues --   -0.64132  -0.62272  -0.59979  -0.58546  -0.56685
 Alpha  occ. eigenvalues --   -0.55429  -0.54397  -0.53258  -0.53014  -0.51839
 Alpha  occ. eigenvalues --   -0.51529  -0.49191  -0.49079  -0.48986  -0.47044
 Alpha  occ. eigenvalues --   -0.45771  -0.45257  -0.44788  -0.44451  -0.42865
 Alpha  occ. eigenvalues --   -0.37510  -0.36522
 Alpha virt. eigenvalues --    0.04795   0.11121   0.16284   0.21192   0.23526
 Alpha virt. eigenvalues --    0.25281   0.26969   0.27400   0.28330   0.28395
 Alpha virt. eigenvalues --    0.28822   0.30996   0.32234   0.32388   0.32600

 Mulliken charges:
               1
     1  C   -0.296085
     2  C   -0.305577
     3  C   -0.474478
     4  H    0.153181
     5  H    0.143362
     6  H    0.175642
     7  H    0.143275
     8  H    0.146926
     9  H    0.159246
    10  H    0.159548
    11  C   -0.297295
    12  C   -0.298621
    13  C   -0.474806
    14  H    0.148575
    15  H    0.147205
    16  H    0.148541
    17  H    0.151427
    18  H    0.155455
    19  H    0.151212
    20  H    0.157177
    21  C   -0.170351
    22  C   -0.218474
    23  C   -0.171075
    24  C    0.158462
    25  C   -0.170605
    26  C   -0.218531
    27  H    0.226432
    28  H    0.224329
    29  H    0.275734
    30  H    0.276102
    31  H    0.224195
    32  N    0.488172
    33  O   -0.458069
    34  O   -0.460230
 Sum of Mulliken charges =  -0.00000

 Dipole moment (field-independent basis, Debye):
    X=              4.1273    Y=              3.4123    Z=              0.1048  Tot=              5.3563
 Quadrupole moment (field-independent basis, Debye-Ang):
   XX=            -77.2249   YY=            -99.3473   ZZ=            -92.3274
   XY=              4.6353   XZ=             -1.0651   YZ=              2.7699

 Normal termination of Gaussian 16 at Wed May  5 21:45:19 2021.
