 Gaussian 16, Revision A.03,
 Gaussian 16:  EM64L-G16RevA.03 25-Dec-2016

 -------------
 #p 6-31g* mp2
 -------------

 ------------------------------------------------------
 Input file generated by CHIRIPA (05-May-2021 14:51:09)
 ------------------------------------------------------
 Symbolic Z-matrix:
 Charge =  0 Multiplicity = 1

                         Standard orientation:
 ---------------------------------------------------------------------
 Center     Atomic      Atomic             Coordinates (Angstroms)
 Number     Number       Type             X           Y           Z
 ---------------------------------------------------------------------
      1          6           0       -3.106214   -0.381655   -0.152828
      2          6           0       -2.125590   -0.946426    0.875469
      3          6           0       -0.678484   -0.932693    0.382020
      4          1           0       -3.028578   -0.962853   -1.081875
      5          1           0       -2.812706    0.647393   -0.402442
      6          1           0       -2.421668   -1.973623    1.124102
      7          1           0       -2.205707   -0.363937    1.802239
      8          1           0       -0.359582    0.089067    0.152001
      9          1           0       -0.576771   -1.529765   -0.529989
     10          1           0        0.005538   -1.340708    1.132685
     11          6           0       -4.556901   -0.388709    0.325905
     12          6           0       -5.537525    0.176062   -0.702392
     13          6           0       -6.984631    0.162329   -0.208944
     14          1           0       -4.850409   -1.417757    0.575519
     15          1           0       -4.634537    0.192489    1.254951
     16          1           0       -5.457408   -0.406427   -1.629163
     17          1           0       -5.241447    1.203259   -0.951026
     18          1           0       -7.086344    0.759401    0.703065
     19          1           0       -7.303533   -0.859431    0.021075
     20          1           0       -7.668653    0.570344   -0.959609
     21          6           0        3.809205    1.110822    0.150907
     22          6           0        2.544568    1.852335   -0.283646
     23          6           0        2.514488    3.302847    0.198956
     24          1           0        3.882936    1.135752    1.246757
     25          1           0        4.689278    1.644546   -0.233805
     26          1           0        1.667093    1.316604    0.100604
     27          1           0        2.473738    1.825471   -1.378578
     28          1           0        3.371638    3.857989   -0.195648
     29          1           0        2.560410    3.346229    1.291938
     30          1           0        1.601869    3.814165   -0.122821
     31          6           0        3.853910   -0.340458   -0.323982
     32          6           0        5.118548   -1.081971    0.110569
     33          6           0        5.148627   -2.532483   -0.372032
     34          1           0        2.973836   -0.874182    0.060729
     35          1           0        3.780179   -0.365388   -1.419832
     36          1           0        5.189376   -1.055107    1.205502
     37          1           0        5.996022   -0.546240   -0.273679
     38          1           0        5.102704   -2.575865   -1.465014
     39          1           0        4.291476   -3.087624    0.022571
     40          1           0        6.061246   -3.043801   -0.050256
 ---------------------------------------------------------------------

 SCF Done:  E(RHF) =  -470.733254557     A.U. after   11 cycles
 E2 =    -0.1582710360D+01 EUMP2 =    -0.47231596491736D+03

 The electronic state is 1-A.
 Alpha  occ. eigenvalues --  -11.21637 -11.21614 -11.21554 -11.21521 -11.21426
 Alpha  occ. eigenvalues --  -11.21367 -11.21341 -11.21279 -11.21110 -11.21081
 Alpha  occ. eigenvalues --  -11.21045 -11.21033  -1.08454  -1.08372  -1.03560
 Alpha  occ. eigenvalues --   -1.03481  -0.96010  -0.95934  -0.87033  -0.86946
 Alpha  occ. eigenvalues --   -0.79657  -0.79518  -0.78280  -0.78163  -0.65106
 Alpha  occ. eigenvalues --   -0.64989  -0.61034  -0.60818  -0.59378  -0.59306
 Alpha  occ. eigenvalues --   -0.57632  -0.57531  -0.55326  -0.55199  -0.52725
 Alpha  occ. eigenvalues --   -0.52625  -0.52452  -0.52342  -0.50050  -0.49812
 Alpha  occ. eigenvalues --   -0.48035  -0.47785  -0.46784  -0.46442  -0.45877
 Alpha  occ. eigenvalues --   -0.45750  -0.45700  -0.45482  -0.43802  -0.43730
 Alpha virt. eigenvalues --    0.21789   0.22977   0.23862   0.24476   0.25556
 Alpha virt. eigenvalues --    0.26621   0.27062   0.27439   0.27919   0.29223
 Alpha virt. eigenvalues --    0.29853   0.31615   0.31660   0.31869   0.32074

 Mulliken charges:
               1
     1  C   -0.298542
     2  C   -0.299829
     3  C   -0.481449
     4  H    0.149844
     5  H    0.149755
     6  H    0.152028
     7  H    0.151908
     8  H    0.160993
     9  H    0.156178
    10  H    0.159448
    11  C   -0.298315
    12  C   -0.299678
    13  C   -0.475723
    14  H    0.149580
    15  H    0.149674
    16  H    0.151998
    17  H    0.151978
    18  H    0.155199
    19  H    0.155201
    20  H    0.160313
    21  C   -0.297482
    22  C   -0.308134
    23  C   -0.475202
    24  H    0.149170
    25  H    0.149203
    26  H    0.160680
    27  H    0.151557
    28  H    0.155167
    29  H    0.154891
    30  H    0.159444
    31  C   -0.300610
    32  C   -0.299604
    33  C   -0.475620
    34  H    0.152876
    35  H    0.149402
    36  H    0.151661
    37  H    0.151751
    38  H    0.155099
    39  H    0.155178
    40  H    0.160010
 Sum of Mulliken charges =  -0.00000

 Dipole moment (field-independent basis, Debye):
    X=             -0.0351    Y=             -0.0145    Z=             -0.0067  Tot=              0.0386
 Quadrupole moment (field-independent basis, Debye-Ang):
   XX=            -85.9017   YY=            -85.0414   ZZ=            -84.0155
   XY=              0.4668   XZ=             -0.0712   YZ=             -0.1713

 Normal termination of Gaussian 16 at Wed May  5 21:20:54 2021.
