 Gaussian 16, Revision A.03,
 Gaussian 16:  EM64L-G16RevA.03 25-Dec-2016

 -------------
 #p 6-31g* mp2
 -------------

 ------------------------------------------------------
 Input file generated by CHIRIPA (05-May-2021 14:53:15)
 ------------------------------------------------------
 Symbolic Z-matrix:
 Charge =  0 Multiplicity = 1

                         Standard orientation:
 ---------------------------------------------------------------------
 Center     Atomic      Atomic             Coordinates (Angstroms)
 Number     Number       Type             X           Y           Z
 ---------------------------------------------------------------------
      1          6           0        3.399474    0.592177   -0.685422
      2          6           0        3.728928    1.942384   -0.047938
      3          6           0        3.427907    3.122019   -0.972947
      4          1           0        3.971368    0.484526   -1.617245
      5          1           0        2.337445    0.576864   -0.966945
      6          1           0        4.789696    1.954630    0.233556
      7          1           0        3.156328    2.046751    0.882574
      8          1           0        2.367377    3.137946   -1.244284
      9          1           0        4.010025    3.045302   -1.896989
     10          1           0        3.670785    4.077335   -0.497299
     11          6           0        3.695002   -0.596820    0.227090
     12          6           0        3.365547   -1.947026   -0.410394
     13          6           0        3.666568   -3.126661    0.514615
     14          1           0        4.757031   -0.581506    0.508612
     15          1           0        3.123107   -0.489169    1.158912
     16          1           0        3.938147   -2.051393   -1.340906
     17          1           0        2.304780   -1.959273   -0.691889
     18          1           0        3.084450   -3.049945    1.438657
     19          1           0        4.727098   -3.142589    0.785951
     20          1           0        3.423691   -4.081977    0.038966
     21          6           0       -0.537484    0.333600    1.304202
     22          6           0       -0.702105   -0.687407    0.362415
     23          6           0       -1.935308   -0.880451   -0.267261
     24          6           0       -2.987235   -0.030263    0.070259
     25          6           0       -2.854569    0.995874    1.004460
     26          6           0       -1.612346    1.170508    1.621659
     27          1           0        0.424002    0.476411    1.788503
     28          1           0        0.130891   -1.338874    0.113910
     29          1           0       -2.090416   -1.663045   -1.000000
     30          1           0       -3.703443    1.629347    1.231493
     31          1           0       -1.487399    1.964257    2.352683
     32          7           0       -4.297546   -0.224884   -0.589746
     33          8           0       -5.208673    0.537593   -0.274922
     34          8           0       -4.388629   -1.136219   -1.409386
 ---------------------------------------------------------------------

 SCF Done:  E(RHF) =  -669.535490450     A.U. after   15 cycles
 E2 =    -0.2092313042D+01 EUMP2 =    -0.67162780349158D+03

 The electronic state is 1-A.
 Alpha  occ. eigenvalues --  -20.60774 -20.60769 -15.85828 -11.31207 -11.27777
 Alpha  occ. eigenvalues --  -11.27771 -11.27525 -11.26791 -11.26771 -11.22727
 Alpha  occ. eigenvalues --  -11.22498 -11.22470 -11.22283 -11.22007 -11.21728
 Alpha  occ. eigenvalues --   -1.59850  -1.39403  -1.19380  -1.09436  -1.08771
 Alpha  occ. eigenvalues --   -1.04785  -1.04455  -0.96874  -0.95605  -0.87885
 Alpha  occ. eigenvalues --   -0.86184  -0.82439  -0.80531  -0.79234  -0.77483
 Alpha  occ. eigenvalues --   -0.72046  -0.71173  -0.70498  -0.66181  -0.65028
 Alpha  occ. eigenvalues --   -0.64727  -0.62213  -0.61773  -0.60242  -0.58484
 Alpha  occ. eigenvalues --   -0.56178  -0.55278  -0.53547  -0.53286  -0.53108
 Alpha  occ. eigenvalues --   -0.52887  -0.50812  -0.48855  -0.48800  -0.48778
 Alpha  occ. eigenvalues --   -0.47588  -0.46762  -0.46689  -0.44805  -0.44718
 Alpha  occ. eigenvalues --   -0.37356  -0.36383
 Alpha virt. eigenvalues --    0.05044   0.11164   0.16497   0.17724   0.22446
 Alpha virt. eigenvalues --    0.23439   0.24661   0.25306   0.27011   0.28314
 Alpha virt. eigenvalues --    0.29639   0.30697   0.30898   0.31237   0.31976

 Mulliken charges:
               1
     1  C   -0.301993
     2  C   -0.298813
     3  C   -0.476771
     4  H    0.154260
     5  H    0.150073
     6  H    0.154719
     7  H    0.145034
     8  H    0.157373
     9  H    0.157890
    10  H    0.161920
    11  C   -0.299861
    12  C   -0.304530
    13  C   -0.476504
    14  H    0.155176
    15  H    0.141107
    16  H    0.158764
    17  H    0.145219
    18  H    0.153219
    19  H    0.159447
    20  H    0.163929
    21  C   -0.175764
    22  C   -0.226189
    23  C   -0.172971
    24  C    0.158836
    25  C   -0.170849
    26  C   -0.218791
    27  H    0.228583
    28  H    0.234513
    29  H    0.276201
    30  H    0.275711
    31  H    0.223689
    32  N    0.488040
    33  O   -0.460409
    34  O   -0.460258
 Sum of Mulliken charges =  -0.00000

 Dipole moment (field-independent basis, Debye):
    X=              4.8161    Y=              0.6927    Z=              2.2368  Tot=              5.3552
 Quadrupole moment (field-independent basis, Debye-Ang):
   XX=           -120.3166   YY=            -92.7004   ZZ=            -93.7914
   XY=             -3.9154   XZ=             -8.5610   YZ=              2.8103

 Normal termination of Gaussian 16 at Thu May  6 15:28:54 2021.
