 Gaussian 16, Revision A.03,
 Gaussian 16:  EM64L-G16RevA.03 25-Dec-2016

 -------------
 #p 6-31g* mp2
 -------------

 ------------------------------------------------------
 Input file generated by CHIRIPA (05-May-2021 14:53:13)
 ------------------------------------------------------
 Symbolic Z-matrix:
 Charge =  0 Multiplicity = 1

                         Standard orientation:
 ---------------------------------------------------------------------
 Center     Atomic      Atomic             Coordinates (Angstroms)
 Number     Number       Type             X           Y           Z
 ---------------------------------------------------------------------
      1          6           0       -2.560267    0.654416    0.316150
      2          6           0       -2.633200    1.916605    1.176118
      3          6           0       -1.277202    2.606007    1.330357
      4          1           0       -1.840474   -0.044973    0.763025
      5          1           0       -2.166505    0.917036   -0.675504
      6          1           0       -3.028009    1.651915    2.165401
      7          1           0       -3.353046    2.612992    0.727248
      8          1           0       -0.880164    2.898163    0.352805
      9          1           0       -0.553280    1.931626    1.799130
     10          1           0       -1.352378    3.505911    1.948727
     11          6           0       -3.908021   -0.045990    0.152695
     12          6           0       -3.835089   -1.308179   -0.707273
     13          6           0       -5.191086   -1.997581   -0.861512
     14          1           0       -4.301783   -0.308610    1.144349
     15          1           0       -4.627815    0.653399   -0.294180
     16          1           0       -3.115243   -2.004565   -0.258404
     17          1           0       -3.440280   -1.043489   -1.696556
     18          1           0       -5.915008   -1.323200   -1.330285
     19          1           0       -5.588125   -2.289737    0.116040
     20          1           0       -5.115911   -2.897485   -1.479882
     21          6           0        2.911834   -2.493048    0.880262
     22          6           0        3.987806   -1.623362    0.674223
     23          6           0        3.786116   -0.371272    0.085888
     24          6           0        2.489439   -0.019625   -0.285949
     25          6           0        1.397014   -0.864017   -0.093857
     26          6           0        1.622146   -2.111272    0.496241
     27          1           0        3.077617   -3.463824    1.337980
     28          1           0        4.990480   -1.917197    0.971463
     29          1           0        4.601091    0.321507   -0.085259
     30          1           0        0.408929   -0.543112   -0.400658
     31          1           0        0.784645   -2.784637    0.655033
     32          7           0        2.263511    1.303349   -0.909725
     33          8           0        1.111487    1.589515   -1.228451
     34          8           0        3.242730    2.029077   -1.068105
 ---------------------------------------------------------------------

 SCF Done:  E(RHF) =  -669.536074721     A.U. after   15 cycles
 E2 =    -0.2092662341D+01 EUMP2 =    -0.67162873706120D+03

 The electronic state is 1-A.
 Alpha  occ. eigenvalues --  -20.60849 -20.60837 -15.85875 -11.31185 -11.27763
 Alpha  occ. eigenvalues --  -11.27705 -11.27505 -11.26772 -11.26754 -11.21782
 Alpha  occ. eigenvalues --  -11.21380 -11.21278 -11.21208 -11.21200 -11.20237
 Alpha  occ. eigenvalues --   -1.59903  -1.39460  -1.19360  -1.08769  -1.08342
 Alpha  occ. eigenvalues --   -1.04755  -1.03339  -0.95765  -0.95609  -0.86780
 Alpha  occ. eigenvalues --   -0.86155  -0.82448  -0.79445  -0.78211  -0.77445
 Alpha  occ. eigenvalues --   -0.72108  -0.71214  -0.70471  -0.65047  -0.64951
 Alpha  occ. eigenvalues --   -0.64754  -0.62104  -0.60730  -0.59182  -0.57378
 Alpha  occ. eigenvalues --   -0.55271  -0.55030  -0.53091  -0.52872  -0.52452
 Alpha  occ. eigenvalues --   -0.52157  -0.49707  -0.48867  -0.48851  -0.47741
 Alpha  occ. eigenvalues --   -0.46488  -0.45727  -0.45572  -0.44740  -0.43624
 Alpha  occ. eigenvalues --   -0.37344  -0.36352
 Alpha virt. eigenvalues --    0.04995   0.11251   0.16464   0.20593   0.23070
 Alpha virt. eigenvalues --    0.24426   0.25391   0.26606   0.27930   0.28290
 Alpha virt. eigenvalues --    0.29989   0.30704   0.31583   0.31790   0.32362

 Mulliken charges:
               1
     1  C   -0.303926
     2  C   -0.299277
     3  C   -0.481549
     4  H    0.137518
     5  H    0.162880
     6  H    0.147767
     7  H    0.152671
     8  H    0.181028
     9  H    0.146696
    10  H    0.156529
    11  C   -0.297289
    12  C   -0.299257
    13  C   -0.475394
    14  H    0.148376
    15  H    0.152358
    16  H    0.142784
    17  H    0.154332
    18  H    0.157391
    19  H    0.154832
    20  H    0.159351
    21  C   -0.170385
    22  C   -0.218911
    23  C   -0.170356
    24  C    0.157215
    25  C   -0.176002
    26  C   -0.221105
    27  H    0.225579
    28  H    0.223421
    29  H    0.275491
    30  H    0.285493
    31  H    0.223555
    32  N    0.489345
    33  O   -0.461564
    34  O   -0.459598
 Sum of Mulliken charges =  -0.00000

 Dipole moment (field-independent basis, Debye):
    X=              0.8412    Y=             -4.4918    Z=              2.0420  Tot=              5.0053
 Quadrupole moment (field-independent basis, Debye-Ang):
   XX=            -86.7155   YY=            -94.8480   ZZ=            -96.4361
   XY=            -11.5494   XZ=              6.0609   YZ=              0.4475

 Normal termination of Gaussian 16 at Wed May  5 15:30:57 2021.
