 Gaussian 16, Revision A.03,
 Gaussian 16:  EM64L-G16RevA.03 25-Dec-2016

 -------------
 #p 6-31g* mp2
 -------------

 ------------------------------------------------------
 Input file generated by CHIRIPA (05-May-2021 14:57:22)
 ------------------------------------------------------
 Symbolic Z-matrix:
 Charge =  0 Multiplicity = 1

                         Standard orientation:
 ---------------------------------------------------------------------
 Center     Atomic      Atomic             Coordinates (Angstroms)
 Number     Number       Type             X           Y           Z
 ---------------------------------------------------------------------
      1          6           0       -2.353917    2.532279   -0.271729
      2          6           0       -1.557275    1.770156    0.589115
      3          6           0       -1.727512    0.385114    0.674122
      4          6           0       -2.708242   -0.207721   -0.119607
      5          6           0       -3.517636    0.524388   -0.986896
      6          6           0       -3.329834    1.908063   -1.055605
      7          1           0       -2.214851    3.607682   -0.331434
      8          1           0       -0.798589    2.252241    1.199061
      9          1           0       -1.124615   -0.228908    1.332080
     10          1           0       -4.265746    0.015475   -1.582510
     11          1           0       -3.949966    2.497421   -1.725036
     12          7           0       -2.897762   -1.673280   -0.038241
     13          8           0       -3.768697   -2.171636   -0.747995
     14          8           0       -2.171784   -2.295877    0.733746
     15          6           0        1.592937    0.311175    2.385059
     16          6           0        1.887446   -0.982007    1.940688
     17          6           0        2.488051   -1.185029    0.694653
     18          6           0        2.781810   -0.067174   -0.084702
     19          6           0        2.500684    1.233635    0.330212
     20          6           0        1.899954    1.412926    1.579823
     21          1           0        1.126324    0.459671    3.354398
     22          1           0        1.650134   -1.839505    2.563925
     23          1           0        2.726902   -2.175244    0.326083
     24          1           0        2.749068    2.068791   -0.313401
     25          1           0        1.672372    2.418373    1.922355
     26          7           0        3.417710   -0.269544   -1.405716
     27          8           0        3.666533    0.731872   -2.073468
     28          8           0        3.655264   -1.425743   -1.748361
 ---------------------------------------------------------------------

 SCF Done:  E(RHF) =  -868.336423488     A.U. after   16 cycles
 E2 =    -0.2603304350D+01 EUMP2 =    -0.87093972783815D+03

 The electronic state is 1-A.
 Alpha  occ. eigenvalues --  -20.61108 -20.61086 -20.61006 -20.60976 -15.86159
 Alpha  occ. eigenvalues --  -15.86045 -11.31718 -11.31348 -11.28366 -11.28219
 Alpha  occ. eigenvalues --  -11.28123 -11.27912 -11.27878 -11.27691 -11.27496
 Alpha  occ. eigenvalues --  -11.27271 -11.26941 -11.26922  -1.60169  -1.60064
 Alpha  occ. eigenvalues --   -1.39717  -1.39622  -1.19937  -1.19526  -1.09321
 Alpha  occ. eigenvalues --   -1.08945  -1.05355  -1.04921  -0.96099  -0.95782
 Alpha  occ. eigenvalues --   -0.86780  -0.86321  -0.82909  -0.82626  -0.77933
 Alpha  occ. eigenvalues --   -0.77663  -0.72376  -0.72273  -0.71491  -0.71381
 Alpha  occ. eigenvalues --   -0.71041  -0.70659  -0.65591  -0.65467  -0.65192
 Alpha  occ. eigenvalues --   -0.64880  -0.62693  -0.62301  -0.55872  -0.55501
 Alpha  occ. eigenvalues --   -0.53710  -0.53469  -0.53131  -0.53003  -0.49152
 Alpha  occ. eigenvalues --   -0.49115  -0.49026  -0.49013  -0.45079  -0.45040
 Alpha  occ. eigenvalues --   -0.37974  -0.37566  -0.37005  -0.36347
 Alpha virt. eigenvalues --    0.04558   0.04896   0.10478   0.11146   0.15932
 Alpha virt. eigenvalues --    0.16413   0.19661   0.22105   0.25565   0.27186
 Alpha virt. eigenvalues --    0.28290   0.28961   0.29944   0.31471   0.31982

 Mulliken charges:
               1
     1  C   -0.171239
     2  C   -0.216409
     3  C   -0.172701
     4  C    0.158257
     5  C   -0.169785
     6  C   -0.218339
     7  H    0.224480
     8  H    0.213857
     9  H    0.275108
    10  H    0.276433
    11  H    0.224421
    12  N    0.488776
    13  O   -0.458302
    14  O   -0.464741
    15  C   -0.184250
    16  C   -0.216746
    17  C   -0.166450
    18  C    0.159616
    19  C   -0.168275
    20  C   -0.223786
    21  H    0.227907
    22  H    0.233503
    23  H    0.282031
    24  H    0.276064
    25  H    0.218900
    26  N    0.488029
    27  O   -0.460493
    28  O   -0.455866
 Sum of Mulliken charges =  -0.00000

 Dipole moment (field-independent basis, Debye):
    X=             -1.3467    Y=              5.6019    Z=              4.2219  Tot=              7.1428
 Quadrupole moment (field-independent basis, Debye-Ang):
   XX=           -118.7515   YY=           -102.8176   ZZ=           -104.2159
   XY=            -12.7608   XZ=             16.9811   YZ=             -2.3859

 Normal termination of Gaussian 16 at Fri May  7 00:12:18 2021.
