 Gaussian 16, Revision A.03,
 Gaussian 16:  EM64L-G16RevA.03 25-Dec-2016

 -------------
 #p 6-31g* mp2
 -------------

 ------------------------------------------------------
 Input file generated by CHIRIPA (05-May-2021 14:51:09)
 ------------------------------------------------------
 Symbolic Z-matrix:
 Charge =  0 Multiplicity = 1

                         Standard orientation:
 ---------------------------------------------------------------------
 Center     Atomic      Atomic             Coordinates (Angstroms)
 Number     Number       Type             X           Y           Z
 ---------------------------------------------------------------------
      1          6           0       -2.409029   -0.974040    0.775613
      2          6           0       -1.141923   -1.773863    0.471130
      3          6           0       -0.635266   -2.561440    1.679772
      4          1           0       -2.208653   -0.284169    1.606800
      5          1           0       -3.193583   -1.661064    1.121833
      6          1           0       -0.360420   -1.085708    0.124269
      7          1           0       -1.345283   -2.461775   -0.359555
      8          1           0       -1.395343   -3.270330    2.023806
      9          1           0       -0.404884   -1.886444    2.510379
     10          1           0        0.271223   -3.125867    1.439855
     11          6           0       -2.927744   -0.181402   -0.422881
     12          6           0       -4.194850    0.618421   -0.118398
     13          6           0       -4.701507    1.405998   -1.327040
     14          1           0       -2.143190    0.505622   -0.769100
     15          1           0       -3.128120   -0.871273   -1.254068
     16          1           0       -3.991490    1.306333    0.712288
     17          1           0       -4.976353   -0.069734    0.228464
     18          1           0       -4.931889    0.731002   -2.157646
     19          1           0       -3.941430    2.114888   -1.671073
     20          1           0       -5.607996    1.970425   -1.087122
     21          6           0        2.452491   -0.128002   -0.373284
     22          6           0        3.617151   -1.020663   -0.803062
     23          6           0        3.169298   -2.429346   -1.194003
     24          1           0        1.932267   -0.597019    0.473080
     25          1           0        1.723783   -0.067685   -1.193491
     26          1           0        4.344114   -1.078160    0.017202
     27          1           0        4.134780   -0.549371   -1.648380
     28          1           0        2.461006   -2.390865   -2.027935
     29          1           0        2.671529   -2.922657   -0.352890
     30          1           0        4.017666   -3.050493   -1.497829
     31          6           0        2.884282    1.283444    0.020551
     32          6           0        1.719622    2.176105    0.450330
     33          6           0        2.167475    3.584788    0.841270
     34          1           0        3.612991    1.223128    0.840759
     35          1           0        3.404506    1.752461   -0.825813
     36          1           0        1.201993    1.704814    1.295647
     37          1           0        0.992659    2.233602   -0.369935
     38          1           0        2.665244    4.078099    0.000157
     39          1           0        2.875767    3.546307    1.675203
     40          1           0        1.319108    4.205935    1.145097
 ---------------------------------------------------------------------

 SCF Done:  E(RHF) =  -470.732901580     A.U. after   11 cycles
 E2 =    -0.1584025599D+01 EUMP2 =    -0.47231692717963D+03

 The electronic state is 1-A.
 Alpha  occ. eigenvalues --  -11.21695 -11.21639 -11.21569 -11.21456 -11.21431
 Alpha  occ. eigenvalues --  -11.21391 -11.21348 -11.21282 -11.21138 -11.21099
 Alpha  occ. eigenvalues --  -11.21058 -11.21052  -1.08506  -1.08360  -1.03591
 Alpha  occ. eigenvalues --   -1.03474  -0.96036  -0.95941  -0.87054  -0.86954
 Alpha  occ. eigenvalues --   -0.79680  -0.79535  -0.78428  -0.78070  -0.65159
 Alpha  occ. eigenvalues --   -0.64974  -0.60998  -0.60884  -0.59452  -0.59261
 Alpha  occ. eigenvalues --   -0.57652  -0.57545  -0.55344  -0.55211  -0.52730
 Alpha  occ. eigenvalues --   -0.52640  -0.52494  -0.52338  -0.49974  -0.49886
 Alpha  occ. eigenvalues --   -0.48023  -0.47840  -0.46745  -0.46669  -0.46083
 Alpha  occ. eigenvalues --   -0.45767  -0.45697  -0.45160  -0.43839  -0.43729
 Alpha virt. eigenvalues --    0.20633   0.22458   0.23632   0.24509   0.24960
 Alpha virt. eigenvalues --    0.26550   0.26750   0.27628   0.28854   0.29581
 Alpha virt. eigenvalues --    0.30139   0.31380   0.31537   0.31758   0.32363

 Mulliken charges:
               1
     1  C   -0.297325
     2  C   -0.308642
     3  C   -0.477587
     4  H    0.148968
     5  H    0.148896
     6  H    0.163088
     7  H    0.151134
     8  H    0.155406
     9  H    0.153916
    10  H    0.160589
    11  C   -0.298571
    12  C   -0.299562
    13  C   -0.475659
    14  H    0.149623
    15  H    0.149390
    16  H    0.151923
    17  H    0.151882
    18  H    0.155071
    19  H    0.154952
    20  H    0.160153
    21  C   -0.304706
    22  C   -0.299014
    23  C   -0.477723
    24  H    0.156093
    25  H    0.150564
    26  H    0.151947
    27  H    0.151997
    28  H    0.155820
    29  H    0.156566
    30  H    0.160480
    31  C   -0.297589
    32  C   -0.300752
    33  C   -0.475613
    34  H    0.149734
    35  H    0.149851
    36  H    0.151663
    37  H    0.151625
    38  H    0.155543
    39  H    0.155532
    40  H    0.160340
 Sum of Mulliken charges =  -0.00000

 Dipole moment (field-independent basis, Debye):
    X=              0.0616    Y=              0.0188    Z=             -0.0174  Tot=              0.0667
 Quadrupole moment (field-independent basis, Debye-Ang):
   XX=            -84.7350   YY=            -85.5940   ZZ=            -84.5020
   XY=              0.5504   XZ=             -0.1452   YZ=              0.1398

 Normal termination of Gaussian 16 at Wed May  5 21:20:38 2021.
