 Gaussian 16, Revision A.03,
 Gaussian 16:  EM64L-G16RevA.03 25-Dec-2016

 -------------
 #p 6-31g* mp2
 -------------

 ------------------------------------------------------
 Input file generated by CHIRIPA (05-May-2021 14:57:26)
 ------------------------------------------------------
 Symbolic Z-matrix:
 Charge =  0 Multiplicity = 1

                         Standard orientation:
 ---------------------------------------------------------------------
 Center     Atomic      Atomic             Coordinates (Angstroms)
 Number     Number       Type             X           Y           Z
 ---------------------------------------------------------------------
      1          6           0        5.200079    1.997331   -0.052719
      2          6           0        5.617842    0.764433    0.459099
      3          6           0        4.781017   -0.353371    0.389911
      4          6           0        3.527295   -0.201820   -0.200431
      5          6           0        3.082458    1.013144   -0.719346
      6          6           0        3.935949    2.117540   -0.639274
      7          1           0        5.856618    2.860460    0.005256
      8          1           0        6.599049    0.668138    0.915175
      9          1           0        5.079191   -1.319665    0.778221
     10          1           0        2.098727    1.078160   -1.168194
     11          1           0        3.608863    3.073785   -1.037589
     12          7           0        2.632565   -1.378091   -0.279439
     13          8           0        1.532775   -1.218423   -0.804421
     14          8           0        3.048006   -2.437448    0.185112
     15          6           0       -5.864515    0.927163   -0.664613
     16          6           0       -5.320593    1.409265    0.530481
     17          6           0       -4.107912    0.907249    1.012074
     18          6           0       -3.463060   -0.080910    0.269780
     19          6           0       -3.979447   -0.581609   -0.924345
     20          6           0       -5.193390   -0.064985   -1.386938
     21          1           0       -6.807045    1.322815   -1.031347
     22          1           0       -5.839596    2.179748    1.093540
     23          1           0       -3.664292    1.262501    1.934255
     24          1           0       -3.438877   -1.349999   -1.463583
     25          1           0       -5.613445   -0.441275   -2.315380
     26          7           0       -2.178581   -0.620103    0.769564
     27          8           0       -1.630056   -1.490389    0.096988
     28          8           0       -1.744653   -0.162226    1.824407
 ---------------------------------------------------------------------

 SCF Done:  E(RHF) =  -868.335207776     A.U. after   16 cycles
 E2 =    -0.2600377219D+01 EUMP2 =    -0.87093558499420D+03

 The electronic state is 1-A.
 Alpha  occ. eigenvalues --  -20.59943 -20.59805 -20.59613 -20.59513 -15.84928
 Alpha  occ. eigenvalues --  -15.84625 -11.30633 -11.30349 -11.27265 -11.27210
 Alpha  occ. eigenvalues --  -11.27055 -11.26970 -11.26966 -11.26795 -11.26348
 Alpha  occ. eigenvalues --  -11.26316 -11.26080 -11.26067  -1.58948  -1.58627
 Alpha  occ. eigenvalues --   -1.38492  -1.38175  -1.18841  -1.18560  -1.08175
 Alpha  occ. eigenvalues --   -1.07891  -1.04290  -1.04023  -0.94951  -0.94662
 Alpha  occ. eigenvalues --   -0.85672  -0.85406  -0.81780  -0.81496  -0.76770
 Alpha  occ. eigenvalues --   -0.76487  -0.71190  -0.70792  -0.70287  -0.69946
 Alpha  occ. eigenvalues --   -0.69944  -0.69680  -0.64481  -0.64297  -0.64208
 Alpha  occ. eigenvalues --   -0.64041  -0.61630  -0.61373  -0.54786  -0.54527
 Alpha  occ. eigenvalues --   -0.52608  -0.52385  -0.52325  -0.52130  -0.47976
 Alpha  occ. eigenvalues --   -0.47900  -0.47600  -0.47520  -0.43869  -0.43420
 Alpha  occ. eigenvalues --   -0.36846  -0.36561  -0.35913  -0.35640
 Alpha virt. eigenvalues --    0.05742   0.06099   0.11736   0.12010   0.17177
 Alpha virt. eigenvalues --    0.17513   0.21840   0.22059   0.27729   0.27935
 Alpha virt. eigenvalues --    0.28769   0.28987   0.31366   0.31572   0.33044

 Mulliken charges:
               1
     1  C   -0.172007
     2  C   -0.218501
     3  C   -0.171132
     4  C    0.160886
     5  C   -0.169594
     6  C   -0.218484
     7  H    0.222346
     8  H    0.220838
     9  H    0.274887
    10  H    0.274601
    11  H    0.219969
    12  N    0.488525
    13  O   -0.448642
    14  O   -0.463923
    15  C   -0.172076
    16  C   -0.218752
    17  C   -0.172365
    18  C    0.158509
    19  C   -0.171602
    20  C   -0.218839
    21  H    0.223334
    22  H    0.220979
    23  H    0.273903
    24  H    0.278813
    25  H    0.222200
    26  N    0.485978
    27  O   -0.442518
    28  O   -0.467331
 Sum of Mulliken charges =  -0.00000

 Dipole moment (field-independent basis, Debye):
    X=             -1.4239    Y=              5.7775    Z=             -1.5667  Tot=              6.1532
 Quadrupole moment (field-independent basis, Debye-Ang):
   XX=            -52.1676   YY=           -104.5057   ZZ=           -102.9498
   XY=              5.4919   XZ=              7.1977   YZ=              1.1782

 Normal termination of Gaussian 16 at Wed May  5 18:01:34 2021.
