 Gaussian 16, Revision A.03,
 Gaussian 16:  EM64L-G16RevA.03 25-Dec-2016

 -------------
 #p 6-31g* mp2
 -------------

 ------------------------------------------------------
 Input file generated by CHIRIPA (05-May-2021 14:51:12)
 ------------------------------------------------------
 Symbolic Z-matrix:
 Charge =  0 Multiplicity = 1

                         Standard orientation:
 ---------------------------------------------------------------------
 Center     Atomic      Atomic             Coordinates (Angstroms)
 Number     Number       Type             X           Y           Z
 ---------------------------------------------------------------------
      1          6           0        3.238434    0.880299   -0.530243
      2          6           0        3.294453    1.908538    0.600054
      3          6           0        3.512144    3.334148    0.092078
      4          1           0        4.172579    0.927085   -1.106550
      5          1           0        2.429785    1.151123   -1.223162
      6          1           0        4.101861    1.635083    1.291380
      7          1           0        2.360145    1.859166    1.173853
      8          1           0        2.701501    3.631227   -0.581126
      9          1           0        4.453113    3.405871   -0.462931
     10          1           0        3.548978    4.052907    0.916632
     11          6           0        3.021274   -0.549567   -0.038255
     12          6           0        2.965255   -1.577806   -1.168552
     13          6           0        2.747564   -3.003416   -0.660576
     14          1           0        3.829923   -0.820391    0.654664
     15          1           0        2.087129   -0.596353    0.538052
     16          1           0        3.899563   -1.528434   -1.742351
     17          1           0        2.157847   -1.304351   -1.859878
     18          1           0        1.806595   -3.075139   -0.105567
     19          1           0        3.558207   -3.300495    0.012628
     20          1           0        2.710730   -3.722175   -1.485130
     21          6           0       -3.550609    0.442341    0.091662
     22          6           0       -4.873827    0.075202   -0.580861
     23          6           0       -5.704390    1.301594   -0.960238
     24          1           0       -3.756726    1.039667    0.990362
     25          1           0       -2.969667    1.084956   -0.584315
     26          1           0       -5.451502   -0.567662    0.095625
     27          1           0       -4.664546   -0.521482   -1.477959
     28          1           0       -5.150764    1.942079   -1.654412
     29          1           0       -5.942193    1.895635   -0.071888
     30          1           0       -6.646015    1.016142   -1.439527
     31          6           0       -2.709099   -0.773073    0.476836
     32          6           0       -1.385880   -0.405935    1.149359
     33          6           0       -0.555319   -1.632326    1.528736
     34          1           0       -3.290041   -1.415689    1.152814
     35          1           0       -2.502982   -1.370399   -0.421864
     36          1           0       -1.595163    0.190749    2.046457
     37          1           0       -0.808206    0.236930    0.472874
     38          1           0       -0.317515   -2.226368    0.640387
     39          1           0       -1.108944   -2.272811    2.222911
     40          1           0        0.386307   -1.346875    2.008025
 ---------------------------------------------------------------------

 SCF Done:  E(RHF) =  -470.732425830     A.U. after   11 cycles
 E2 =    -0.1583904326D+01 EUMP2 =    -0.47231633015630D+03

 The electronic state is 1-A.
 Alpha  occ. eigenvalues --  -11.21713 -11.21646 -11.21585 -11.21556 -11.21477
 Alpha  occ. eigenvalues --  -11.21414 -11.21355 -11.21261 -11.21158 -11.21106
 Alpha  occ. eigenvalues --  -11.21059 -11.20977  -1.08511  -1.08384  -1.03622
 Alpha  occ. eigenvalues --   -1.03482  -0.96064  -0.95938  -0.87084  -0.86956
 Alpha  occ. eigenvalues --   -0.79708  -0.79527  -0.78315  -0.78206  -0.65246
 Alpha  occ. eigenvalues --   -0.64949  -0.61152  -0.60766  -0.59472  -0.59272
 Alpha  occ. eigenvalues --   -0.57762  -0.57491  -0.55400  -0.55186  -0.52792
 Alpha  occ. eigenvalues --   -0.52626  -0.52584  -0.52260  -0.50096  -0.49813
 Alpha  occ. eigenvalues --   -0.47974  -0.47861  -0.46782  -0.46486  -0.45870
 Alpha  occ. eigenvalues --   -0.45774  -0.45719  -0.45604  -0.43816  -0.43737
 Alpha virt. eigenvalues --    0.20393   0.23216   0.23609   0.24619   0.26168
 Alpha virt. eigenvalues --    0.26603   0.26726   0.27253   0.28256   0.29596
 Alpha virt. eigenvalues --    0.30181   0.31264   0.31811   0.32003   0.32385

 Mulliken charges:
               1
     1  C   -0.297388
     2  C   -0.300109
     3  C   -0.475570
     4  H    0.149470
     5  H    0.148577
     6  H    0.151886
     7  H    0.151936
     8  H    0.155015
     9  H    0.155191
    10  H    0.160202
    11  C   -0.308470
    12  C   -0.298557
    13  C   -0.481823
    14  H    0.148798
    15  H    0.161797
    16  H    0.151752
    17  H    0.150471
    18  H    0.161540
    19  H    0.154975
    20  H    0.159493
    21  C   -0.298351
    22  C   -0.299744
    23  C   -0.475756
    24  H    0.149858
    25  H    0.149426
    26  H    0.152083
    27  H    0.152046
    28  H    0.155226
    29  H    0.155271
    30  H    0.160440
    31  C   -0.298537
    32  C   -0.301840
    33  C   -0.483155
    34  H    0.150074
    35  H    0.149984
    36  H    0.152630
    37  H    0.152335
    38  H    0.158954
    39  H    0.156883
    40  H    0.162987
 Sum of Mulliken charges =  -0.00000

 Dipole moment (field-independent basis, Debye):
    X=             -0.0589    Y=             -0.0115    Z=              0.0406  Tot=              0.0724
 Quadrupole moment (field-independent basis, Debye-Ang):
   XX=            -84.1615   YY=            -86.6107   ZZ=            -84.0962
   XY=              0.3143   XZ=             -0.4958   YZ=              0.3946

 Normal termination of Gaussian 16 at Thu May  6 00:44:17 2021.
