 Gaussian 16, Revision A.03,
 Gaussian 16:  EM64L-G16RevA.03 25-Dec-2016

 -------------
 #p 6-31g* mp2
 -------------

 ------------------------------------------------------
 Input file generated by CHIRIPA (05-May-2021 14:53:13)
 ------------------------------------------------------
 Symbolic Z-matrix:
 Charge =  0 Multiplicity = 1

                         Standard orientation:
 ---------------------------------------------------------------------
 Center     Atomic      Atomic             Coordinates (Angstroms)
 Number     Number       Type             X           Y           Z
 ---------------------------------------------------------------------
      1          6           0       -3.686832    1.242413   -0.077594
      2          6           0       -2.315081    1.751875   -0.521140
      3          6           0       -2.182601    3.270662   -0.404816
      4          1           0       -4.464468    1.727216   -0.683559
      5          1           0       -3.865085    1.548351    0.962609
      6          1           0       -2.138883    1.443879   -1.559749
      7          1           0       -1.540609    1.265660    0.085823
      8          1           0       -2.332241    3.592208    0.630952
      9          1           0       -2.933915    3.771440   -1.023969
     10          1           0       -1.194342    3.613296   -0.727006
     11          6           0       -3.834633   -0.274054   -0.188096
     12          6           0       -5.206383   -0.783517    0.255450
     13          6           0       -5.338863   -2.302303    0.139126
     14          1           0       -3.656379   -0.579993   -1.228299
     15          1           0       -3.056997   -0.758857    0.417869
     16          1           0       -5.980855   -0.297301   -0.351513
     17          1           0       -5.382581   -0.475521    1.294059
     18          1           0       -4.587550   -2.803082    0.758279
     19          1           0       -5.189223   -2.623849   -0.896642
     20          1           0       -6.327122   -2.644937    0.461316
     21          6           0        0.566080   -1.206704    0.334578
     22          6           0        0.954480   -0.014278    0.954084
     23          6           0        2.266093    0.454286    0.832979
     24          6           0        3.167387   -0.298175    0.081473
     25          6           0        2.810804   -1.489959   -0.547642
     26          6           0        1.493846   -1.939447   -0.412991
     27          1           0       -0.454889   -1.563285    0.433917
     28          1           0        0.236097    0.556852    1.535274
     29          1           0        2.593593    1.374120    1.302092
     30          1           0        3.549398   -2.037451   -1.120486
     31          1           0        1.195020   -2.865846   -0.895206
     32          7           0        4.558763    0.187775   -0.053907
     33          8           0        5.333830   -0.493583   -0.721484
     34          8           0        4.847910    1.240818    0.510125
 ---------------------------------------------------------------------

 SCF Done:  E(RHF) =  -669.534917588     A.U. after   15 cycles
 E2 =    -0.2092518170D+01 EUMP2 =    -0.67162743575776D+03

 The electronic state is 1-A.
 Alpha  occ. eigenvalues --  -20.60752 -20.60747 -15.85806 -11.31173 -11.27747
 Alpha  occ. eigenvalues --  -11.27743 -11.27471 -11.26751 -11.26741 -11.22454
 Alpha  occ. eigenvalues --  -11.22402 -11.22393 -11.22215 -11.21860 -11.21732
 Alpha  occ. eigenvalues --   -1.59828  -1.39381  -1.19349  -1.09318  -1.08740
 Alpha  occ. eigenvalues --   -1.04759  -1.04333  -0.96784  -0.95575  -0.87795
 Alpha  occ. eigenvalues --   -0.86160  -0.82409  -0.80404  -0.79158  -0.77456
 Alpha  occ. eigenvalues --   -0.72025  -0.71151  -0.70453  -0.65999  -0.64999
 Alpha  occ. eigenvalues --   -0.64758  -0.62174  -0.61670  -0.60141  -0.58398
 Alpha  occ. eigenvalues --   -0.56099  -0.55235  -0.53444  -0.53212  -0.53073
 Alpha  occ. eigenvalues --   -0.52858  -0.50724  -0.48815  -0.48779  -0.48675
 Alpha  occ. eigenvalues --   -0.47436  -0.46684  -0.46595  -0.44787  -0.44609
 Alpha  occ. eigenvalues --   -0.37292  -0.36339
 Alpha virt. eigenvalues --    0.05077   0.11155   0.16546   0.19093   0.22793
 Alpha virt. eigenvalues --    0.23126   0.24904   0.26182   0.26833   0.27590
 Alpha virt. eigenvalues --    0.29689   0.30483   0.30960   0.31369   0.31523

 Mulliken charges:
               1
     1  C   -0.298821
     2  C   -0.303918
     3  C   -0.476981
     4  H    0.153824
     5  H    0.149610
     6  H    0.155523
     7  H    0.146331
     8  H    0.154170
     9  H    0.158544
    10  H    0.163745
    11  C   -0.299768
    12  C   -0.299921
    13  C   -0.476084
    14  H    0.151798
    15  H    0.139356
    16  H    0.155618
    17  H    0.153436
    18  H    0.152029
    19  H    0.155994
    20  H    0.163833
    21  C   -0.171876
    22  C   -0.218416
    23  C   -0.172361
    24  C    0.158146
    25  C   -0.170512
    26  C   -0.219811
    27  H    0.231006
    28  H    0.223346
    29  H    0.275652
    30  H    0.275557
    31  H    0.223817
    32  N    0.488076
    33  O   -0.460471
    34  O   -0.460470
 Sum of Mulliken charges =  -0.00000

 Dipole moment (field-independent basis, Debye):
    X=             -5.0609    Y=             -1.6535    Z=              0.3926  Tot=              5.3386
 Quadrupole moment (field-independent basis, Debye-Ang):
   XX=           -125.3724   YY=            -91.7580   ZZ=            -92.7260
   XY=             -5.4274   XZ=              0.9184   YZ=              2.1303

 Normal termination of Gaussian 16 at Thu May  6 12:05:06 2021.
