 Gaussian 16, Revision A.03,
 Gaussian 16:  EM64L-G16RevA.03 25-Dec-2016

 -------------
 #p 6-31g* mp2
 -------------

 ------------------------------------------------------
 Input file generated by CHIRIPA (05-May-2021 14:57:22)
 ------------------------------------------------------
 Symbolic Z-matrix:
 Charge =  0 Multiplicity = 1

                         Standard orientation:
 ---------------------------------------------------------------------
 Center     Atomic      Atomic             Coordinates (Angstroms)
 Number     Number       Type             X           Y           Z
 ---------------------------------------------------------------------
      1          6           0       -3.845448    2.579283   -0.279967
      2          6           0       -5.002096    1.864770    0.048907
      3          6           0       -4.974734    0.469561    0.133699
      4          6           0       -3.768222   -0.181880   -0.117787
      5          6           0       -2.599054    0.501856   -0.447696
      6          6           0       -2.649727    1.896749   -0.526784
      7          1           0       -3.875758    3.662992   -0.343620
      8          1           0       -5.932114    2.392191    0.241104
      9          1           0       -5.855373   -0.108430    0.386322
     10          1           0       -1.686765   -0.051761   -0.633853
     11          1           0       -1.749908    2.449045   -0.782400
     12          7           0       -3.726916   -1.658758   -0.031041
     13          8           0       -2.651485   -2.209160   -0.257189
     14          8           0       -4.770754   -2.237969    0.261456
     15          6           0        6.129771    0.297000   -0.700128
     16          6           0        5.794548    0.629039    0.616647
     17          6           0        4.492973    0.434660    1.088524
     18          6           0        3.547382   -0.096188    0.212539
     19          6           0        3.850522   -0.436907   -1.104771
     20          6           0        5.158400   -0.233976   -1.555127
     21          1           0        7.143314    0.451320   -1.058334
     22          1           0        6.546873    1.041571    1.282883
     23          1           0        4.206232    0.682975    2.103185
     24          1           0        3.078922   -0.846363   -1.745394
     25          1           0        5.415886   -0.492757   -2.578249
     26          7           0        2.166127   -0.306495    0.700702
     27          8           0        1.351335   -0.775672   -0.090893
     28          8           0        1.924445    0.001825    1.865676
 ---------------------------------------------------------------------

 SCF Done:  E(RHF) =  -868.338506721     A.U. after   16 cycles
 E2 =    -0.2598938842D+01 EUMP2 =    -0.87093744556239D+03

 The electronic state is 1-A.
 Alpha  occ. eigenvalues --  -20.61075 -20.61070 -20.59696 -20.59640 -15.86106
 Alpha  occ. eigenvalues --  -15.84724 -11.31404 -11.30106 -11.27964 -11.27955
 Alpha  occ. eigenvalues --  -11.27694 -11.26964 -11.26952 -11.26791 -11.26563
 Alpha  occ. eigenvalues --  -11.26548 -11.25825 -11.25718  -1.60136  -1.58752
 Alpha  occ. eigenvalues --   -1.39690  -1.38297  -1.19570  -1.18320  -1.08978
 Alpha  occ. eigenvalues --   -1.07734  -1.04960  -1.03720  -0.95821  -0.94546
 Alpha  occ. eigenvalues --   -0.86361  -0.85127  -0.82652  -0.81372  -0.77709
 Alpha  occ. eigenvalues --   -0.76386  -0.72316  -0.71457  -0.70944  -0.70674
 Alpha  occ. eigenvalues --   -0.70077  -0.69441  -0.65222  -0.64959  -0.63979
 Alpha  occ. eigenvalues --   -0.63744  -0.62305  -0.61038  -0.55463  -0.54282
 Alpha  occ. eigenvalues --   -0.53297  -0.53049  -0.52071  -0.51816  -0.49077
 Alpha  occ. eigenvalues --   -0.49064  -0.47728  -0.47678  -0.45108  -0.43699
 Alpha  occ. eigenvalues --   -0.37550  -0.36562  -0.36354  -0.35325
 Alpha virt. eigenvalues --    0.04799   0.06132   0.11093   0.12320   0.16295
 Alpha virt. eigenvalues --    0.17583   0.21241   0.22399   0.27168   0.28049
 Alpha virt. eigenvalues --    0.28339   0.29362   0.30822   0.31873   0.32364

 Mulliken charges:
               1
     1  C   -0.171071
     2  C   -0.219821
     3  C   -0.171361
     4  C    0.155922
     5  C   -0.173235
     6  C   -0.220346
     7  H    0.221212
     8  H    0.219271
     9  H    0.272617
    10  H    0.295223
    11  H    0.221160
    12  N    0.487121
    13  O   -0.453184
    14  O   -0.466637
    15  C   -0.170547
    16  C   -0.218649
    17  C   -0.170926
    18  C    0.157342
    19  C   -0.171355
    20  C   -0.218635
    21  H    0.226346
    22  H    0.224033
    23  H    0.275901
    24  H    0.276691
    25  H    0.224435
    26  N    0.488930
    27  O   -0.462157
    28  O   -0.458281
 Sum of Mulliken charges =  -0.00000

 Dipole moment (field-independent basis, Debye):
    X=              5.1514    Y=              5.8135    Z=             -2.0227  Tot=              8.0265
 Quadrupole moment (field-independent basis, Debye-Ang):
   XX=            -65.9470   YY=           -108.0191   ZZ=           -102.0729
   XY=            -16.6203   XZ=             -4.0149   YZ=              1.6929

 Normal termination of Gaussian 16 at Thu May  6 22:41:17 2021.
