 Gaussian 16, Revision A.03,
 Gaussian 16:  EM64L-G16RevA.03 25-Dec-2016

 -------------
 #p 6-31g* mp2
 -------------

 ------------------------------------------------------
 Input file generated by CHIRIPA (05-May-2021 14:57:24)
 ------------------------------------------------------
 Symbolic Z-matrix:
 Charge =  0 Multiplicity = 1

                         Standard orientation:
 ---------------------------------------------------------------------
 Center     Atomic      Atomic             Coordinates (Angstroms)
 Number     Number       Type             X           Y           Z
 ---------------------------------------------------------------------
      1          6           0        5.764272   -1.665886   -0.406561
      2          6           0        4.410941   -2.013753   -0.469848
      3          6           0        3.419663   -1.038637   -0.324714
      4          6           0        3.819170    0.280599   -0.116624
      5          6           0        5.159244    0.658600   -0.048734
      6          6           0        6.133453   -0.333170   -0.196576
      7          1           0        6.527691   -2.429848   -0.520357
      8          1           0        4.121300   -3.047964   -0.632821
      9          1           0        2.364650   -1.280226   -0.369443
     10          1           0        5.417095    1.697917    0.114820
     11          1           0        7.183702   -0.060107   -0.146979
     12          7           0        2.778783    1.321726    0.038457
     13          8           0        3.156818    2.476912    0.220861
     14          8           0        1.604993    0.962861   -0.025332
     15          6           0       -1.746756   -0.077519    1.295405
     16          6           0       -2.536817   -1.231180    1.332674
     17          6           0       -3.781780   -1.259974    0.697230
     18          6           0       -4.207568   -0.112053    0.030694
     19          6           0       -3.443417    1.052567   -0.024284
     20          6           0       -2.201775    1.058670    0.618239
     21          1           0       -0.780929   -0.063965    1.791783
     22          1           0       -2.185992   -2.115031    1.857818
     23          1           0       -4.413719   -2.139689    0.710336
     24          1           0       -3.819993    1.918129   -0.555707
     25          1           0       -1.590331    1.956024    0.587645
     26          7           0       -5.523797   -0.130525   -0.645770
     27          8           0       -5.876244    0.893884   -1.226291
     28          8           0       -6.178087   -1.169061   -0.582651
 ---------------------------------------------------------------------

 SCF Done:  E(RHF) =  -868.340059974     A.U. after   16 cycles
 E2 =    -0.2598580410D+01 EUMP2 =    -0.87093864038376D+03

 The electronic state is 1-A.
 Alpha  occ. eigenvalues --  -20.61839 -20.61782 -20.60110 -20.60097 -15.86838
 Alpha  occ. eigenvalues --  -15.85152 -11.31954 -11.30326 -11.28507 -11.28472
 Alpha  occ. eigenvalues --  -11.28172 -11.27448 -11.27427 -11.26931 -11.26798
 Alpha  occ. eigenvalues --  -11.26443 -11.25903 -11.25627  -1.60876  -1.59186
 Alpha  occ. eigenvalues --   -1.40437  -1.38745  -1.20100  -1.18460  -1.09539
 Alpha  occ. eigenvalues --   -1.07861  -1.05464  -1.03831  -0.96418  -0.94737
 Alpha  occ. eigenvalues --   -0.86873  -0.85215  -0.83259  -0.81582  -0.78337
 Alpha  occ. eigenvalues --   -0.76678  -0.73081  -0.72179  -0.71373  -0.71200
 Alpha  occ. eigenvalues --   -0.70509  -0.69495  -0.65754  -0.65460  -0.64092
 Alpha  occ. eigenvalues --   -0.63792  -0.62815  -0.61178  -0.55964  -0.54248
 Alpha  occ. eigenvalues --   -0.53805  -0.53550  -0.52177  -0.51895  -0.49839
 Alpha  occ. eigenvalues --   -0.49799  -0.48141  -0.48110  -0.45893  -0.44195
 Alpha  occ. eigenvalues --   -0.38060  -0.37057  -0.36388  -0.35443
 Alpha virt. eigenvalues --    0.04158   0.05842   0.10601   0.12217   0.15692
 Alpha virt. eigenvalues --    0.17401   0.20738   0.22470   0.26670   0.27515
 Alpha virt. eigenvalues --    0.28333   0.29248   0.30488   0.31640   0.32528

 Mulliken charges:
               1
     1  C   -0.169805
     2  C   -0.218373
     3  C   -0.171640
     4  C    0.157701
     5  C   -0.170343
     6  C   -0.218424
     7  H    0.228245
     8  H    0.225344
     9  H    0.273942
    10  H    0.276818
    11  H    0.225920
    12  N    0.490488
    13  O   -0.456363
    14  O   -0.471435
    15  C   -0.169012
    16  C   -0.221412
    17  C   -0.172934
    18  C    0.157481
    19  C   -0.173539
    20  C   -0.216621
    21  H    0.231922
    22  H    0.217064
    23  H    0.271392
    24  H    0.273924
    25  H    0.237163
    26  N    0.488203
    27  O   -0.461778
    28  O   -0.463928
 Sum of Mulliken charges =  -0.00000

 Dipole moment (field-independent basis, Debye):
    X=              8.8939    Y=             -3.4420    Z=              1.8235  Tot=              9.7094
 Quadrupole moment (field-independent basis, Debye-Ang):
   XX=           -114.3351   YY=           -100.2231   ZZ=           -105.7507
   XY=            -10.9923   XZ=            -12.3189   YZ=             -0.9288

 Normal termination of Gaussian 16 at Fri May  7 03:26:16 2021.
