 Gaussian 16, Revision A.03,
 Gaussian 16:  EM64L-G16RevA.03 25-Dec-2016

 -------------
 #p 6-31g* mp2
 -------------

 ------------------------------------------------------
 Input file generated by CHIRIPA (05-May-2021 14:57:25)
 ------------------------------------------------------
 Symbolic Z-matrix:
 Charge =  0 Multiplicity = 1

                         Standard orientation:
 ---------------------------------------------------------------------
 Center     Atomic      Atomic             Coordinates (Angstroms)
 Number     Number       Type             X           Y           Z
 ---------------------------------------------------------------------
      1          6           0       -3.903037    2.567210    0.034354
      2          6           0       -5.018212    1.915357   -0.502295
      3          6           0       -5.078820    0.518910   -0.530742
      4          6           0       -4.001613   -0.197651   -0.011651
      5          6           0       -2.876738    0.422754    0.529685
      6          6           0       -2.837737    1.820145    0.547727
      7          1           0       -3.864348    3.652370    0.052411
      8          1           0       -5.847002    2.492970   -0.901690
      9          1           0       -5.929977   -0.011368   -0.940322
     10          1           0       -2.065980   -0.180092    0.920411
     11          1           0       -1.970401    2.323695    0.965111
     12          7           0       -4.054338   -1.676507   -0.036259
     13          8           0       -3.092298   -2.284958    0.427317
     14          8           0       -5.056707   -2.199180   -0.518656
     15          6           0        1.526011   -0.396837    0.404127
     16          6           0        2.046347    0.899644    0.334065
     17          6           0        3.411601    1.105874    0.114749
     18          6           0        4.231415   -0.012173   -0.030739
     19          6           0        3.743013   -1.316227    0.034056
     20          6           0        2.374508   -1.498692    0.254163
     21          1           0        0.464186   -0.547811    0.574804
     22          1           0        1.389757    1.757231    0.450165
     23          1           0        3.840921    2.098679    0.056087
     24          1           0        4.422450   -2.151385   -0.085505
     25          1           0        1.973184   -2.506696    0.308111
     26          7           0        5.678469    0.193575   -0.263338
     27          8           0        6.379691   -0.808081   -0.388284
     28          8           0        6.084049    1.352599   -0.316300
 ---------------------------------------------------------------------

 SCF Done:  E(RHF) =  -868.337178419     A.U. after   16 cycles
 E2 =    -0.2599615048D+01 EUMP2 =    -0.87093679346656D+03

 The electronic state is 1-A.
 Alpha  occ. eigenvalues --  -20.61651 -20.61614 -20.60877 -20.60866 -15.86691
 Alpha  occ. eigenvalues --  -15.85929 -11.32101 -11.31335 -11.28795 -11.28597
 Alpha  occ. eigenvalues --  -11.28363 -11.27952 -11.27860 -11.27758 -11.27714
 Alpha  occ. eigenvalues --  -11.27604 -11.27049 -11.26854  -1.60704  -1.59948
 Alpha  occ. eigenvalues --   -1.40261  -1.39501  -1.20264  -1.19517  -1.09636
 Alpha  occ. eigenvalues --   -1.08914  -1.05690  -1.04925  -0.96475  -0.95741
 Alpha  occ. eigenvalues --   -0.87079  -0.86327  -0.83318  -0.82571  -0.78377
 Alpha  occ. eigenvalues --   -0.77600  -0.72910  -0.72147  -0.72023  -0.71398
 Alpha  occ. eigenvalues --   -0.71271  -0.70639  -0.65920  -0.65695  -0.65176
 Alpha  occ. eigenvalues --   -0.64943  -0.63060  -0.62269  -0.56164  -0.55466
 Alpha  occ. eigenvalues --   -0.53983  -0.53768  -0.53250  -0.53023  -0.49678
 Alpha  occ. eigenvalues --   -0.49653  -0.48910  -0.48899  -0.45657  -0.44897
 Alpha  occ. eigenvalues --   -0.38207  -0.37512  -0.37283  -0.36521
 Alpha virt. eigenvalues --    0.04172   0.04937   0.10346   0.11130   0.15662
 Alpha virt. eigenvalues --    0.16415   0.17730   0.22157   0.24444   0.25178
 Alpha virt. eigenvalues --    0.27735   0.29056   0.30519   0.31161   0.33199

 Mulliken charges:
               1
     1  C   -0.169874
     2  C   -0.217745
     3  C   -0.169253
     4  C    0.160763
     5  C   -0.177525
     6  C   -0.219434
     7  H    0.228646
     8  H    0.227106
     9  H    0.278465
    10  H    0.273032
    11  H    0.219528
    12  N    0.487904
    13  O   -0.464966
    14  O   -0.455732
    15  C   -0.173249
    16  C   -0.219708
    17  C   -0.170517
    18  C    0.158701
    19  C   -0.170350
    20  C   -0.220191
    21  H    0.227884
    22  H    0.215056
    23  H    0.274947
    24  H    0.277304
    25  H    0.231211
    26  N    0.487983
    27  O   -0.459029
    28  O   -0.460956
 Sum of Mulliken charges =  -0.00000

 Dipole moment (field-independent basis, Debye):
    X=             -5.1256    Y=              4.4192    Z=              0.8028  Tot=              6.8151
 Quadrupole moment (field-independent basis, Debye-Ang):
   XX=           -144.2055   YY=           -102.1322   ZZ=           -105.5767
   XY=            -25.7161   XZ=              5.8112   YZ=             -0.0250

 Normal termination of Gaussian 16 at Thu May  6 18:03:49 2021.
