 Gaussian 16, Revision A.03,
 Gaussian 16:  EM64L-G16RevA.03 25-Dec-2016

 -------------
 #p 6-31g* mp2
 -------------

 ------------------------------------------------------
 Input file generated by CHIRIPA (05-May-2021 14:53:12)
 ------------------------------------------------------
 Symbolic Z-matrix:
 Charge =  0 Multiplicity = 1

                         Standard orientation:
 ---------------------------------------------------------------------
 Center     Atomic      Atomic             Coordinates (Angstroms)
 Number     Number       Type             X           Y           Z
 ---------------------------------------------------------------------
      1          6           0        4.301323    0.138712    0.398033
      2          6           0        5.191327   -0.187924   -0.801628
      3          6           0        6.536933    0.536560   -0.754071
      4          1           0        4.133967    1.223776    0.437704
      5          1           0        4.830942   -0.129874    1.322565
      6          1           0        4.659635    0.079915   -1.723682
      7          1           0        5.356426   -1.272357   -0.838559
      8          1           0        7.090867    0.261441    0.149293
      9          1           0        6.390117    1.621397   -0.740859
     10          1           0        7.157208    0.288686   -1.621064
     11          6           0        2.952642   -0.578003    0.364765
     12          6           0        2.062639   -0.251367    1.564427
     13          6           0        0.717033   -0.975851    1.516870
     14          1           0        2.423023   -0.309417   -0.559767
     15          1           0        3.119998   -1.663067    0.325095
     16          1           0        1.897539    0.833066    1.601357
     17          1           0        2.594330   -0.519206    2.486480
     18          1           0        0.863848   -2.060688    1.503657
     19          1           0        0.163098   -0.700732    0.613505
     20          1           0        0.096757   -0.727977    2.383863
     21          6           0       -3.163800   -2.316108   -0.559115
     22          6           0       -3.987138   -1.587653    0.305750
     23          6           0       -3.813234   -0.208873    0.458299
     24          6           0       -2.801656    0.412100   -0.272721
     25          6           0       -1.965195   -0.286168   -1.142230
     26          6           0       -2.157232   -1.664189   -1.279075
     27          1           0       -3.305936   -3.386882   -0.671520
     28          1           0       -4.769658   -2.091301    0.866148
     29          1           0       -4.436384    0.379345    1.120947
     30          1           0       -1.193628    0.243715   -1.687505
     31          1           0       -1.516323   -2.227372   -1.951465
     32          7           0       -2.607954    1.871351   -0.119536
     33          8           0       -1.709586    2.394940   -0.774844
     34          8           0       -3.358164    2.463893    0.652938
 ---------------------------------------------------------------------

 SCF Done:  E(RHF) =  -669.534814111     A.U. after   15 cycles
 E2 =    -0.2092503287D+01 EUMP2 =    -0.67162731739814D+03

 The electronic state is 1-A.
 Alpha  occ. eigenvalues --  -20.60800 -20.60795 -15.85854 -11.31211 -11.27782
 Alpha  occ. eigenvalues --  -11.27779 -11.27523 -11.26800 -11.26790 -11.21581
 Alpha  occ. eigenvalues --  -11.21488 -11.21399 -11.21303 -11.21018 -11.20978
 Alpha  occ. eigenvalues --   -1.59875  -1.39429  -1.19397  -1.08782  -1.08388
 Alpha  occ. eigenvalues --   -1.04810  -1.03475  -0.95941  -0.95620  -0.86958
 Alpha  occ. eigenvalues --   -0.86197  -0.82457  -0.79543  -0.78213  -0.77504
 Alpha  occ. eigenvalues --   -0.72073  -0.71199  -0.70507  -0.65050  -0.65019
 Alpha  occ. eigenvalues --   -0.64797  -0.62156  -0.60881  -0.59303  -0.57562
 Alpha  occ. eigenvalues --   -0.55328  -0.55275  -0.53263  -0.52891  -0.52599
 Alpha  occ. eigenvalues --   -0.52246  -0.49849  -0.48832  -0.48828  -0.47857
 Alpha  occ. eigenvalues --   -0.46567  -0.45753  -0.45673  -0.44832  -0.43738
 Alpha  occ. eigenvalues --   -0.37355  -0.36319
 Alpha virt. eigenvalues --    0.05012   0.11193   0.16502   0.21174   0.22908
 Alpha virt. eigenvalues --    0.24287   0.26281   0.27221   0.27716   0.28085
 Alpha virt. eigenvalues --    0.28556   0.30850   0.31488   0.31865   0.32005

 Mulliken charges:
               1
     1  C   -0.298709
     2  C   -0.299554
     3  C   -0.475822
     4  H    0.153313
     5  H    0.149528
     6  H    0.151475
     7  H    0.150183
     8  H    0.155074
     9  H    0.156842
    10  H    0.159708
    11  C   -0.297082
    12  C   -0.300265
    13  C   -0.479622
    14  H    0.145969
    15  H    0.146670
    16  H    0.158355
    17  H    0.151118
    18  H    0.150010
    19  H    0.158092
    20  H    0.160757
    21  C   -0.170445
    22  C   -0.217807
    23  C   -0.171219
    24  C    0.164096
    25  C   -0.178202
    26  C   -0.213917
    27  H    0.225839
    28  H    0.223611
    29  H    0.275671
    30  H    0.275512
    31  H    0.224172
    32  N    0.488196
    33  O   -0.461305
    34  O   -0.460242
 Sum of Mulliken charges =  -0.00000

 Dipole moment (field-independent basis, Debye):
    X=             -0.7553    Y=             -5.0969    Z=             -0.5324  Tot=              5.1800
 Quadrupole moment (field-independent basis, Debye-Ang):
   XX=            -89.1694   YY=            -99.2648   ZZ=            -92.6058
   XY=             13.7514   XZ=             -0.8342   YZ=              1.0893

 Normal termination of Gaussian 16 at Thu May  6 07:18:06 2021.
