 Gaussian 16, Revision A.03,
 Gaussian 16:  EM64L-G16RevA.03 25-Dec-2016

 -------------
 #p 6-31g* mp2
 -------------

 ------------------------------------------------------
 Input file generated by CHIRIPA (05-May-2021 14:53:14)
 ------------------------------------------------------
 Symbolic Z-matrix:
 Charge =  0 Multiplicity = 1

                         Standard orientation:
 ---------------------------------------------------------------------
 Center     Atomic      Atomic             Coordinates (Angstroms)
 Number     Number       Type             X           Y           Z
 ---------------------------------------------------------------------
      1          6           0        2.386105    0.975417   -0.209076
      2          6           0        2.468308    2.499287   -0.304201
      3          6           0        1.098781    3.155152   -0.483177
      4          1           0        1.905821    0.583162   -1.115943
      5          1           0        1.734842    0.702150    0.632694
      6          1           0        3.120330    2.769591   -1.144689
      7          1           0        2.948626    2.887945    0.602912
      8          1           0        0.443239    2.914469    0.359994
      9          1           0        0.615919    2.795442   -1.397536
     10          1           0        1.180875    4.244556   -0.548890
     11          6           0        3.747207    0.305305   -0.029963
     12          6           0        3.665004   -1.218565    0.065162
     13          6           0        5.034531   -1.874430    0.244138
     14          1           0        4.398470    0.578572   -0.871733
     15          1           0        4.227491    0.697560    0.876904
     16          1           0        3.184686   -1.607223   -0.841951
     17          1           0        3.012982   -1.488869    0.905650
     18          1           0        5.517393   -1.514720    1.158497
     19          1           0        5.690073   -1.633747   -0.599033
     20          1           0        4.952437   -2.963834    0.309850
     21          6           0       -3.572020    1.719131    0.331484
     22          6           0       -4.232110    0.636985   -0.259921
     23          6           0       -3.590173   -0.597381   -0.397059
     24          6           0       -2.282115   -0.714847    0.070355
     25          6           0       -1.597799    0.344652    0.664040
     26          6           0       -2.259285    1.569775    0.790768
     27          1           0       -4.078285    2.674426    0.433972
     28          1           0       -5.251611    0.750077   -0.617515
     29          1           0       -4.077676   -1.451617   -0.850976
     30          1           0       -0.581654    0.201371    1.010937
     31          1           0       -1.744185    2.408458    1.250472
     32          7           0       -1.592177   -2.016721   -0.069316
     33          8           0       -0.439654   -2.094421    0.350556
     34          8           0       -2.216989   -2.934780   -0.596018
 ---------------------------------------------------------------------

 SCF Done:  E(RHF) =  -669.534635740     A.U. after   15 cycles
 E2 =    -0.2093269727D+01 EUMP2 =    -0.67162790546703D+03

 The electronic state is 1-A.
 Alpha  occ. eigenvalues --  -20.60754 -20.60746 -15.85799 -11.31134 -11.27708
 Alpha  occ. eigenvalues --  -11.27670 -11.27443 -11.26722 -11.26688 -11.21849
 Alpha  occ. eigenvalues --  -11.21618 -11.21444 -11.21146 -11.20926 -11.20534
 Alpha  occ. eigenvalues --   -1.59824  -1.39378  -1.19309  -1.08710  -1.08341
 Alpha  occ. eigenvalues --   -1.04715  -1.03418  -0.95932  -0.95549  -0.86966
 Alpha  occ. eigenvalues --   -0.86103  -0.82391  -0.79534  -0.78095  -0.77387
 Alpha  occ. eigenvalues --   -0.72017  -0.71145  -0.70425  -0.65023  -0.64945
 Alpha  occ. eigenvalues --   -0.64742  -0.62108  -0.60789  -0.59330  -0.57494
 Alpha  occ. eigenvalues --   -0.55280  -0.55215  -0.53079  -0.52926  -0.52581
 Alpha  occ. eigenvalues --   -0.52213  -0.49887  -0.48782  -0.48777  -0.47800
 Alpha  occ. eigenvalues --   -0.46561  -0.45610  -0.45471  -0.44764  -0.43673
 Alpha  occ. eigenvalues --   -0.37291  -0.36273
 Alpha virt. eigenvalues --    0.05081   0.11304   0.16505   0.20002   0.23159
 Alpha virt. eigenvalues --    0.24279   0.25278   0.26333   0.27244   0.28432
 Alpha virt. eigenvalues --    0.29523   0.30685   0.31582   0.32057   0.32211

 Mulliken charges:
               1
     1  C   -0.300376
     2  C   -0.299737
     3  C   -0.476143
     4  H    0.154865
     5  H    0.145054
     6  H    0.154617
     7  H    0.151522
     8  H    0.142249
     9  H    0.159632
    10  H    0.160650
    11  C   -0.298746
    12  C   -0.300105
    13  C   -0.476462
    14  H    0.148669
    15  H    0.147290
    16  H    0.158268
    17  H    0.160894
    18  H    0.152146
    19  H    0.152454
    20  H    0.163337
    21  C   -0.171458
    22  C   -0.219024
    23  C   -0.170552
    24  C    0.155682
    25  C   -0.173170
    26  C   -0.220631
    27  H    0.225620
    28  H    0.223154
    29  H    0.275288
    30  H    0.284378
    31  H    0.224923
    32  N    0.487688
    33  O   -0.461380
    34  O   -0.460595
 Sum of Mulliken charges =  -0.00000

 Dipole moment (field-independent basis, Debye):
    X=             -2.3775    Y=              4.4608    Z=              0.4083  Tot=              5.0713
 Quadrupole moment (field-independent basis, Debye-Ang):
   XX=            -81.5327   YY=           -101.6521   ZZ=            -93.4243
   XY=             -6.7855   XZ=              0.3954   YZ=              0.9643

 Normal termination of Gaussian 16 at Wed May  5 18:37:03 2021.
