 Gaussian 16, Revision A.03,
 Gaussian 16:  EM64L-G16RevA.03 25-Dec-2016

 -------------
 #p 6-31g* mp2
 -------------

 ------------------------------------------------------
 Input file generated by CHIRIPA (05-May-2021 14:53:14)
 ------------------------------------------------------
 Symbolic Z-matrix:
 Charge =  0 Multiplicity = 1

                         Standard orientation:
 ---------------------------------------------------------------------
 Center     Atomic      Atomic             Coordinates (Angstroms)
 Number     Number       Type             X           Y           Z
 ---------------------------------------------------------------------
      1          6           0        3.374383   -0.457608   -0.161878
      2          6           0        4.577063   -0.943334   -0.971579
      3          6           0        4.538372   -2.447530   -1.243042
      4          1           0        3.337730   -1.002822    0.791193
      5          1           0        2.451415   -0.710027   -0.702072
      6          1           0        5.497540   -0.688844   -0.430679
      7          1           0        4.610967   -0.396765   -1.922751
      8          1           0        3.636663   -2.714777   -1.803489
      9          1           0        4.528273   -3.008516   -0.302939
     10          1           0        5.407398   -2.773268   -1.823171
     11          6           0        3.398797    1.044070    0.117575
     12          6           0        2.196117    1.529797    0.927276
     13          6           0        2.234808    3.033992    1.198739
     14          1           0        4.321765    1.296489    0.657769
     15          1           0        3.435450    1.589284   -0.835495
     16          1           0        2.162213    0.983227    1.878448
     17          1           0        1.275641    1.275306    0.386376
     18          1           0        2.244907    3.594978    0.258636
     19          1           0        3.136517    3.301239    1.759186
     20          1           0        1.365782    3.359730    1.778869
     21          6           0       -2.053880   -2.141350    1.553156
     22          6           0       -1.317253   -0.953147    1.598731
     23          6           0       -1.636286    0.112926    0.752414
     24          6           0       -2.702996   -0.044216   -0.131175
     25          6           0       -3.455821   -1.215440   -0.200295
     26          6           0       -3.118935   -2.268480    0.655372
     27          1           0       -1.799113   -2.964438    2.214226
     28          1           0       -0.489604   -0.851597    2.294955
     29          1           0       -1.082697    1.043921    0.766773
     30          1           0       -4.275437   -1.286967   -0.904944
     31          1           0       -3.692757   -3.190088    0.617784
     32          7           0       -3.050192    1.077489   -1.032081
     33          8           0       -3.994545    0.913968   -1.801558
     34          8           0       -2.371396    2.098962   -0.951676
 ---------------------------------------------------------------------

 SCF Done:  E(RHF) =  -669.535592055     A.U. after   15 cycles
 E2 =    -0.2091660395D+01 EUMP2 =    -0.67162725245057D+03

 The electronic state is 1-A.
 Alpha  occ. eigenvalues --  -20.60762 -20.60756 -15.85813 -11.31159 -11.27733
 Alpha  occ. eigenvalues --  -11.27692 -11.27468 -11.26751 -11.26722 -11.22122
 Alpha  occ. eigenvalues --  -11.21855 -11.21738 -11.21678 -11.21322 -11.21320
 Alpha  occ. eigenvalues --   -1.59837  -1.39391  -1.19333  -1.08772  -1.08732
 Alpha  occ. eigenvalues --   -1.04732  -1.03857  -0.96272  -0.95570  -0.87286
 Alpha  occ. eigenvalues --   -0.86132  -0.82401  -0.79955  -0.78614  -0.77437
 Alpha  occ. eigenvalues --   -0.72032  -0.71161  -0.70450  -0.65411  -0.64983
 Alpha  occ. eigenvalues --   -0.64725  -0.62123  -0.61220  -0.59645  -0.57902
 Alpha  occ. eigenvalues --   -0.55541  -0.55233  -0.53076  -0.52961  -0.52827
 Alpha  occ. eigenvalues --   -0.52696  -0.50196  -0.48791  -0.48789  -0.48246
 Alpha  occ. eigenvalues --   -0.46966  -0.46134  -0.46045  -0.44799  -0.44105
 Alpha  occ. eigenvalues --   -0.37317  -0.36320
 Alpha virt. eigenvalues --    0.05049   0.11277   0.16540   0.20282   0.22783
 Alpha virt. eigenvalues --    0.23792   0.25517   0.25942   0.27221   0.28237
 Alpha virt. eigenvalues --    0.29289   0.29986   0.31437   0.31586   0.32084

 Mulliken charges:
               1
     1  C   -0.299107
     2  C   -0.299979
     3  C   -0.475932
     4  H    0.145162
     5  H    0.151476
     6  H    0.152283
     7  H    0.154520
     8  H    0.155888
     9  H    0.153330
    10  H    0.161553
    11  C   -0.297688
    12  C   -0.307100
    13  C   -0.475726
    14  H    0.150629
    15  H    0.154691
    16  H    0.144609
    17  H    0.152742
    18  H    0.162532
    19  H    0.155888
    20  H    0.160128
    21  C   -0.170939
    22  C   -0.219599
    23  C   -0.176306
    24  C    0.158984
    25  C   -0.171004
    26  C   -0.218490
    27  H    0.225547
    28  H    0.225216
    29  H    0.281430
    30  H    0.275415
    31  H    0.223332
    32  N    0.487786
    33  O   -0.460445
    34  O   -0.460828
 Sum of Mulliken charges =  -0.00000

 Dipole moment (field-independent basis, Debye):
    X=              1.3209    Y=             -3.8864    Z=              3.0918  Tot=              5.1389
 Quadrupole moment (field-independent basis, Debye-Ang):
   XX=            -98.4757   YY=            -94.2032   ZZ=            -94.8744
   XY=             13.3973   XZ=             -6.9222   YZ=              1.0233

 Normal termination of Gaussian 16 at Wed May  5 23:28:57 2021.
