 Gaussian 16, Revision A.03,
 Gaussian 16:  EM64L-G16RevA.03 25-Dec-2016

 -------------
 #p 6-31g* mp2
 -------------

 ------------------------------------------------------
 Input file generated by CHIRIPA (05-May-2021 14:53:14)
 ------------------------------------------------------
 Symbolic Z-matrix:
 Charge =  0 Multiplicity = 1

                         Standard orientation:
 ---------------------------------------------------------------------
 Center     Atomic      Atomic             Coordinates (Angstroms)
 Number     Number       Type             X           Y           Z
 ---------------------------------------------------------------------
      1          6           0        4.653762    0.445063   -0.479613
      2          6           0        5.907052    0.712433    0.354511
      3          6           0        6.774171    1.831345   -0.223359
      4          1           0        4.951683    0.187499   -1.505210
      5          1           0        4.063480    1.369311   -0.548372
      6          1           0        6.494100   -0.212404    0.422835
      7          1           0        5.606121    0.969203    1.378291
      8          1           0        6.209762    2.767972   -0.276013
      9          1           0        7.102786    1.579651   -1.236899
     10          1           0        7.664699    2.005818    0.388507
     11          6           0        3.776712   -0.670877    0.085353
     12          6           0        2.523422   -0.938247   -0.748772
     13          6           0        1.656303   -2.057159   -0.170901
     14          1           0        4.366994   -1.595125    0.154112
     15          1           0        3.478791   -0.413313    1.110950
     16          1           0        2.824353   -1.195017   -1.772552
     17          1           0        1.936374   -0.013410   -0.817095
     18          1           0        1.327688   -1.805465    0.842639
     19          1           0        2.220713   -2.993786   -0.118247
     20          1           0        0.765775   -2.231632   -0.782767
     21          6           0       -5.188295    1.567402   -0.611726
     22          6           0       -4.277247    2.034110    0.341529
     23          6           0       -3.223360    1.223202    0.773151
     24          6           0       -3.109939   -0.054794    0.228037
     25          6           0       -4.001520   -0.548368   -0.723152
     26          6           0       -5.047773    0.279922   -1.140092
     27          1           0       -6.004015    2.204086   -0.941318
     28          1           0       -4.383921    3.033544    0.753594
     29          1           0       -2.503834    1.559293    1.509862
     30          1           0       -3.869273   -1.549284   -1.115702
     31          1           0       -5.753813   -0.085172   -1.880535
     32          7           0       -1.998277   -0.922467    0.677204
     33          8           0       -1.920227   -2.044474    0.181579
     34          8           0       -1.226055   -0.464113    1.516383
 ---------------------------------------------------------------------

 SCF Done:  E(RHF) =  -669.536136894     A.U. after   15 cycles
 E2 =    -0.2091822855D+01 EUMP2 =    -0.67162795974947D+03

 The electronic state is 1-A.
 Alpha  occ. eigenvalues --  -20.61007 -20.60994 -15.86009 -11.31328 -11.27886
 Alpha  occ. eigenvalues --  -11.27883 -11.27620 -11.26889 -11.26880 -11.20977
 Alpha  occ. eigenvalues --  -11.20608 -11.20587 -11.20342 -11.20273 -11.19052
 Alpha  occ. eigenvalues --   -1.60041  -1.39602  -1.19491  -1.08897  -1.07490
 Alpha  occ. eigenvalues --   -1.04885  -1.02475  -0.95746  -0.94881  -0.86286
 Alpha  occ. eigenvalues --   -0.85891  -0.82576  -0.78591  -0.77631  -0.77256
 Alpha  occ. eigenvalues --   -0.72235  -0.71357  -0.70600  -0.65147  -0.64889
 Alpha  occ. eigenvalues --   -0.64130  -0.62233  -0.59877  -0.58354  -0.56496
 Alpha  occ. eigenvalues --   -0.55396  -0.54182  -0.53217  -0.52977  -0.51572
 Alpha  occ. eigenvalues --   -0.51320  -0.49239  -0.48975  -0.48539  -0.46885
 Alpha  occ. eigenvalues --   -0.45631  -0.45025  -0.44770  -0.44674  -0.42678
 Alpha  occ. eigenvalues --   -0.37466  -0.36485
 Alpha virt. eigenvalues --    0.04872   0.11170   0.16361   0.21305   0.23727
 Alpha virt. eigenvalues --    0.25468   0.27226   0.27531   0.28180   0.28363
 Alpha virt. eigenvalues --    0.29280   0.30896   0.32322   0.32478   0.32611

 Mulliken charges:
               1
     1  C   -0.297077
     2  C   -0.298948
     3  C   -0.475047
     4  H    0.147245
     5  H    0.147108
     6  H    0.151211
     7  H    0.151653
     8  H    0.153619
     9  H    0.154030
    10  H    0.158386
    11  C   -0.297692
    12  C   -0.299073
    13  C   -0.481176
    14  H    0.147299
    15  H    0.151800
    16  H    0.144629
    17  H    0.147166
    18  H    0.174728
    19  H    0.144722
    20  H    0.168306
    21  C   -0.170522
    22  C   -0.218540
    23  C   -0.170788
    24  C    0.159181
    25  C   -0.170805
    26  C   -0.218538
    27  H    0.226129
    28  H    0.223919
    29  H    0.275693
    30  H    0.275871
    31  H    0.223972
    32  N    0.488818
    33  O   -0.457753
    34  O   -0.459526
 Sum of Mulliken charges =  -0.00000

 Dipole moment (field-independent basis, Debye):
    X=             -4.3211    Y=              3.0116    Z=             -1.4577  Tot=              5.4650
 Quadrupole moment (field-independent basis, Debye-Ang):
   XX=            -71.8983   YY=            -93.0298   ZZ=            -94.0139
   XY=             -9.1714   XZ=              5.5900   YZ=              3.8697

 Normal termination of Gaussian 16 at Thu May  6 10:30:26 2021.
