 Gaussian 16, Revision A.03,
 Gaussian 16:  EM64L-G16RevA.03 25-Dec-2016

 -------------
 #p 6-31g* mp2
 -------------

 ------------------------------------------------------
 Input file generated by CHIRIPA (05-May-2021 14:57:24)
 ------------------------------------------------------
 Symbolic Z-matrix:
 Charge =  0 Multiplicity = 1

                         Standard orientation:
 ---------------------------------------------------------------------
 Center     Atomic      Atomic             Coordinates (Angstroms)
 Number     Number       Type             X           Y           Z
 ---------------------------------------------------------------------
      1          6           0       -4.891482    2.148718    0.580380
      2          6           0       -5.572071    0.946780    0.359776
      3          6           0       -4.875557   -0.203937   -0.021364
      4          6           0       -3.492615   -0.116512   -0.173407
      5          6           0       -2.786103    1.066279    0.039049
      6          6           0       -3.503118    2.204533    0.419596
      7          1           0       -5.440513    3.037782    0.876229
      8          1           0       -6.650263    0.900491    0.483889
      9          1           0       -5.377366   -1.147433   -0.198623
     10          1           0       -1.710997    1.081416   -0.092616
     11          1           0       -2.971935    3.136611    0.590242
     12          7           0       -2.744395   -1.328127   -0.576589
     13          8           0       -1.526284   -1.224928   -0.703832
     14          8           0       -3.390220   -2.358048   -0.757725
     15          6           0        5.245186    1.597448   -0.834820
     16          6           0        5.315821    1.233941    0.514029
     17          6           0        4.418254    0.303749    1.046630
     18          6           0        3.458420   -0.245654    0.198005
     19          6           0        3.362589    0.096187   -1.150050
     20          6           0        4.270513    1.028415   -1.661097
     21          1           0        5.946461    2.320835   -1.240186
     22          1           0        6.071724    1.674238    1.158075
     23          1           0        4.450475    0.004393    2.087191
     24          1           0        2.598097   -0.359816   -1.767327
     25          1           0        4.213302    1.308840   -2.709017
     26          7           0        2.502723   -1.231485    0.750437
     27          8           0        1.666370   -1.701077   -0.018089
     28          8           0        2.608097   -1.515917    1.941500
 ---------------------------------------------------------------------

 SCF Done:  E(RHF) =  -868.335382548     A.U. after   16 cycles
 E2 =    -0.2600303352D+01 EUMP2 =    -0.87093568589941D+03

 The electronic state is 1-A.
 Alpha  occ. eigenvalues --  -20.60039 -20.59951 -20.59906 -20.59864 -15.85018
 Alpha  occ. eigenvalues --  -15.84963 -11.30718 -11.30643 -11.27348 -11.27286
 Alpha  occ. eigenvalues --  -11.27256 -11.27249 -11.27144 -11.27061 -11.26429
 Alpha  occ. eigenvalues --  -11.26401 -11.26349 -11.26332  -1.59054  -1.58985
 Alpha  occ. eigenvalues --   -1.38594  -1.38525  -1.18928  -1.18848  -1.08266
 Alpha  occ. eigenvalues --   -1.08187  -1.04373  -1.04300  -0.95047  -0.94957
 Alpha  occ. eigenvalues --   -0.85754  -0.85684  -0.81891  -0.81760  -0.76876
 Alpha  occ. eigenvalues --   -0.76768  -0.71365  -0.71015  -0.70403  -0.70312
 Alpha  occ. eigenvalues --   -0.70025  -0.69956  -0.64570  -0.64484  -0.64376
 Alpha  occ. eigenvalues --   -0.64312  -0.61706  -0.61647  -0.54870  -0.54798
 Alpha  occ. eigenvalues --   -0.52699  -0.52610  -0.52463  -0.52401  -0.48073
 Alpha  occ. eigenvalues --   -0.47979  -0.47935  -0.47890  -0.43998  -0.43767
 Alpha  occ. eigenvalues --   -0.36939  -0.36847  -0.35999  -0.35917
 Alpha virt. eigenvalues --    0.05632   0.05793   0.11650   0.11733   0.17061
 Alpha virt. eigenvalues --    0.17222   0.21746   0.21835   0.27648   0.27705
 Alpha virt. eigenvalues --    0.28622   0.28810   0.31222   0.31405   0.32841

 Mulliken charges:
               1
     1  C   -0.171777
     2  C   -0.218484
     3  C   -0.171262
     4  C    0.159480
     5  C   -0.170560
     6  C   -0.218444
     7  H    0.223318
     8  H    0.221775
     9  H    0.275310
    10  H    0.274953
    11  H    0.220614
    12  N    0.487954
    13  O   -0.449323
    14  O   -0.463813
    15  C   -0.172157
    16  C   -0.218934
    17  C   -0.172245
    18  C    0.157512
    19  C   -0.173118
    20  C   -0.219339
    21  H    0.223409
    22  H    0.221382
    23  H    0.274597
    24  H    0.281124
    25  H    0.222157
    26  N    0.485817
    27  O   -0.443481
    28  O   -0.466464
 Sum of Mulliken charges =  -0.00000

 Dipole moment (field-independent basis, Debye):
    X=              0.7087    Y=              7.5155    Z=             -0.6244  Tot=              7.5746
 Quadrupole moment (field-independent basis, Debye-Ang):
   XX=            -61.1957   YY=           -107.5613   ZZ=           -103.2645
   XY=             -0.6859   XZ=             -8.5680   YZ=              0.9077

 Normal termination of Gaussian 16 at Thu May  6 08:13:22 2021.
