 Gaussian 16, Revision A.03,
 Gaussian 16:  EM64L-G16RevA.03 25-Dec-2016

 -------------
 #p 6-31g* mp2
 -------------

 ------------------------------------------------------
 Input file generated by CHIRIPA (05-May-2021 14:57:26)
 ------------------------------------------------------
 Symbolic Z-matrix:
 Charge =  0 Multiplicity = 1

                         Standard orientation:
 ---------------------------------------------------------------------
 Center     Atomic      Atomic             Coordinates (Angstroms)
 Number     Number       Type             X           Y           Z
 ---------------------------------------------------------------------
      1          6           0       -3.630176   -2.210544    0.524760
      2          6           0       -3.096148   -1.949410   -0.741393
      3          6           0       -2.777828   -0.642348   -1.121932
      4          6           0       -3.007525    0.384218   -0.207224
      5          6           0       -3.538308    0.156071    1.061439
      6          6           0       -3.849166   -1.158824    1.420556
      7          1           0       -3.874556   -3.228944    0.812052
      8          1           0       -2.925013   -2.764220   -1.439133
      9          1           0       -2.363270   -0.411926   -2.095824
     10          1           0       -3.697685    0.989062    1.735342
     11          1           0       -4.263781   -1.358662    2.404530
     12          7           0       -2.674483    1.772093   -0.598745
     13          8           0       -2.886318    2.658984    0.225384
     14          8           0       -2.207917    1.946739   -1.722334
     15          6           0        0.572677   -0.444286    0.432048
     16          6           0        1.275234    0.440603    1.256612
     17          6           0        2.654877    0.608601    1.105253
     18          6           0        3.303112   -0.127559    0.114723
     19          6           0        2.631028   -1.016874   -0.722362
     20          6           0        1.251620   -1.168922   -0.553071
     21          1           0       -0.498972   -0.568595    0.556592
     22          1           0        0.750567    1.004679    2.022503
     23          1           0        3.223384    1.286877    1.729881
     24          1           0        3.181537   -1.565346   -1.477038
     25          1           0        0.708584   -1.856849   -1.194877
     26          7           0        4.763555    0.041850   -0.055005
     27          8           0        5.311439   -0.618381   -0.935094
     28          8           0        5.332713    0.831654    0.695265
 ---------------------------------------------------------------------

 SCF Done:  E(RHF) =  -868.336474487     A.U. after   16 cycles
 E2 =    -0.2602938059D+01 EUMP2 =    -0.87093941254640D+03

 The electronic state is 1-A.
 Alpha  occ. eigenvalues --  -20.61801 -20.61770 -20.60565 -20.60557 -15.86849
 Alpha  occ. eigenvalues --  -15.85619 -11.32450 -11.30960 -11.29044 -11.29024
 Alpha  occ. eigenvalues --  -11.28776 -11.28096 -11.28063 -11.27574 -11.27519
 Alpha  occ. eigenvalues --  -11.27161 -11.26600 -11.26497  -1.60863  -1.59640
 Alpha  occ. eigenvalues --   -1.40406  -1.39194  -1.20705  -1.19133  -1.09997
 Alpha  occ. eigenvalues --   -1.08531  -1.06093  -1.04547  -0.96786  -0.95373
 Alpha  occ. eigenvalues --   -0.87442  -0.85949  -0.83593  -0.82219  -0.78619
 Alpha  occ. eigenvalues --   -0.77267  -0.73047  -0.72270  -0.71839  -0.71682
 Alpha  occ. eigenvalues --   -0.70961  -0.70258  -0.66277  -0.66019  -0.64792
 Alpha  occ. eigenvalues --   -0.64587  -0.63386  -0.61910  -0.56496  -0.55766
 Alpha  occ. eigenvalues --   -0.54115  -0.53694  -0.52855  -0.52651  -0.49831
 Alpha  occ. eigenvalues --   -0.49797  -0.48595  -0.48593  -0.45748  -0.44605
 Alpha  occ. eigenvalues --   -0.38690  -0.37777  -0.37021  -0.36149
 Alpha virt. eigenvalues --    0.03857   0.05272   0.09878   0.11522   0.15290
 Alpha virt. eigenvalues --    0.16776   0.20120   0.21745   0.25762   0.27113
 Alpha virt. eigenvalues --    0.27817   0.28601   0.29915   0.31386   0.31488

 Mulliken charges:
               1
     1  C   -0.171575
     2  C   -0.220219
     3  C   -0.182431
     4  C    0.151100
     5  C   -0.176818
     6  C   -0.217279
     7  H    0.231214
     8  H    0.227371
     9  H    0.279757
    10  H    0.279232
    11  H    0.228924
    12  N    0.489477
    13  O   -0.458826
    14  O   -0.454660
    15  C   -0.176391
    16  C   -0.219698
    17  C   -0.169250
    18  C    0.158240
    19  C   -0.169936
    20  C   -0.220183
    21  H    0.236280
    22  H    0.224596
    23  H    0.275950
    24  H    0.274054
    25  H    0.214671
    26  N    0.488170
    27  O   -0.461583
    28  O   -0.460190
 Sum of Mulliken charges =  -0.00000

 Dipole moment (field-independent basis, Debye):
    X=             -6.6269    Y=             -5.4189    Z=              2.0079  Tot=              8.7928
 Quadrupole moment (field-independent basis, Debye-Ang):
   XX=           -131.8594   YY=           -106.3902   ZZ=            -98.7500
   XY=             12.9507   XZ=             -4.2171   YZ=              5.8288

 Normal termination of Gaussian 16 at Wed May  5 22:49:07 2021.
