 Gaussian 16, Revision A.03,
 Gaussian 16:  EM64L-G16RevA.03 25-Dec-2016

 -------------
 #p 6-31g* mp2
 -------------

 ------------------------------------------------------
 Input file generated by CHIRIPA (05-May-2021 14:53:12)
 ------------------------------------------------------
 Symbolic Z-matrix:
 Charge =  0 Multiplicity = 1

                         Standard orientation:
 ---------------------------------------------------------------------
 Center     Atomic      Atomic             Coordinates (Angstroms)
 Number     Number       Type             X           Y           Z
 ---------------------------------------------------------------------
      1          6           0       -3.082894   -0.892217    0.142159
      2          6           0       -2.435756   -1.063800    1.516844
      3          6           0       -1.430279   -2.214959    1.557359
      4          1           0       -3.583746   -1.828506   -0.139718
      5          1           0       -2.297088   -0.720442   -0.606437
      6          1           0       -3.222646   -1.233823    2.262841
      7          1           0       -1.936550   -0.126931    1.795565
      8          1           0       -0.624912   -2.048626    0.834643
      9          1           0       -1.918316   -3.161807    1.304574
     10          1           0       -0.979715   -2.319735    2.549264
     11          6           0       -4.090460    0.254675    0.085787
     12          6           0       -4.737598    0.426258   -1.288897
     13          6           0       -5.743076    1.577417   -1.329413
     14          1           0       -4.876266    0.082900    0.834384
     15          1           0       -3.589609    1.190965    0.367664
     16          1           0       -5.236804   -0.510611   -1.567619
     17          1           0       -3.950708    0.596281   -2.034895
     18          1           0       -5.255039    2.524265   -1.076628
     19          1           0       -6.548442    1.411084   -0.606697
     20          1           0       -6.193640    1.682193   -2.321318
     21          6           0        2.352410    2.340255    1.249064
     22          6           0        3.225411    2.382208    0.156988
     23          6           0        3.481986    1.229661   -0.591580
     24          6           0        2.845565    0.046869   -0.218405
     25          6           0        1.970676   -0.026942    0.864374
     26          6           0        1.728928    1.137934    1.598655
     27          1           0        2.158856    3.240370    1.825021
     28          1           0        3.711024    3.314549   -0.116809
     29          1           0        4.153337    1.233892   -1.441691
     30          1           0        1.501435   -0.971072    1.113073
     31          1           0        1.050473    1.102392    2.446288
     32          7           0        3.109342   -1.179807   -1.003318
     33          8           0        2.536121   -2.209416   -0.654089
     34          8           0        3.884315   -1.088440   -1.952898
 ---------------------------------------------------------------------

 SCF Done:  E(RHF) =  -669.535668168     A.U. after   15 cycles
 E2 =    -0.2091533358D+01 EUMP2 =    -0.67162720152615D+03

 The electronic state is 1-A.
 Alpha  occ. eigenvalues --  -20.60796 -20.60791 -15.85843 -11.31196 -11.27777
 Alpha  occ. eigenvalues --  -11.27731 -11.27520 -11.26793 -11.26778 -11.21979
 Alpha  occ. eigenvalues --  -11.21729 -11.21600 -11.21540 -11.21373 -11.21208
 Alpha  occ. eigenvalues --   -1.59867  -1.39421  -1.19376  -1.08774  -1.08651
 Alpha  occ. eigenvalues --   -1.04778  -1.03769  -0.96210  -0.95607  -0.87225
 Alpha  occ. eigenvalues --   -0.86175  -0.82438  -0.79830  -0.78450  -0.77488
 Alpha  occ. eigenvalues --   -0.72062  -0.71189  -0.70493  -0.65296  -0.65026
 Alpha  occ. eigenvalues --   -0.64783  -0.62193  -0.61113  -0.59583  -0.57813
 Alpha  occ. eigenvalues --   -0.55557  -0.55220  -0.53107  -0.52961  -0.52851
 Alpha  occ. eigenvalues --   -0.52587  -0.50118  -0.48820  -0.48819  -0.48134
 Alpha  occ. eigenvalues --   -0.46860  -0.45995  -0.45909  -0.44824  -0.44015
 Alpha  occ. eigenvalues --   -0.37361  -0.36376
 Alpha virt. eigenvalues --    0.05012   0.11224   0.16492   0.20133   0.22868
 Alpha virt. eigenvalues --    0.23901   0.26037   0.26450   0.27098   0.28088
 Alpha virt. eigenvalues --    0.29358   0.30047   0.31410   0.31582   0.32025

 Mulliken charges:
               1
     1  C   -0.298894
     2  C   -0.299372
     3  C   -0.485013
     4  H    0.152573
     5  H    0.152904
     6  H    0.153256
     7  H    0.143172
     8  H    0.163083
     9  H    0.162556
    10  H    0.155953
    11  C   -0.298121
    12  C   -0.300045
    13  C   -0.475722
    14  H    0.149391
    15  H    0.147142
    16  H    0.153402
    17  H    0.153287
    18  H    0.153962
    19  H    0.155116
    20  H    0.161257
    21  C   -0.170713
    22  C   -0.218708
    23  C   -0.170553
    24  C    0.157701
    25  C   -0.176558
    26  C   -0.221712
    27  H    0.225658
    28  H    0.223486
    29  H    0.275608
    30  H    0.284779
    31  H    0.224666
    32  N    0.487945
    33  O   -0.461407
    34  O   -0.460078
 Sum of Mulliken charges =  -0.00000

 Dipole moment (field-independent basis, Debye):
    X=             -0.9889    Y=              4.2491    Z=              2.6866  Tot=              5.1236
 Quadrupole moment (field-independent basis, Debye-Ang):
   XX=            -98.4582   YY=            -93.4684   ZZ=            -94.8196
   XY=             15.5919   XZ=              5.7958   YZ=             -2.5277

 Normal termination of Gaussian 16 at Thu May  6 08:49:30 2021.
