 Gaussian 16, Revision A.03,
 Gaussian 16:  EM64L-G16RevA.03 25-Dec-2016

 -------------
 #p 6-31g* mp2
 -------------

 ------------------------------------------------------
 Input file generated by CHIRIPA (05-May-2021 14:53:16)
 ------------------------------------------------------
 Symbolic Z-matrix:
 Charge =  0 Multiplicity = 1

                         Standard orientation:
 ---------------------------------------------------------------------
 Center     Atomic      Atomic             Coordinates (Angstroms)
 Number     Number       Type             X           Y           Z
 ---------------------------------------------------------------------
      1          6           0       -2.384414   -0.345174   -0.103630
      2          6           0       -3.355233   -1.307350   -0.788986
      3          6           0       -2.876717   -2.758942   -0.747788
      4          1           0       -1.400251   -0.422143   -0.585755
      5          1           0       -2.246051   -0.657108    0.940854
      6          1           0       -3.492795   -0.992883   -1.831485
      7          1           0       -4.337250   -1.227942   -0.305299
      8          1           0       -2.757267   -3.095973    0.286979
      9          1           0       -1.908015   -2.859578   -1.247879
     10          1           0       -3.585632   -3.429569   -1.243327
     11          6           0       -2.848968    1.109759   -0.136588
     12          6           0       -1.878149    2.071936    0.548767
     13          6           0       -2.356665    3.523527    0.507570
     14          1           0       -2.987331    1.421693   -1.181073
     15          1           0       -3.833131    1.186728    0.345536
     16          1           0       -0.896132    1.992528    0.065080
     17          1           0       -1.740587    1.757469    1.591266
     18          1           0       -3.325367    3.624164    1.007660
     19          1           0       -2.476115    3.860558   -0.527198
     20          1           0       -1.647750    4.194154    1.003108
     21          6           0        1.143907   -1.409501    2.172604
     22          6           0        2.035180   -0.337045    2.282117
     23          6           0        2.540425    0.286024    1.137103
     24          6           0        2.131336   -0.191275   -0.107132
     25          6           0        1.244769   -1.257655   -0.248986
     26          6           0        0.752236   -1.865579    0.909628
     27          1           0        0.756358   -1.887634    3.067362
     28          1           0        2.341100    0.019268    3.261658
     29          1           0        3.231681    1.118166    1.192993
     30          1           0        0.958191   -1.590530   -1.239181
     31          1           0        0.060194   -2.698264    0.821551
     32          7           0        2.659487    0.460324   -1.326507
     33          8           0        2.283562    0.020983   -2.411079
     34          8           0        3.439376    1.398051   -1.174592
 ---------------------------------------------------------------------

 SCF Done:  E(RHF) =  -669.533926119     A.U. after   15 cycles
 E2 =    -0.2094878334D+01 EUMP2 =    -0.67162880445263D+03

 The electronic state is 1-A.
 Alpha  occ. eigenvalues --  -20.60801 -20.60794 -15.85853 -11.31207 -11.27736
 Alpha  occ. eigenvalues --  -11.27725 -11.27461 -11.26767 -11.26703 -11.22042
 Alpha  occ. eigenvalues --  -11.21879 -11.21689 -11.21625 -11.21518 -11.21094
 Alpha  occ. eigenvalues --   -1.59878  -1.39431  -1.19362  -1.08772  -1.08692
 Alpha  occ. eigenvalues --   -1.04765  -1.03849  -0.96318  -0.95601  -0.87341
 Alpha  occ. eigenvalues --   -0.86158  -0.82442  -0.79923  -0.78529  -0.77455
 Alpha  occ. eigenvalues --   -0.72070  -0.71204  -0.70473  -0.65373  -0.64995
 Alpha  occ. eigenvalues --   -0.64745  -0.62128  -0.61242  -0.59685  -0.57938
 Alpha  occ. eigenvalues --   -0.55630  -0.55254  -0.53298  -0.52967  -0.52880
 Alpha  occ. eigenvalues --   -0.52620  -0.50277  -0.48829  -0.48827  -0.48238
 Alpha  occ. eigenvalues --   -0.46946  -0.46008  -0.45952  -0.44834  -0.44065
 Alpha  occ. eigenvalues --   -0.37322  -0.36197
 Alpha virt. eigenvalues --    0.05023   0.11171   0.16485   0.19829   0.22860
 Alpha virt. eigenvalues --    0.23832   0.25443   0.26135   0.27287   0.28101
 Alpha virt. eigenvalues --    0.29255   0.30647   0.31240   0.31370   0.32555

 Mulliken charges:
               1
     1  C   -0.301177
     2  C   -0.299325
     3  C   -0.477932
     4  H    0.155256
     5  H    0.143994
     6  H    0.156352
     7  H    0.153107
     8  H    0.149396
     9  H    0.149041
    10  H    0.165664
    11  C   -0.298687
    12  C   -0.299314
    13  C   -0.475925
    14  H    0.152672
    15  H    0.148487
    16  H    0.154232
    17  H    0.148622
    18  H    0.153866
    19  H    0.157970
    20  H    0.160629
    21  C   -0.173029
    22  C   -0.217324
    23  C   -0.171829
    24  C    0.160062
    25  C   -0.177571
    26  C   -0.211726
    27  H    0.225231
    28  H    0.223316
    29  H    0.275422
    30  H    0.275067
    31  H    0.228928
    32  N    0.487776
    33  O   -0.461120
    34  O   -0.460134
 Sum of Mulliken charges =  -0.00000

 Dipole moment (field-independent basis, Debye):
    X=             -1.8968    Y=             -2.2455    Z=              4.2596  Tot=              5.1754
 Quadrupole moment (field-independent basis, Debye-Ang):
   XX=           -101.6355   YY=            -93.5651   ZZ=            -93.7143
   XY=             -2.3390   XZ=             11.0161   YZ=              1.2044

 Normal termination of Gaussian 16 at Wed May  5 23:32:48 2021.
