 Gaussian 16, Revision A.03,
 Gaussian 16:  EM64L-G16RevA.03 25-Dec-2016

 -------------
 #p 6-31g* mp2
 -------------

 ------------------------------------------------------
 Input file generated by CHIRIPA (05-May-2021 14:55:21)
 ------------------------------------------------------
 Symbolic Z-matrix:
 Charge =  0 Multiplicity = 1

                         Standard orientation:
 ---------------------------------------------------------------------
 Center     Atomic      Atomic             Coordinates (Angstroms)
 Number     Number       Type             X           Y           Z
 ---------------------------------------------------------------------
      1          6           0        1.770159    1.728060    1.692770
      2          6           0        2.539307    0.665067    2.177517
      3          6           0        2.993089   -0.335262    1.312662
      4          6           0        2.657627   -0.240767   -0.037088
      5          6           0        1.893025    0.805765   -0.550355
      6          6           0        1.450037    1.794898    0.332779
      7          1           0        1.421843    2.500790    2.371710
      8          1           0        2.789446    0.610579    3.233219
      9          1           0        3.590054   -1.169271    1.661199
     10          1           0        1.659770    0.832890   -1.607840
     11          1           0        0.852865    2.619271   -0.046484
     12          7           0        3.132312   -1.293844   -0.962346
     13          8           0        2.823180   -1.187638   -2.147165
     14          8           0        3.804513   -2.205512   -0.485226
     15          6           0       -3.363812   -0.475802    0.366005
     16          6           0       -4.365776   -1.558094   -0.037353
     17          6           0       -4.479054   -2.675181    1.000470
     18          1           0       -2.378398   -0.936424    0.520053
     19          1           0       -3.664377   -0.049823    1.333269
     20          1           0       -4.064180   -1.980945   -1.004231
     21          1           0       -5.348878   -1.094813   -0.190645
     22          1           0       -4.802511   -2.272751    1.965885
     23          1           0       -3.510514   -3.163917    1.147677
     24          1           0       -5.200631   -3.438091    0.691997
     25          6           0       -3.239434    0.647854   -0.661445
     26          6           0       -2.237470    1.730145   -0.258085
     27          6           0       -2.124192    2.847233   -1.295909
     28          1           0       -2.938870    0.221876   -1.628707
     29          1           0       -4.224849    1.108475   -0.815492
     30          1           0       -1.254369    1.266864   -0.104794
     31          1           0       -2.539066    2.152996    0.708793
     32          1           0       -3.092732    3.335969   -1.443114
     33          1           0       -1.800735    2.444802   -2.261323
     34          1           0       -1.402615    3.610143   -0.987435
 ---------------------------------------------------------------------

 SCF Done:  E(RHF) =  -669.534694831     A.U. after   15 cycles
 E2 =    -0.2092851681D+01 EUMP2 =    -0.67162754651117D+03

 The electronic state is 1-A.
 Alpha  occ. eigenvalues --  -20.60808 -20.60803 -15.85861 -11.31236 -11.27790
 Alpha  occ. eigenvalues --  -11.27787 -11.27519 -11.26815 -11.26771 -11.22114
 Alpha  occ. eigenvalues --  -11.21890 -11.21757 -11.21744 -11.21617 -11.21174
 Alpha  occ. eigenvalues --   -1.59883  -1.39436  -1.19409  -1.08823  -1.08758
 Alpha  occ. eigenvalues --   -1.04822  -1.03927  -0.96392  -0.95629  -0.87401
 Alpha  occ. eigenvalues --   -0.86206  -0.82469  -0.80003  -0.78571  -0.77506
 Alpha  occ. eigenvalues --   -0.72078  -0.71207  -0.70499  -0.65459  -0.65049
 Alpha  occ. eigenvalues --   -0.64811  -0.62230  -0.61280  -0.59780  -0.57991
 Alpha  occ. eigenvalues --   -0.55668  -0.55285  -0.53196  -0.53139  -0.52911
 Alpha  occ. eigenvalues --   -0.52705  -0.50308  -0.48837  -0.48833  -0.48315
 Alpha  occ. eigenvalues --   -0.47013  -0.46112  -0.46007  -0.44839  -0.44169
 Alpha  occ. eigenvalues --   -0.37368  -0.36336
 Alpha virt. eigenvalues --    0.05004   0.11204   0.16418   0.20070   0.22787
 Alpha virt. eigenvalues --    0.23850   0.26107   0.26327   0.27278   0.28148
 Alpha virt. eigenvalues --    0.29245   0.29656   0.31123   0.31836   0.31960

 Mulliken charges:
               1
     1  C   -0.172684
     2  C   -0.218267
     3  C   -0.171249
     4  C    0.158924
     5  C   -0.173721
     6  C   -0.220282
     7  H    0.226335
     8  H    0.223704
     9  H    0.275710
    10  H    0.276082
    11  H    0.232297
    12  N    0.488057
    13  O   -0.460420
    14  O   -0.460258
    15  C   -0.298884
    16  C   -0.300236
    17  C   -0.476085
    18  H    0.151992
    19  H    0.147986
    20  H    0.154395
    21  H    0.151716
    22  H    0.154064
    23  H    0.156704
    24  H    0.161467
    25  C   -0.297675
    26  C   -0.309945
    27  C   -0.479522
    28  H    0.152224
    29  H    0.150114
    30  H    0.158351
    31  H    0.149670
    32  H    0.161093
    33  H    0.157908
    34  H    0.150431
 Sum of Mulliken charges =  -0.00000

 Dipole moment (field-independent basis, Debye):
    X=             -1.7098    Y=              3.6345    Z=              3.2647  Tot=              5.1761
 Quadrupole moment (field-independent basis, Debye-Ang):
   XX=           -102.5752   YY=            -96.6748   ZZ=            -92.5058
   XY=              8.7158   XZ=             10.7548   YZ=             -2.0639

 Normal termination of Gaussian 16 at Thu May  6 04:37:12 2021.
