 Gaussian 16, Revision A.03,
 Gaussian 16:  EM64L-G16RevA.03 25-Dec-2016

 -------------
 #p 6-31g* mp2
 -------------

 ------------------------------------------------------
 Input file generated by CHIRIPA (05-May-2021 14:57:21)
 ------------------------------------------------------
 Symbolic Z-matrix:
 Charge =  0 Multiplicity = 1

                         Standard orientation:
 ---------------------------------------------------------------------
 Center     Atomic      Atomic             Coordinates (Angstroms)
 Number     Number       Type             X           Y           Z
 ---------------------------------------------------------------------
      1          6           0        5.559185    1.427107   -0.589981
      2          6           0        4.349744    1.922841   -0.091963
      3          6           0        3.319661    1.049601    0.269878
      4          6           0        3.534059   -0.319649    0.119949
      5          6           0        4.727720   -0.844244   -0.373270
      6          6           0        5.743987    0.047578   -0.728800
      7          1           0        6.354012    2.112678   -0.868616
      8          1           0        4.203425    2.993719    0.016921
      9          1           0        2.373351    1.406308    0.658046
     10          1           0        4.844073   -1.916825   -0.470487
     11          1           0        6.682206   -0.340253   -1.115293
     12          7           0        2.450870   -1.253946    0.499673
     13          8           0        2.664665   -2.455971    0.358026
     14          8           0        1.408581   -0.766531    0.931759
     15          6           0       -3.410921    2.654206    0.229150
     16          6           0       -2.351269    1.784158    0.506054
     17          6           0       -2.507085    0.403516    0.350831
     18          6           0       -3.741746   -0.074917   -0.085065
     19          6           0       -4.816433    0.766335   -0.369022
     20          6           0       -4.637958    2.143418   -0.206736
     21          1           0       -3.281078    3.725340    0.352474
     22          1           0       -1.397213    2.178024    0.844718
     23          1           0       -1.703442   -0.292633    0.558081
     24          1           0       -5.755659    0.344007   -0.705046
     25          1           0       -5.462648    2.816741   -0.422530
     26          7           0       -3.918696   -1.534657   -0.253132
     27          8           0       -5.016416   -1.931080   -0.638485
     28          8           0       -2.956319   -2.254740    0.003673
 ---------------------------------------------------------------------

 SCF Done:  E(RHF) =  -868.338104930     A.U. after   16 cycles
 E2 =    -0.2599126081D+01 EUMP2 =    -0.87093723101059D+03

 The electronic state is 1-A.
 Alpha  occ. eigenvalues --  -20.61187 -20.61120 -20.59944 -20.59893 -15.86208
 Alpha  occ. eigenvalues --  -15.84975 -11.31553 -11.30411 -11.28177 -11.28073
 Alpha  occ. eigenvalues --  -11.27837 -11.27152 -11.27091 -11.27087 -11.26890
 Alpha  occ. eigenvalues --  -11.26857 -11.26136 -11.26062  -1.60204  -1.59003
 Alpha  occ. eigenvalues --   -1.39769  -1.38547  -1.19716  -1.18632  -1.09107
 Alpha  occ. eigenvalues --   -1.08038  -1.05123  -1.04036  -0.95950  -0.94838
 Alpha  occ. eigenvalues --   -0.86520  -0.85444  -0.82794  -0.81658  -0.77848
 Alpha  occ. eigenvalues --   -0.76665  -0.72432  -0.71519  -0.71189  -0.70828
 Alpha  occ. eigenvalues --   -0.70334  -0.69747  -0.65375  -0.65126  -0.64286
 Alpha  occ. eigenvalues --   -0.64060  -0.62480  -0.61344  -0.55612  -0.54599
 Alpha  occ. eigenvalues --   -0.53441  -0.53219  -0.52393  -0.52126  -0.49184
 Alpha  occ. eigenvalues --   -0.49143  -0.47978  -0.47926  -0.45176  -0.43936
 Alpha  occ. eigenvalues --   -0.37683  -0.36722  -0.36676  -0.35650
 Alpha virt. eigenvalues --    0.04690   0.05848   0.10934   0.11990   0.16176
 Alpha virt. eigenvalues --    0.17287   0.20684   0.22069   0.26079   0.27311
 Alpha virt. eigenvalues --    0.28629   0.29102   0.30652   0.31389   0.32858

 Mulliken charges:
               1
     1  C   -0.170518
     2  C   -0.217956
     3  C   -0.169828
     4  C    0.159346
     5  C   -0.170020
     6  C   -0.218217
     7  H    0.226639
     8  H    0.222380
     9  H    0.268189
    10  H    0.277859
    11  H    0.225216
    12  N    0.491979
    13  O   -0.451831
    14  O   -0.470827
    15  C   -0.171261
    16  C   -0.220979
    17  C   -0.177042
    18  C    0.156786
    19  C   -0.171100
    20  C   -0.219753
    21  H    0.220916
    22  H    0.219148
    23  H    0.298204
    24  H    0.273596
    25  H    0.220140
    26  N    0.486864
    27  O   -0.465324
    28  O   -0.452610
 Sum of Mulliken charges =  -0.00000

 Dipole moment (field-independent basis, Debye):
    X=              4.8602    Y=              8.1445    Z=             -0.7485  Tot=              9.5139
 Quadrupole moment (field-independent basis, Debye-Ang):
   XX=            -77.1599   YY=           -105.5707   ZZ=           -106.1548
   XY=            -12.0886   XZ=             -6.2534   YZ=              1.1782

 Normal termination of Gaussian 16 at Wed May  5 22:33:20 2021.
