 Gaussian 16, Revision A.03,
 Gaussian 16:  EM64L-G16RevA.03 25-Dec-2016

 -------------
 #p 6-31g* mp2
 -------------

 ------------------------------------------------------
 Input file generated by CHIRIPA (05-May-2021 14:53:15)
 ------------------------------------------------------
 Symbolic Z-matrix:
 Charge =  0 Multiplicity = 1

                         Standard orientation:
 ---------------------------------------------------------------------
 Center     Atomic      Atomic             Coordinates (Angstroms)
 Number     Number       Type             X           Y           Z
 ---------------------------------------------------------------------
      1          6           0        2.732255   -0.394894    0.937674
      2          6           0        1.800970   -1.594250    1.117221
      3          6           0        0.888575   -1.456921    2.336430
      4          1           0        3.343087   -0.274314    1.842821
      5          1           0        2.128572    0.518446    0.844019
      6          1           0        2.406187   -2.505228    1.209124
      7          1           0        1.192419   -1.712104    0.211466
      8          1           0        0.260333   -0.564592    2.248892
      9          1           0        1.480997   -1.362223    3.252219
     10          1           0        0.231299   -2.325184    2.445826
     11          6           0        3.650569   -0.517447   -0.276990
     12          6           0        4.581855    0.681908   -0.456536
     13          6           0        5.494250    0.544579   -1.675745
     14          1           0        4.254253   -1.430787   -0.183334
     15          1           0        3.039738   -0.638027   -1.182136
     16          1           0        5.190405    0.799763    0.449219
     17          1           0        3.976638    1.592887   -0.548439
     18          1           0        4.901828    0.449881   -2.591534
     19          1           0        6.122492   -0.347749   -1.588207
     20          1           0        6.151526    1.412843   -1.785141
     21          6           0       -3.843321   -1.619726   -1.057038
     22          6           0       -2.462687   -1.579889   -1.277907
     23          6           0       -1.704686   -0.489995   -0.839601
     24          6           0       -2.362775    0.547426   -0.180840
     25          6           0       -3.736791    0.536907    0.054230
     26          6           0       -4.474853   -0.563064   -0.392845
     27          1           0       -4.424410   -2.470297   -1.400931
     28          1           0       -1.969559   -2.399086   -1.793451
     29          1           0       -0.634483   -0.433415   -0.997343
     30          1           0       -4.200222    1.368492    0.571065
     31          1           0       -5.546930   -0.591303   -0.219927
     32          7           0       -1.570868    1.706583    0.287817
     33          8           0       -2.174406    2.607915    0.865726
     34          8           0       -0.361627    1.691848    0.068367
 ---------------------------------------------------------------------

 SCF Done:  E(RHF) =  -669.536155075     A.U. after   15 cycles
 E2 =    -0.2092949319D+01 EUMP2 =    -0.67162910439430D+03

 The electronic state is 1-A.
 Alpha  occ. eigenvalues --  -20.61025 -20.61016 -15.86043 -11.31302 -11.27862
 Alpha  occ. eigenvalues --  -11.27851 -11.27590 -11.26859 -11.26848 -11.21366
 Alpha  occ. eigenvalues --  -11.21046 -11.20908 -11.20726 -11.20658 -11.20609
 Alpha  occ. eigenvalues --   -1.60075  -1.39634  -1.19468  -1.08884  -1.07922
 Alpha  occ. eigenvalues --   -1.04857  -1.03109  -0.95736  -0.95532  -0.86557
 Alpha  occ. eigenvalues --   -0.86261  -0.82577  -0.79179  -0.77729  -0.77630
 Alpha  occ. eigenvalues --   -0.72279  -0.71387  -0.70584  -0.65136  -0.64909
 Alpha  occ. eigenvalues --   -0.64498  -0.62223  -0.60486  -0.58911  -0.57151
 Alpha  occ. eigenvalues --   -0.55368  -0.54810  -0.53177  -0.52951  -0.52276
 Alpha  occ. eigenvalues --   -0.51960  -0.49476  -0.49040  -0.49017  -0.47500
 Alpha  occ. eigenvalues --   -0.46226  -0.45365  -0.45289  -0.44748  -0.43323
 Alpha  occ. eigenvalues --   -0.37440  -0.36441
 Alpha virt. eigenvalues --    0.04850   0.11144   0.16329   0.20178   0.23053
 Alpha virt. eigenvalues --    0.24539   0.25979   0.27447   0.27934   0.28400
 Alpha virt. eigenvalues --    0.29321   0.31019   0.31612   0.32058   0.32217

 Mulliken charges:
               1
     1  C   -0.311298
     2  C   -0.296071
     3  C   -0.477636
     4  H    0.147604
     5  H    0.179503
     6  H    0.149461
     7  H    0.136834
     8  H    0.160745
     9  H    0.156439
    10  H    0.154575
    11  C   -0.295874
    12  C   -0.300927
    13  C   -0.475330
    14  H    0.145465
    15  H    0.143388
    16  H    0.151236
    17  H    0.159818
    18  H    0.153522
    19  H    0.152794
    20  H    0.159982
    21  C   -0.170329
    22  C   -0.219658
    23  C   -0.171538
    24  C    0.157325
    25  C   -0.170459
    26  C   -0.218553
    27  H    0.226143
    28  H    0.224207
    29  H    0.279795
    30  H    0.275790
    31  H    0.223892
    32  N    0.491616
    33  O   -0.457806
    34  O   -0.464654
 Sum of Mulliken charges =  -0.00000

 Dipole moment (field-independent basis, Debye):
    X=             -2.9523    Y=             -3.8437    Z=             -1.6013  Tot=              5.1043
 Quadrupole moment (field-independent basis, Debye-Ang):
   XX=            -78.4954   YY=            -98.9249   ZZ=            -94.6879
   XY=              6.4230   XZ=              4.0037   YZ=              0.7734

 Normal termination of Gaussian 16 at Thu May  6 17:11:21 2021.
