 Gaussian 16, Revision A.03,
 Gaussian 16:  EM64L-G16RevA.03 25-Dec-2016

 -------------
 #p 6-31g* mp2
 -------------

 ------------------------------------------------------
 Input file generated by CHIRIPA (05-May-2021 14:55:23)
 ------------------------------------------------------
 Symbolic Z-matrix:
 Charge =  0 Multiplicity = 1

                         Standard orientation:
 ---------------------------------------------------------------------
 Center     Atomic      Atomic             Coordinates (Angstroms)
 Number     Number       Type             X           Y           Z
 ---------------------------------------------------------------------
      1          6           0        2.784876    2.549563    0.014013
      2          6           0        4.080524    2.177786   -0.359615
      3          6           0        4.428995    0.828066   -0.466249
      4          6           0        3.452490   -0.127872   -0.190731
      5          6           0        2.153156    0.210880    0.183792
      6          6           0        1.827015    1.566657    0.284048
      7          1           0        2.522849    3.600411    0.094371
      8          1           0        4.826461    2.938964   -0.569927
      9          1           0        5.424589    0.512314   -0.753498
     10          1           0        1.431170   -0.570662    0.387131
     11          1           0        0.820016    1.852456    0.574422
     12          7           0        3.809580   -1.559966   -0.300243
     13          8           0        2.931040   -2.382932   -0.052184
     14          8           0        4.961245   -1.832360   -0.632065
     15          6           0       -5.052132    0.139937    0.155586
     16          6           0       -5.756446   -0.290853   -1.131405
     17          6           0       -7.172480    0.274014   -1.247884
     18          1           0       -5.649616   -0.183492    1.018922
     19          1           0       -5.014501    1.237401    0.195021
     20          1           0       -5.791508   -1.387195   -1.169066
     21          1           0       -5.157120    0.033473   -1.991776
     22          1           0       -7.152804    1.368577   -1.235856
     23          1           0       -7.790797   -0.060163   -0.408473
     24          1           0       -7.657511   -0.046412   -2.175208
     25          6           0       -3.635579   -0.416812    0.286480
     26          6           0       -2.931265    0.013978    1.573471
     27          6           0       -1.515230   -0.550889    1.689949
     28          1           0       -3.673210   -1.514275    0.247046
     29          1           0       -3.038095   -0.093382   -0.576857
     30          1           0       -3.530591   -0.310348    2.433842
     31          1           0       -2.896202    1.110322    1.611132
     32          1           0       -0.896913   -0.216711    0.850539
     33          1           0       -1.534906   -1.645452    1.677922
     34          1           0       -1.030200   -0.230461    2.617274
 ---------------------------------------------------------------------

 SCF Done:  E(RHF) =  -669.535331294     A.U. after   15 cycles
 E2 =    -0.2091344665D+01 EUMP2 =    -0.67162667595967D+03

 The electronic state is 1-A.
 Alpha  occ. eigenvalues --  -20.60703 -20.60697 -15.85754 -11.31105 -11.27692
 Alpha  occ. eigenvalues --  -11.27633 -11.27439 -11.26709 -11.26678 -11.22219
 Alpha  occ. eigenvalues --  -11.21877 -11.21868 -11.21826 -11.21721 -11.21295
 Alpha  occ. eigenvalues --   -1.59777  -1.39330  -1.19286  -1.08863  -1.08686
 Alpha  occ. eigenvalues --   -1.04694  -1.03994  -0.96458  -0.95520  -0.87483
 Alpha  occ. eigenvalues --   -0.86087  -0.82357  -0.80068  -0.78646  -0.77397
 Alpha  occ. eigenvalues --   -0.71974  -0.71100  -0.70407  -0.65504  -0.64941
 Alpha  occ. eigenvalues --   -0.64696  -0.62152  -0.61319  -0.59823  -0.58041
 Alpha  occ. eigenvalues --   -0.55764  -0.55179  -0.53161  -0.53020  -0.52932
 Alpha  occ. eigenvalues --   -0.52704  -0.50399  -0.48732  -0.48728  -0.48364
 Alpha  occ. eigenvalues --   -0.47087  -0.46193  -0.46102  -0.44738  -0.44229
 Alpha  occ. eigenvalues --   -0.37276  -0.36291
 Alpha virt. eigenvalues --    0.05127   0.11359   0.16606   0.20125   0.22591
 Alpha virt. eigenvalues --    0.23786   0.25541   0.26380   0.27206   0.28037
 Alpha virt. eigenvalues --    0.29232   0.30143   0.31235   0.31534   0.32352

 Mulliken charges:
               1
     1  C   -0.170735
     2  C   -0.218918
     3  C   -0.170675
     4  C    0.159887
     5  C   -0.177825
     6  C   -0.221842
     7  H    0.225169
     8  H    0.223135
     9  H    0.275312
    10  H    0.283107
    11  H    0.224973
    12  N    0.488221
    13  O   -0.460330
    14  O   -0.460843
    15  C   -0.298554
    16  C   -0.300074
    17  C   -0.475933
    18  H    0.150895
    19  H    0.148336
    20  H    0.153747
    21  H    0.152103
    22  H    0.154674
    23  H    0.155789
    24  H    0.161485
    25  C   -0.298937
    26  C   -0.300135
    27  C   -0.482549
    28  H    0.153449
    29  H    0.148691
    30  H    0.156098
    31  H    0.148589
    32  H    0.145382
    33  H    0.165918
    34  H    0.162389
 Sum of Mulliken charges =  -0.00000

 Dipole moment (field-independent basis, Debye):
    X=             -1.4424    Y=              4.9538    Z=              0.4259  Tot=              5.1771
 Quadrupole moment (field-independent basis, Debye-Ang):
   XX=            -99.6352   YY=            -95.6732   ZZ=            -95.1011
   XY=             19.9981   XZ=             -0.3463   YZ=             -1.8560

 Normal termination of Gaussian 16 at Wed May  5 17:32:22 2021.
