 Gaussian 16, Revision A.03,
 Gaussian 16:  EM64L-G16RevA.03 25-Dec-2016

 -------------
 #p 6-31g* mp2
 -------------

 ------------------------------------------------------
 Input file generated by CHIRIPA (05-May-2021 14:53:14)
 ------------------------------------------------------
 Symbolic Z-matrix:
 Charge =  0 Multiplicity = 1

                         Standard orientation:
 ---------------------------------------------------------------------
 Center     Atomic      Atomic             Coordinates (Angstroms)
 Number     Number       Type             X           Y           Z
 ---------------------------------------------------------------------
      1          6           0        3.968495    0.736690    0.032164
      2          6           0        3.195240    2.054220   -0.032466
      3          6           0        4.112769    3.275672   -0.095634
      4          1           0        4.627114    0.748184    0.911387
      5          1           0        4.622623    0.659977   -0.847397
      6          1           0        2.541740    2.127787    0.846249
      7          1           0        2.538244    2.039509   -0.911532
      8          1           0        4.755503    3.229321   -0.980702
      9          1           0        4.759019    3.318101    0.787067
     10          1           0        3.539213    4.206700   -0.141251
     11          6           0        3.065010   -0.493514    0.095743
     12          6           0        3.838265   -1.811044    0.160373
     13          6           0        2.920737   -3.032496    0.223541
     14          1           0        2.410882   -0.416801    0.975304
     15          1           0        2.406392   -0.505009   -0.783480
     16          1           0        4.495261   -1.796334    1.039439
     17          1           0        4.491765   -1.884612   -0.718343
     18          1           0        2.274486   -3.074925   -0.659160
     19          1           0        2.278002   -2.986146    1.108609
     20          1           0        3.494292   -3.963524    0.269158
     21          6           0       -4.496870    1.704421    0.210067
     22          6           0       -3.151308    2.053515    0.054773
     23          6           0       -2.173463    1.064894   -0.090130
     24          6           0       -2.578337   -0.268951   -0.075103
     25          6           0       -3.910929   -0.648559    0.077821
     26          6           0       -4.871726    0.356874    0.221075
     27          1           0       -5.249862    2.478936    0.321991
     28          1           0       -2.857287    3.099228    0.045848
     29          1           0       -1.124693    1.307093   -0.211942
     30          1           0       -4.173426   -1.699506    0.082762
     31          1           0       -5.915965    0.082822    0.341512
     32          7           0       -1.552161   -1.324459   -0.227632
     33          8           0       -1.934686   -2.492378   -0.211053
     34          8           0       -0.384748   -0.963860   -0.360876
 ---------------------------------------------------------------------

 SCF Done:  E(RHF) =  -669.535785022     A.U. after   15 cycles
 E2 =    -0.2091701379D+01 EUMP2 =    -0.67162748640142D+03

 The electronic state is 1-A.
 Alpha  occ. eigenvalues --  -20.60898 -20.60893 -15.85930 -11.31265 -11.27832
 Alpha  occ. eigenvalues --  -11.27822 -11.27572 -11.26842 -11.26831 -11.21141
 Alpha  occ. eigenvalues --  -11.20758 -11.20552 -11.20353 -11.19971 -11.19499
 Alpha  occ. eigenvalues --   -1.59963  -1.39518  -1.19436  -1.08840  -1.07459
 Alpha  occ. eigenvalues --   -1.04833  -1.02589  -0.95679  -0.95006  -0.86233
 Alpha  occ. eigenvalues --   -0.86019  -0.82518  -0.78736  -0.77611  -0.77091
 Alpha  occ. eigenvalues --   -0.72140  -0.71279  -0.70543  -0.65091  -0.64836
 Alpha  occ. eigenvalues --   -0.64108  -0.62179  -0.60001  -0.58464  -0.56594
 Alpha  occ. eigenvalues --   -0.55338  -0.54287  -0.53167  -0.52924  -0.51778
 Alpha  occ. eigenvalues --   -0.51387  -0.48952  -0.48936  -0.48891  -0.46999
 Alpha  occ. eigenvalues --   -0.45795  -0.45032  -0.44595  -0.44510  -0.42812
 Alpha  occ. eigenvalues --   -0.37418  -0.36436
 Alpha virt. eigenvalues --    0.04953   0.11218   0.16440   0.21173   0.23531
 Alpha virt. eigenvalues --    0.25262   0.26526   0.27540   0.27661   0.28928
 Alpha virt. eigenvalues --    0.29191   0.31187   0.32329   0.32374   0.32413

 Mulliken charges:
               1
     1  C   -0.298015
     2  C   -0.298306
     3  C   -0.474540
     4  H    0.146017
     5  H    0.146779
     6  H    0.147805
     7  H    0.149604
     8  H    0.155258
     9  H    0.154894
    10  H    0.155037
    11  C   -0.297119
    12  C   -0.300792
    13  C   -0.472229
    14  H    0.150849
    15  H    0.164781
    16  H    0.145144
    17  H    0.146412
    18  H    0.167188
    19  H    0.157186
    20  H    0.151158
    21  C   -0.170651
    22  C   -0.218676
    23  C   -0.171555
    24  C    0.157333
    25  C   -0.170704
    26  C   -0.218634
    27  H    0.225883
    28  H    0.223939
    29  H    0.276770
    30  H    0.275756
    31  H    0.223684
    32  N    0.494072
    33  O   -0.459409
    34  O   -0.464921
 Sum of Mulliken charges =  -0.00000

 Dipole moment (field-independent basis, Debye):
    X=             -3.9217    Y=              3.5940    Z=              0.4729  Tot=              5.3405
 Quadrupole moment (field-independent basis, Debye-Ang):
   XX=            -75.4555   YY=            -96.1228   ZZ=            -94.7289
   XY=             -6.5337   XZ=             -1.6286   YZ=             -0.4751

 Normal termination of Gaussian 16 at Wed May  5 20:13:01 2021.
