 Gaussian 16, Revision A.03,
 Gaussian 16:  EM64L-G16RevA.03 25-Dec-2016

 -------------
 #p 6-31g* mp2
 -------------

 ------------------------------------------------------
 Input file generated by CHIRIPA (05-May-2021 14:57:25)
 ------------------------------------------------------
 Symbolic Z-matrix:
 Charge =  0 Multiplicity = 1

                         Standard orientation:
 ---------------------------------------------------------------------
 Center     Atomic      Atomic             Coordinates (Angstroms)
 Number     Number       Type             X           Y           Z
 ---------------------------------------------------------------------
      1          6           0        1.512436    0.147207   -0.468760
      2          6           0        2.241632    1.332103   -0.324492
      3          6           0        3.631626    1.297102   -0.178746
      4          6           0        4.262934    0.054229   -0.181696
      5          6           0        3.564221   -1.143683   -0.323458
      6          6           0        2.174889   -1.084733   -0.467784
      7          1           0        0.432912    0.183699   -0.581427
      8          1           0        1.729818    2.290273   -0.324887
      9          1           0        4.220679    2.199081   -0.065316
     10          1           0        4.102405   -2.083768   -0.319241
     11          1           0        1.611157   -2.006546   -0.579641
     12          7           0        5.734107    0.004498   -0.028153
     13          8           0        6.266667   -1.103194   -0.033980
     14          8           0        6.326796    1.074153    0.095113
     15          6           0       -6.216257    0.400376   -0.946360
     16          6           0       -5.714815   -0.904329   -0.893233
     17          6           0       -4.499228   -1.172417   -0.256817
     18          6           0       -3.808185   -0.107168    0.318505
     19          6           0       -4.281580    1.203507    0.282193
     20          6           0       -5.499302    1.448283   -0.359512
     21          1           0       -7.161382    0.599579   -1.442798
     22          1           0       -6.269458   -1.720107   -1.348121
     23          1           0       -4.087908   -2.172976   -0.201022
     24          1           0       -3.706001    1.996061    0.744779
     25          1           0       -5.886305    2.462530   -0.399234
     26          7           0       -2.520168   -0.378641    0.995050
     27          8           0       -1.930510    0.577283    1.494200
     28          8           0       -2.124667   -1.542204    1.013366
 ---------------------------------------------------------------------

 SCF Done:  E(RHF) =  -868.339427956     A.U. after   16 cycles
 E2 =    -0.2598596919D+01 EUMP2 =    -0.87093802487497D+03

 The electronic state is 1-A.
 Alpha  occ. eigenvalues --  -20.61944 -20.61939 -20.60012 -20.60007 -15.86972
 Alpha  occ. eigenvalues --  -15.85060 -11.32086 -11.30227 -11.28624 -11.28615
 Alpha  occ. eigenvalues --  -11.28294 -11.27564 -11.27553 -11.26806 -11.26776
 Alpha  occ. eigenvalues --  -11.26382 -11.25733 -11.25666  -1.61028  -1.59093
 Alpha  occ. eigenvalues --   -1.40580  -1.38652  -1.20233  -1.18372  -1.09671
 Alpha  occ. eigenvalues --   -1.07774  -1.05590  -1.03757  -0.96545  -0.94650
 Alpha  occ. eigenvalues --   -0.86999  -0.85145  -0.83379  -0.81503  -0.78465
 Alpha  occ. eigenvalues --   -0.76599  -0.73177  -0.72376  -0.71323  -0.71284
 Alpha  occ. eigenvalues --   -0.70414  -0.69412  -0.65879  -0.65579  -0.64015
 Alpha  occ. eigenvalues --   -0.63743  -0.62938  -0.61121  -0.56086  -0.54198
 Alpha  occ. eigenvalues --   -0.53924  -0.53671  -0.52080  -0.51841  -0.49952
 Alpha  occ. eigenvalues --   -0.49913  -0.48050  -0.48022  -0.46033  -0.44104
 Alpha  occ. eigenvalues --   -0.38195  -0.37183  -0.36275  -0.35369
 Alpha virt. eigenvalues --    0.04014   0.05948   0.10474   0.12308   0.15567
 Alpha virt. eigenvalues --    0.17512   0.20669   0.22437   0.26604   0.27516
 Alpha virt. eigenvalues --    0.28315   0.29044   0.30365   0.31702   0.31920

 Mulliken charges:
               1
     1  C   -0.161931
     2  C   -0.218835
     3  C   -0.172205
     4  C    0.157311
     5  C   -0.172160
     6  C   -0.218247
     7  H    0.229211
     8  H    0.221017
     9  H    0.272108
    10  H    0.272755
    11  H    0.226340
    12  N    0.488306
    13  O   -0.462776
    14  O   -0.463292
    15  C   -0.169668
    16  C   -0.218367
    17  C   -0.171046
    18  C    0.156277
    19  C   -0.171567
    20  C   -0.218360
    21  H    0.228727
    22  H    0.226197
    23  H    0.276038
    24  H    0.275463
    25  H    0.226029
    26  N    0.485026
    27  O   -0.461419
    28  O   -0.460933
 Sum of Mulliken charges =  -0.00000

 Dipole moment (field-independent basis, Debye):
    X=            -10.2937    Y=              1.0969    Z=             -2.9200  Tot=             10.7559
 Quadrupole moment (field-independent basis, Debye-Ang):
   XX=           -115.6659   YY=            -95.2774   ZZ=           -107.5347
   XY=             -2.2794   XZ=              6.9459   YZ=              2.1114

 Normal termination of Gaussian 16 at Wed May  5 19:29:27 2021.
