 Gaussian 16, Revision A.03,
 Gaussian 16:  EM64L-G16RevA.03 25-Dec-2016

 -------------
 #p 6-31g* mp2
 -------------

 ------------------------------------------------------
 Input file generated by CHIRIPA (05-May-2021 14:51:14)
 ------------------------------------------------------
 Symbolic Z-matrix:
 Charge =  0 Multiplicity = 1

                         Standard orientation:
 ---------------------------------------------------------------------
 Center     Atomic      Atomic             Coordinates (Angstroms)
 Number     Number       Type             X           Y           Z
 ---------------------------------------------------------------------
      1          6           0        2.308309   -0.566894   -0.369809
      2          6           0        1.896843   -1.514708   -1.496898
      3          6           0        2.191827   -2.979901   -1.174425
      4          1           0        3.381204   -0.690708   -0.168535
      5          1           0        1.782349   -0.853642    0.551352
      6          1           0        2.422371   -1.225401   -2.415994
      7          1           0        0.824843   -1.388486   -1.695642
      8          1           0        1.655403   -3.291357   -0.272291
      9          1           0        3.262008   -3.127345   -0.996736
     10          1           0        1.889835   -3.639932   -1.993583
     11          6           0        2.019745    0.901398   -0.677342
     12          6           0        2.431211    1.849212    0.449747
     13          6           0        2.136227    3.314404    0.127274
     14          1           0        2.545705    1.188145   -1.598503
     15          1           0        0.946850    1.025212   -0.878616
     16          1           0        3.503211    1.722989    0.648491
     17          1           0        1.905683    1.559905    1.368844
     18          1           0        1.066046    3.461849   -0.050414
     19          1           0        2.672650    3.625860   -0.774860
     20          1           0        2.438219    3.974436    0.946432
     21          6           0       -2.569448    0.359553    0.147354
     22          6           0       -3.120676   -0.139613   -1.188672
     23          6           0       -3.929480    0.925641   -1.929527
     24          1           0       -3.403791    0.693768    0.779112
     25          1           0       -1.939212    1.241889   -0.030638
     26          1           0       -3.748569   -1.021572   -1.008363
     27          1           0       -2.284939   -0.472856   -1.817249
     28          1           0       -3.309898    1.803770   -2.138354
     29          1           0       -4.781844    1.251936   -1.324871
     30          1           0       -4.314059    0.547536   -2.881891
     31          6           0       -1.758606   -0.694057    0.899796
     32          6           0       -1.207378   -0.194891    2.235823
     33          6           0       -0.398574   -1.260144    2.976678
     34          1           0       -2.388842   -1.576392    1.077788
     35          1           0       -0.924263   -1.028271    0.268039
     36          1           0       -2.043114    0.138353    2.864399
     37          1           0       -0.579485    0.687069    2.055513
     38          1           0        0.453790   -1.586439    2.372022
     39          1           0       -1.018156   -2.138273    3.185505
     40          1           0       -0.013996   -0.882039    3.929040
 ---------------------------------------------------------------------

 SCF Done:  E(RHF) =  -470.732822093     A.U. after   11 cycles
 E2 =    -0.1585794851D+01 EUMP2 =    -0.47231861694396D+03

 The electronic state is 1-A.
 Alpha  occ. eigenvalues --  -11.21679 -11.21667 -11.21665 -11.21657 -11.21475
 Alpha  occ. eigenvalues --  -11.21466 -11.21414 -11.21402 -11.21141 -11.21125
 Alpha  occ. eigenvalues --  -11.21114 -11.21111  -1.08578  -1.08432  -1.03603
 Alpha  occ. eigenvalues --   -1.03589  -0.96050  -0.96034  -0.87067  -0.87049
 Alpha  occ. eigenvalues --   -0.79705  -0.79610  -0.78332  -0.78313  -0.65710
 Alpha  occ. eigenvalues --   -0.64621  -0.61016  -0.60978  -0.59443  -0.59371
 Alpha  occ. eigenvalues --   -0.57685  -0.57623  -0.55372  -0.55308  -0.52739
 Alpha  occ. eigenvalues --   -0.52724  -0.52503  -0.52434  -0.50064  -0.49952
 Alpha  occ. eigenvalues --   -0.48029  -0.47981  -0.46907  -0.46475  -0.46124
 Alpha  occ. eigenvalues --   -0.45761  -0.45723  -0.45479  -0.43853  -0.43838
 Alpha virt. eigenvalues --    0.17968   0.22031   0.22160   0.24410   0.25466
 Alpha virt. eigenvalues --    0.26330   0.27461   0.27905   0.29140   0.29249
 Alpha virt. eigenvalues --    0.30821   0.31223   0.31728   0.31889   0.32209

 Mulliken charges:
               1
     1  C   -0.307837
     2  C   -0.302830
     3  C   -0.476537
     4  H    0.150580
     5  H    0.158093
     6  H    0.152655
     7  H    0.153536
     8  H    0.155679
     9  H    0.155560
    10  H    0.160708
    11  C   -0.300358
    12  C   -0.303362
    13  C   -0.475791
    14  H    0.150106
    15  H    0.151180
    16  H    0.152505
    17  H    0.155067
    18  H    0.154676
    19  H    0.155511
    20  H    0.160663
    21  C   -0.299415
    22  C   -0.301005
    23  C   -0.475728
    24  H    0.150257
    25  H    0.149800
    26  H    0.152378
    27  H    0.152413
    28  H    0.155323
    29  H    0.155381
    30  H    0.160581
    31  C   -0.305369
    32  C   -0.303618
    33  C   -0.481146
    34  H    0.150044
    35  H    0.156615
    36  H    0.152859
    37  H    0.155026
    38  H    0.159021
    39  H    0.155874
    40  H    0.160907
 Sum of Mulliken charges =  -0.00000

 Dipole moment (field-independent basis, Debye):
    X=              0.0029    Y=             -0.0083    Z=              0.0075  Tot=              0.0115
 Quadrupole moment (field-independent basis, Debye-Ang):
   XX=            -83.4428   YY=            -86.2905   ZZ=            -84.7886
   XY=              0.9381   XZ=             -1.2071   YZ=              0.3438

 Normal termination of Gaussian 16 at Wed May  5 15:24:24 2021.
