 Gaussian 16, Revision A.03,
 Gaussian 16:  EM64L-G16RevA.03 25-Dec-2016

 -------------
 #p 6-31g* mp2
 -------------

 ------------------------------------------------------
 Input file generated by CHIRIPA (05-May-2021 14:53:12)
 ------------------------------------------------------
 Symbolic Z-matrix:
 Charge =  0 Multiplicity = 1

                         Standard orientation:
 ---------------------------------------------------------------------
 Center     Atomic      Atomic             Coordinates (Angstroms)
 Number     Number       Type             X           Y           Z
 ---------------------------------------------------------------------
      1          6           0        3.850958    0.716612    0.621551
      2          6           0        3.186933    1.869196   -0.132510
      3          6           0        2.846504    3.051341    0.775474
      4          1           0        3.183814    0.381528    1.427518
      5          1           0        4.766425    1.083678    1.105882
      6          1           0        2.273725    1.499738   -0.616419
      7          1           0        3.855654    2.201448   -0.936897
      8          1           0        3.751266    3.447194    1.248028
      9          1           0        2.160350    2.741497    1.570326
     10          1           0        2.372705    3.863923    0.215936
     11          6           0        4.197297   -0.472570   -0.272666
     12          6           0        4.861322   -1.625154    0.481395
     13          6           0        5.201751   -2.807299   -0.426589
     14          1           0        3.281830   -0.839637   -0.756998
     15          1           0        4.864441   -0.137486   -1.078633
     16          1           0        4.192601   -1.957406    1.285781
     17          1           0        5.774530   -1.255696    0.965304
     18          1           0        5.887905   -2.497455   -1.221441
     19          1           0        4.296989   -3.203152   -0.899143
     20          1           0        5.675550   -3.619882    0.132949
     21          6           0       -0.976337    0.944238   -0.902517
     22          6           0       -1.033899   -0.423711   -0.616295
     23          6           0       -2.229498   -1.010417   -0.191006
     24          6           0       -3.353396   -0.195830   -0.062207
     25          6           0       -3.327854    1.170043   -0.339745
     26          6           0       -2.121479    1.735354   -0.763573
     27          1           0       -0.043382    1.391695   -1.232325
     28          1           0       -0.146143   -1.040542   -0.723309
     29          1           0       -2.302127   -2.066832    0.037312
     30          1           0       -4.229416    1.759224   -0.223678
     31          1           0       -2.079717    2.797994   -0.985152
     32          7           0       -4.624827   -0.805625    0.387255
     33          8           0       -5.600968   -0.066270    0.492801
     34          8           0       -4.621159   -2.011390    0.625486
 ---------------------------------------------------------------------

 SCF Done:  E(RHF) =  -669.535469790     A.U. after   15 cycles
 E2 =    -0.2091323845D+01 EUMP2 =    -0.67162679363462D+03

 The electronic state is 1-A.
 Alpha  occ. eigenvalues --  -20.60760 -20.60754 -15.85814 -11.31182 -11.27755
 Alpha  occ. eigenvalues --  -11.27748 -11.27471 -11.26772 -11.26755 -11.22728
 Alpha  occ. eigenvalues --  -11.22327 -11.22289 -11.22239 -11.22006 -11.21685
 Alpha  occ. eigenvalues --   -1.59835  -1.39389  -1.19355  -1.09327  -1.08747
 Alpha  occ. eigenvalues --   -1.04759  -1.04390  -0.96811  -0.95583  -0.87825
 Alpha  occ. eigenvalues --   -0.86156  -0.82419  -0.80469  -0.79133  -0.77463
 Alpha  occ. eigenvalues --   -0.72031  -0.71159  -0.70484  -0.65970  -0.65005
 Alpha  occ. eigenvalues --   -0.64758  -0.62108  -0.61794  -0.60198  -0.58430
 Alpha  occ. eigenvalues --   -0.56108  -0.55249  -0.53501  -0.53227  -0.53086
 Alpha  occ. eigenvalues --   -0.52851  -0.50747  -0.48809  -0.48786  -0.48748
 Alpha  occ. eigenvalues --   -0.47504  -0.46669  -0.46588  -0.44794  -0.44645
 Alpha  occ. eigenvalues --   -0.37328  -0.36366
 Alpha virt. eigenvalues --    0.05063   0.11279   0.16500   0.18741   0.22578
 Alpha virt. eigenvalues --    0.23417   0.24975   0.26218   0.26353   0.27936
 Alpha virt. eigenvalues --    0.28994   0.30416   0.30867   0.31058   0.31983

 Mulliken charges:
               1
     1  C   -0.299126
     2  C   -0.302815
     3  C   -0.476984
     4  H    0.151602
     5  H    0.153833
     6  H    0.140688
     7  H    0.155667
     8  H    0.160123
     9  H    0.158376
    10  H    0.158342
    11  C   -0.297424
    12  C   -0.300589
    13  C   -0.475844
    14  H    0.141663
    15  H    0.152142
    16  H    0.152812
    17  H    0.154586
    18  H    0.156488
    19  H    0.153641
    20  H    0.163193
    21  C   -0.175410
    22  C   -0.221549
    23  C   -0.170960
    24  C    0.158425
    25  C   -0.170789
    26  C   -0.219531
    27  H    0.233883
    28  H    0.223314
    29  H    0.275578
    30  H    0.275578
    31  H    0.223948
    32  N    0.488038
    33  O   -0.460394
    34  O   -0.460505
 Sum of Mulliken charges =  -0.00000

 Dipole moment (field-independent basis, Debye):
    X=              4.7012    Y=              2.1734    Z=             -1.4941  Tot=              5.3905
 Quadrupole moment (field-independent basis, Debye-Ang):
   XX=           -122.5089   YY=            -92.1993   ZZ=            -95.6182
   XY=             -9.7636   XZ=              5.4801   YZ=             -0.6383

 Normal termination of Gaussian 16 at Thu May  6 15:18:31 2021.
