 Gaussian 16, Revision A.03,
 Gaussian 16:  EM64L-G16RevA.03 25-Dec-2016

 -------------
 #p 6-31g* mp2
 -------------

 ------------------------------------------------------
 Input file generated by CHIRIPA (05-May-2021 14:51:09)
 ------------------------------------------------------
 Symbolic Z-matrix:
 Charge =  0 Multiplicity = 1

                         Standard orientation:
 ---------------------------------------------------------------------
 Center     Atomic      Atomic             Coordinates (Angstroms)
 Number     Number       Type             X           Y           Z
 ---------------------------------------------------------------------
      1          6           0       -4.145560    0.436707    0.336166
      2          6           0       -5.013424    0.694879   -0.895964
      3          6           0       -6.055773    1.789603   -0.666002
      4          1           0       -4.791590    0.158420    1.180054
      5          1           0       -3.641365    1.369938    0.622981
      6          1           0       -5.514755   -0.238891   -1.181197
      7          1           0       -4.365238    0.972397   -1.737067
      8          1           0       -5.570050    2.735004   -0.403530
      9          1           0       -6.726098    1.516834    0.155498
     10          1           0       -6.665098    1.957836   -1.559467
     11          6           0       -3.098743   -0.655070    0.121866
     12          6           0       -2.230879   -0.913242    1.353996
     13          6           0       -1.188531   -2.007966    1.124033
     14          1           0       -3.602938   -1.588301   -0.164949
     15          1           0       -2.452714   -0.376783   -0.722022
     16          1           0       -2.879065   -1.190760    2.195099
     17          1           0       -1.729549    0.020528    1.639229
     18          1           0       -0.518205   -1.735196    0.302534
     19          1           0       -1.674254   -2.953367    0.861562
     20          1           0       -0.579206   -2.176199    2.017499
     21          6           0        4.138925    0.594734    0.054914
     22          6           0        3.724145    2.061385   -0.067054
     23          6           0        4.768234    3.020565    0.505352
     24          1           0        4.316228    0.357191    1.112781
     25          1           0        5.096622    0.447458   -0.463278
     26          1           0        2.766830    2.205557    0.450032
     27          1           0        3.547623    2.295413   -1.124734
     28          1           0        5.723809    2.905909   -0.016500
     29          1           0        4.938579    2.815543    1.567213
     30          1           0        4.451409    4.063618    0.407782
     31          6           0        3.105378   -0.376371   -0.512945
     32          6           0        3.520159   -1.843022   -0.390978
     33          6           0        2.476070   -2.802202   -0.963384
     34          1           0        2.147682   -0.229095    0.005246
     35          1           0        2.928075   -0.138828   -1.570813
     36          1           0        3.696681   -2.077050    0.666702
     37          1           0        4.477475   -1.987194   -0.908064
     38          1           0        2.305724   -2.597180   -2.025245
     39          1           0        1.520495   -2.687546   -0.441532
     40          1           0        2.792894   -3.845256   -0.865814
 ---------------------------------------------------------------------

 SCF Done:  E(RHF) =  -470.733238658     A.U. after   11 cycles
 E2 =    -0.1582567723D+01 EUMP2 =    -0.47231580638057D+03

 The electronic state is 1-A.
 Alpha  occ. eigenvalues --  -11.21643 -11.21610 -11.21609 -11.21562 -11.21422
 Alpha  occ. eigenvalues --  -11.21400 -11.21362 -11.21341 -11.21123 -11.21077
 Alpha  occ. eigenvalues --  -11.21077 -11.20970  -1.08453  -1.08417  -1.03565
 Alpha  occ. eigenvalues --   -1.03501  -0.96026  -0.95942  -0.87057  -0.86947
 Alpha  occ. eigenvalues --   -0.79663  -0.79535  -0.78273  -0.78223  -0.65116
 Alpha  occ. eigenvalues --   -0.65020  -0.61051  -0.60826  -0.59375  -0.59327
 Alpha  occ. eigenvalues --   -0.57669  -0.57530  -0.55409  -0.55151  -0.52720
 Alpha  occ. eigenvalues --   -0.52645  -0.52529  -0.52288  -0.50080  -0.49786
 Alpha  occ. eigenvalues --   -0.48039  -0.47792  -0.46759  -0.46488  -0.45859
 Alpha  occ. eigenvalues --   -0.45754  -0.45736  -0.45578  -0.43809  -0.43766
 Alpha virt. eigenvalues --    0.21476   0.23089   0.23559   0.24740   0.25944
 Alpha virt. eigenvalues --    0.26789   0.27119   0.27575   0.27864   0.28962
 Alpha virt. eigenvalues --    0.30554   0.31411   0.31665   0.31797   0.32122

 Mulliken charges:
               1
     1  C   -0.298324
     2  C   -0.299696
     3  C   -0.475725
     4  H    0.149658
     5  H    0.149536
     6  H    0.151984
     7  H    0.152081
     8  H    0.155201
     9  H    0.155171
    10  H    0.160311
    11  C   -0.298621
    12  C   -0.299606
    13  C   -0.481670
    14  H    0.149715
    15  H    0.150192
    16  H    0.152141
    17  H    0.151657
    18  H    0.160348
    19  H    0.156108
    20  H    0.160109
    21  C   -0.298223
    22  C   -0.299609
    23  C   -0.475695
    24  H    0.149741
    25  H    0.149672
    26  H    0.151620
    27  H    0.151829
    28  H    0.155250
    29  H    0.155229
    30  H    0.160174
    31  C   -0.299950
    32  C   -0.298948
    33  C   -0.483633
    34  H    0.150411
    35  H    0.149307
    36  H    0.151843
    37  H    0.151675
    38  H    0.154275
    39  H    0.164355
    40  H    0.160108
 Sum of Mulliken charges =  -0.00000

 Dipole moment (field-independent basis, Debye):
    X=             -0.0299    Y=             -0.0088    Z=              0.0066  Tot=              0.0319
 Quadrupole moment (field-independent basis, Debye-Ang):
   XX=            -85.2450   YY=            -85.5509   ZZ=            -84.0050
   XY=              0.6373   XZ=             -0.8304   YZ=             -0.6290

 Normal termination of Gaussian 16 at Wed May  5 15:07:56 2021.
