 Gaussian 16, Revision A.03,
 Gaussian 16:  EM64L-G16RevA.03 25-Dec-2016

 -------------
 #p 6-31g* mp2
 -------------

 ------------------------------------------------------
 Input file generated by CHIRIPA (05-May-2021 14:55:23)
 ------------------------------------------------------
 Symbolic Z-matrix:
 Charge =  0 Multiplicity = 1

                         Standard orientation:
 ---------------------------------------------------------------------
 Center     Atomic      Atomic             Coordinates (Angstroms)
 Number     Number       Type             X           Y           Z
 ---------------------------------------------------------------------
      1          6           0        0.558053   -1.454742    0.797406
      2          6           0        0.971305   -1.494965   -0.538306
      3          6           0        2.145411   -0.849779   -0.938005
      4          6           0        2.885352   -0.170595    0.028683
      5          6           0        2.499914   -0.112367    1.367091
      6          6           0        1.322329   -0.764788    1.744172
      7          1           0       -0.355372   -1.958747    1.099116
      8          1           0        0.379749   -2.030030   -1.275742
      9          1           0        2.488537   -0.864901   -1.965358
     10          1           0        3.110584    0.429037    2.079398
     11          1           0        1.003825   -0.731871    2.782207
     12          7           0        4.130167    0.516264   -0.382489
     13          8           0        4.764345    1.107852    0.488418
     14          8           0        4.448104    0.450030   -1.567886
     15          6           0       -3.356097    1.008541    0.278401
     16          6           0       -3.244919    2.257982   -0.595969
     17          6           0       -3.096314    3.540923    0.222427
     18          1           0       -4.216277    1.116375    0.953240
     19          1           0       -2.464914    0.935978    0.917089
     20          1           0       -4.135402    2.327417   -1.233806
     21          1           0       -2.385018    2.147078   -1.268937
     22          1           0       -2.198391    3.497432    0.847283
     23          1           0       -3.958720    3.678796    0.882615
     24          1           0       -3.018507    4.421767   -0.422491
     25          6           0       -3.505193   -0.282020   -0.525309
     26          6           0       -3.616372   -1.531461    0.349061
     27          6           0       -3.764977   -2.814402   -0.469335
     28          1           0       -4.396376   -0.209457   -1.163997
     29          1           0       -2.645013   -0.389854   -1.200148
     30          1           0       -4.476272   -1.420557    1.022030
     31          1           0       -2.725888   -1.600896    0.986897
     32          1           0       -2.902570   -2.952275   -1.129523
     33          1           0       -4.662900   -2.770912   -1.094191
     34          1           0       -3.842784   -3.695246    0.175583
 ---------------------------------------------------------------------

 SCF Done:  E(RHF) =  -669.535602422     A.U. after   15 cycles
 E2 =    -0.2091882295D+01 EUMP2 =    -0.67162748471658D+03

 The electronic state is 1-A.
 Alpha  occ. eigenvalues --  -20.60797 -20.60792 -15.85852 -11.31235 -11.27805
 Alpha  occ. eigenvalues --  -11.27801 -11.27532 -11.26828 -11.26815 -11.22678
 Alpha  occ. eigenvalues --  -11.22201 -11.22125 -11.22062 -11.21991 -11.21416
 Alpha  occ. eigenvalues --   -1.59873  -1.39426  -1.19408  -1.09184  -1.08796
 Alpha  occ. eigenvalues --   -1.04813  -1.04265  -0.96693  -0.95631  -0.87711
 Alpha  occ. eigenvalues --   -0.86208  -0.82466  -0.80355  -0.78954  -0.77507
 Alpha  occ. eigenvalues --   -0.72069  -0.71196  -0.70542  -0.65832  -0.65058
 Alpha  occ. eigenvalues --   -0.64802  -0.62162  -0.61670  -0.60091  -0.58294
 Alpha  occ. eigenvalues --   -0.55994  -0.55314  -0.53391  -0.53143  -0.53101
 Alpha  occ. eigenvalues --   -0.52903  -0.50646  -0.48834  -0.48823  -0.48648
 Alpha  occ. eigenvalues --   -0.47401  -0.46494  -0.46394  -0.44827  -0.44501
 Alpha  occ. eigenvalues --   -0.37377  -0.36417
 Alpha virt. eigenvalues --    0.05001   0.11180   0.16379   0.18738   0.22913
 Alpha virt. eigenvalues --    0.23846   0.24855   0.25625   0.27212   0.28054
 Alpha virt. eigenvalues --    0.28966   0.29721   0.31006   0.31506   0.31931

 Mulliken charges:
               1
     1  C   -0.174365
     2  C   -0.221411
     3  C   -0.170935
     4  C    0.158645
     5  C   -0.170755
     6  C   -0.220458
     7  H    0.233225
     8  H    0.224151
     9  H    0.275834
    10  H    0.275818
    11  H    0.223957
    12  N    0.488016
    13  O   -0.460250
    14  O   -0.460277
    15  C   -0.298704
    16  C   -0.300339
    17  C   -0.476224
    18  H    0.150603
    19  H    0.148380
    20  H    0.152767
    21  H    0.153991
    22  H    0.156041
    23  H    0.155127
    24  H    0.162855
    25  C   -0.298329
    26  C   -0.303141
    27  C   -0.476049
    28  H    0.153095
    29  H    0.147694
    30  H    0.157166
    31  H    0.141803
    32  H    0.149029
    33  H    0.161190
    34  H    0.161849
 Sum of Mulliken charges =  -0.00000

 Dipole moment (field-independent basis, Debye):
    X=             -4.5133    Y=             -2.3369    Z=              1.4177  Tot=              5.2764
 Quadrupole moment (field-independent basis, Debye-Ang):
   XX=           -118.9899   YY=            -95.0517   ZZ=            -90.4950
   XY=             -6.2581   XZ=              4.9322   YZ=              0.8691

 Normal termination of Gaussian 16 at Thu May  6 19:16:06 2021.
