 Gaussian 16, Revision A.03,
 Gaussian 16:  EM64L-G16RevA.03 25-Dec-2016

 -------------
 #p 6-31g* mp2
 -------------

 ------------------------------------------------------
 Input file generated by CHIRIPA (05-May-2021 14:51:13)
 ------------------------------------------------------
 Symbolic Z-matrix:
 Charge =  0 Multiplicity = 1

                         Standard orientation:
 ---------------------------------------------------------------------
 Center     Atomic      Atomic             Coordinates (Angstroms)
 Number     Number       Type             X           Y           Z
 ---------------------------------------------------------------------
      1          6           0        2.826068    0.265276   -0.124921
      2          6           0        4.271472    0.763621   -0.103852
      3          6           0        4.393931    2.238482   -0.488015
      4          1           0        2.406012    0.420441   -1.128126
      5          1           0        2.225087    0.875546    0.563402
      6          1           0        4.869838    0.151704   -0.790970
      7          1           0        4.688196    0.607075    0.899368
      8          1           0        3.821185    2.865408    0.203019
      9          1           0        4.003859    2.407449   -1.496923
     10          1           0        5.435537    2.573819   -0.466424
     11          6           0        2.687372   -1.207376    0.256903
     12          6           0        1.241968   -1.705721    0.235834
     13          6           0        1.119509   -3.180583    0.619997
     14          1           0        3.288353   -1.817646   -0.431420
     15          1           0        3.107427   -1.362541    1.260109
     16          1           0        0.825243   -1.549176   -0.767386
     17          1           0        0.643602   -1.093804    0.922953
     18          1           0        1.509581   -3.349549    1.628905
     19          1           0        1.692254   -3.807508   -0.071037
     20          1           0        0.077903   -3.515919    0.598406
     21          6           0       -2.333426    1.101097    0.019425
     22          6           0       -3.165408    2.366847    0.228386
     23          6           0       -2.304398    3.618962    0.397697
     24          1           0       -1.656588    0.969503    0.874714
     25          1           0       -1.696249    1.231575   -0.866225
     26          1           0       -3.801838    2.233487    1.112575
     27          1           0       -3.840479    2.495339   -0.627409
     28          1           0       -1.680065    3.779712   -0.487158
     29          1           0       -1.641203    3.516373    1.262711
     30          1           0       -2.919418    4.512094    0.545764
     31          6           0       -3.180013   -0.158996   -0.151407
     32          6           0       -2.348032   -1.424748   -0.360368
     33          6           0       -3.209042   -2.676861   -0.529680
     34          1           0       -3.817191   -0.289475    0.734243
     35          1           0       -3.856852   -0.027402   -1.006696
     36          1           0       -1.672961   -1.553239    0.495427
     37          1           0       -1.711602   -1.291388   -1.244557
     38          1           0       -3.872236   -2.574272   -1.394694
     39          1           0       -3.833375   -2.837612    0.355176
     40          1           0       -2.594022   -3.569993   -0.677746
 ---------------------------------------------------------------------

 SCF Done:  E(RHF) =  -470.731970327     A.U. after   11 cycles
 E2 =    -0.1584441271D+01 EUMP2 =    -0.47231641159807D+03

 The electronic state is 1-A.
 Alpha  occ. eigenvalues --  -11.21591 -11.21578 -11.21507 -11.21486 -11.21379
 Alpha  occ. eigenvalues --  -11.21362 -11.21315 -11.21298 -11.21065 -11.21051
 Alpha  occ. eigenvalues --  -11.21051 -11.21042  -1.08448  -1.08351  -1.03590
 Alpha  occ. eigenvalues --   -1.03418  -0.96002  -0.95914  -0.86997  -0.86947
 Alpha  occ. eigenvalues --   -0.79803  -0.79399  -0.78420  -0.77955  -0.65140
 Alpha  occ. eigenvalues --   -0.64940  -0.61042  -0.60791  -0.59649  -0.59077
 Alpha  occ. eigenvalues --   -0.57791  -0.57281  -0.55268  -0.55221  -0.52730
 Alpha  occ. eigenvalues --   -0.52577  -0.52426  -0.52319  -0.49940  -0.49860
 Alpha  occ. eigenvalues --   -0.48201  -0.47624  -0.46857  -0.46420  -0.46100
 Alpha  occ. eigenvalues --   -0.45850  -0.45422  -0.45248  -0.43791  -0.43703
 Alpha virt. eigenvalues --    0.21206   0.22906   0.23387   0.24450   0.25230
 Alpha virt. eigenvalues --    0.25714   0.26700   0.27647   0.28687   0.29618
 Alpha virt. eigenvalues --    0.30377   0.30567   0.31495   0.31768   0.32414

 Mulliken charges:
               1
     1  C   -0.297982
     2  C   -0.299593
     3  C   -0.475644
     4  H    0.149149
     5  H    0.149691
     6  H    0.151808
     7  H    0.151831
     8  H    0.155324
     9  H    0.155002
    10  H    0.160135
    11  C   -0.298043
    12  C   -0.301027
    13  C   -0.480731
    14  H    0.149029
    15  H    0.149013
    16  H    0.155136
    17  H    0.152336
    18  H    0.154820
    19  H    0.155239
    20  H    0.163786
    21  C   -0.298731
    22  C   -0.299642
    23  C   -0.475567
    24  H    0.149474
    25  H    0.149860
    26  H    0.151777
    27  H    0.152001
    28  H    0.155438
    29  H    0.154758
    30  H    0.160200
    31  C   -0.297945
    32  C   -0.304229
    33  C   -0.477333
    34  H    0.148920
    35  H    0.149125
    36  H    0.159566
    37  H    0.152596
    38  H    0.155025
    39  H    0.154895
    40  H    0.160533
 Sum of Mulliken charges =  -0.00000

 Dipole moment (field-independent basis, Debye):
    X=             -0.0041    Y=              0.0032    Z=             -0.0074  Tot=              0.0091
 Quadrupole moment (field-independent basis, Debye-Ang):
   XX=            -85.3368   YY=            -86.8968   ZZ=            -82.8503
   XY=             -0.7797   XZ=             -0.1066   YZ=              0.2412

 Normal termination of Gaussian 16 at Wed May  5 23:12:34 2021.
