 Gaussian 16, Revision A.03,
 Gaussian 16:  EM64L-G16RevA.03 25-Dec-2016

 -------------
 #p 6-31g* mp2
 -------------

 ------------------------------------------------------
 Input file generated by CHIRIPA (05-May-2021 14:55:25)
 ------------------------------------------------------
 Symbolic Z-matrix:
 Charge =  0 Multiplicity = 1

                         Standard orientation:
 ---------------------------------------------------------------------
 Center     Atomic      Atomic             Coordinates (Angstroms)
 Number     Number       Type             X           Y           Z
 ---------------------------------------------------------------------
      1          6           0       -5.941163    1.045623    0.380211
      2          6           0       -4.904749    1.901307   -0.007306
      3          6           0       -3.622069    1.399640   -0.247329
      4          6           0       -3.410181    0.030877   -0.089586
      5          6           0       -4.422165   -0.847199    0.295331
      6          6           0       -5.696994   -0.323485    0.530029
      7          1           0       -6.934530    1.443893    0.564599
      8          1           0       -5.091471    2.965008   -0.124440
      9          1           0       -2.801516    2.039549   -0.548370
     10          1           0       -4.205446   -1.902981    0.403835
     11          1           0       -6.499981   -0.990383    0.830871
     12          7           0       -2.056421   -0.511885   -0.340869
     13          8           0       -1.895570   -1.721622   -0.194923
     14          8           0       -1.181829    0.282712   -0.679012
     15          6           0        3.926524   -0.242518   -0.164803
     16          6           0        3.316806   -1.578356    0.261538
     17          6           0        1.867847   -1.740604   -0.198882
     18          1           0        3.317563    0.577196    0.240389
     19          1           0        3.876848   -0.157372   -1.259188
     20          1           0        3.368873   -1.661561    1.354690
     21          1           0        3.927399   -2.394983   -0.144558
     22          1           0        1.801754   -1.683799   -1.290214
     23          1           0        1.240055   -0.946211    0.217551
     24          1           0        1.451665   -2.702439    0.116598
     25          6           0        5.374717   -0.065529    0.288122
     26          6           0        5.984435    1.270308   -0.138219
     27          6           0        7.433394    1.432557    0.322201
     28          1           0        5.424393   -0.150676    1.382506
     29          1           0        5.983678   -0.885243   -0.117071
     30          1           0        5.373842    2.086935    0.267876
     31          1           0        5.932368    1.353513   -1.231371
     32          1           0        8.061185    0.638162   -0.094233
     33          1           0        7.499486    1.375752    1.413533
     34          1           0        7.849576    2.394391    0.006721
 ---------------------------------------------------------------------

 SCF Done:  E(RHF) =  -669.536070117     A.U. after   15 cycles
 E2 =    -0.2091400495D+01 EUMP2 =    -0.67162747061213D+03

 The electronic state is 1-A.
 Alpha  occ. eigenvalues --  -20.60959 -20.60948 -15.85970 -11.31307 -11.27867
 Alpha  occ. eigenvalues --  -11.27863 -11.27604 -11.26874 -11.26864 -11.20867
 Alpha  occ. eigenvalues --  -11.20482 -11.20466 -11.20178 -11.20094 -11.18879
 Alpha  occ. eigenvalues --   -1.60000  -1.39557  -1.19472  -1.08874  -1.07348
 Alpha  occ. eigenvalues --   -1.04868  -1.02331  -0.95715  -0.94732  -0.86268
 Alpha  occ. eigenvalues --   -0.85733  -0.82546  -0.78440  -0.77600  -0.77084
 Alpha  occ. eigenvalues --   -0.72178  -0.71317  -0.70579  -0.65125  -0.64870
 Alpha  occ. eigenvalues --   -0.63998  -0.62215  -0.59745  -0.58223  -0.56341
 Alpha  occ. eigenvalues --   -0.55375  -0.54036  -0.53199  -0.52959  -0.51421
 Alpha  occ. eigenvalues --   -0.51188  -0.49091  -0.48925  -0.48522  -0.46660
 Alpha  occ. eigenvalues --   -0.45504  -0.44972  -0.44595  -0.44503  -0.42576
 Alpha  occ. eigenvalues --   -0.37451  -0.36469
 Alpha virt. eigenvalues --    0.04915   0.11186   0.16413   0.21325   0.23842
 Alpha virt. eigenvalues --    0.25567   0.27240   0.27688   0.28202   0.28503
 Alpha virt. eigenvalues --    0.29384   0.30891   0.32425   0.32624   0.32736

 Mulliken charges:
               1
     1  C   -0.170591
     2  C   -0.218564
     3  C   -0.170868
     4  C    0.158994
     5  C   -0.170839
     6  C   -0.218584
     7  H    0.226017
     8  H    0.223848
     9  H    0.275810
    10  H    0.275915
    11  H    0.223862
    12  N    0.487861
    13  O   -0.457817
    14  O   -0.458911
    15  C   -0.296475
    16  C   -0.301967
    17  C   -0.471723
    18  H    0.150328
    19  H    0.148633
    20  H    0.145734
    21  H    0.145266
    22  H    0.152840
    23  H    0.171567
    24  H    0.158003
    25  C   -0.297152
    26  C   -0.298667
    27  C   -0.475019
    28  H    0.147134
    29  H    0.147549
    30  H    0.150803
    31  H    0.151125
    32  H    0.154200
    33  H    0.153904
    34  H    0.157783
 Sum of Mulliken charges =  -0.00000

 Dipole moment (field-independent basis, Debye):
    X=             -5.2301    Y=              1.9364    Z=              0.8446  Tot=              5.6406
 Quadrupole moment (field-independent basis, Debye-Ang):
   XX=            -64.9004   YY=            -90.6251   ZZ=            -94.9393
   XY=             -5.3448   XZ=             -3.8326   YZ=             -0.9863

 Normal termination of Gaussian 16 at Thu May  6 09:32:14 2021.
