 Gaussian 16, Revision A.03,
 Gaussian 16:  EM64L-G16RevA.03 25-Dec-2016

 -------------
 #p 6-31g* mp2
 -------------

 ------------------------------------------------------
 Input file generated by CHIRIPA (05-May-2021 14:53:16)
 ------------------------------------------------------
 Symbolic Z-matrix:
 Charge =  0 Multiplicity = 1

                         Standard orientation:
 ---------------------------------------------------------------------
 Center     Atomic      Atomic             Coordinates (Angstroms)
 Number     Number       Type             X           Y           Z
 ---------------------------------------------------------------------
      1          6           0       -4.200436   -0.481884    0.445544
      2          6           0       -5.280858   -0.860366   -0.568076
      3          6           0       -5.940838   -2.203531   -0.254821
      4          1           0       -3.436292   -1.270852    0.469195
      5          1           0       -4.645404   -0.447511    1.449644
      6          1           0       -4.834286   -0.892663   -1.570148
      7          1           0       -6.042419   -0.070314   -0.589456
      8          1           0       -6.412244   -2.180046    0.733017
      9          1           0       -5.197247   -3.007067   -0.253246
     10          1           0       -6.709987   -2.454508   -0.991897
     11          6           0       -3.531417    0.858387    0.145851
     12          6           0       -2.450995    1.236868    1.159471
     13          6           0       -1.791015    2.580033    0.846216
     14          1           0       -3.086449    0.824013   -0.858249
     15          1           0       -4.295560    1.647355    0.122200
     16          1           0       -1.689434    0.446816    1.180850
     17          1           0       -2.897567    1.269165    2.161542
     18          1           0       -2.534606    3.383570    0.844641
     19          1           0       -1.319608    2.556548   -0.141623
     20          1           0       -1.021866    2.831010    1.583291
     21          6           0        1.263406    1.385213   -1.196161
     22          6           0        2.489136    1.906746   -0.769421
     23          6           0        3.469897    1.067111   -0.233072
     24          6           0        3.190101   -0.295207   -0.137706
     25          6           0        1.978639   -0.844947   -0.554164
     26          6           0        1.012512    0.013449   -1.087362
     27          1           0        0.507211    2.044749   -1.611586
     28          1           0        2.686742    2.971668   -0.852709
     29          1           0        4.427432    1.444285    0.104987
     30          1           0        1.810721   -1.910807   -0.458435
     31          1           0        0.061496   -0.394368   -1.417969
     32          7           0        4.220642   -1.194022    0.428434
     33          8           0        3.949603   -2.390601    0.501727
     34          8           0        5.279907   -0.684914    0.788164
 ---------------------------------------------------------------------

 SCF Done:  E(RHF) =  -669.535136831     A.U. after   15 cycles
 E2 =    -0.2092033776D+01 EUMP2 =    -0.67162717060763D+03

 The electronic state is 1-A.
 Alpha  occ. eigenvalues --  -20.60779 -20.60774 -15.85834 -11.31207 -11.27795
 Alpha  occ. eigenvalues --  -11.27783 -11.27525 -11.26812 -11.26781 -11.22314
 Alpha  occ. eigenvalues --  -11.22167 -11.22156 -11.22007 -11.21913 -11.21517
 Alpha  occ. eigenvalues --   -1.59855  -1.39408  -1.19390  -1.09119  -1.08780
 Alpha  occ. eigenvalues --   -1.04795  -1.04183  -0.96650  -0.95613  -0.87663
 Alpha  occ. eigenvalues --   -0.86190  -0.82449  -0.80246  -0.78919  -0.77489
 Alpha  occ. eigenvalues --   -0.72052  -0.71179  -0.70531  -0.65778  -0.65041
 Alpha  occ. eigenvalues --   -0.64785  -0.62147  -0.61583  -0.60002  -0.58247
 Alpha  occ. eigenvalues --   -0.56096  -0.55213  -0.53328  -0.53116  -0.53017
 Alpha  occ. eigenvalues --   -0.52886  -0.50576  -0.48812  -0.48806  -0.48555
 Alpha  occ. eigenvalues --   -0.47280  -0.46458  -0.46393  -0.44812  -0.44443
 Alpha  occ. eigenvalues --   -0.37332  -0.36395
 Alpha virt. eigenvalues --    0.05029   0.11179   0.16440   0.19295   0.22610
 Alpha virt. eigenvalues --    0.23963   0.25509   0.25736   0.26897   0.28206
 Alpha virt. eigenvalues --    0.28639   0.30637   0.31053   0.31437   0.31932

 Mulliken charges:
               1
     1  C   -0.298446
     2  C   -0.299778
     3  C   -0.476030
     4  H    0.148129
     5  H    0.152738
     6  H    0.149851
     7  H    0.153273
     8  H    0.156826
     9  H    0.155551
    10  H    0.161741
    11  C   -0.297867
    12  C   -0.302209
    13  C   -0.473920
    14  H    0.141066
    15  H    0.152280
    16  H    0.153594
    17  H    0.156240
    18  H    0.157067
    19  H    0.142683
    20  H    0.164661
    21  C   -0.167671
    22  C   -0.219794
    23  C   -0.170733
    24  C    0.158508
    25  C   -0.171305
    26  C   -0.219701
    27  H    0.226775
    28  H    0.223924
    29  H    0.275769
    30  H    0.275647
    31  H    0.223844
    32  N    0.488100
    33  O   -0.460463
    34  O   -0.460348
 Sum of Mulliken charges =  -0.00000

 Dipole moment (field-independent basis, Debye):
    X=             -3.7224    Y=              3.1670    Z=             -1.8934  Tot=              5.2413
 Quadrupole moment (field-independent basis, Debye-Ang):
   XX=           -115.7537   YY=            -94.4572   ZZ=            -94.5485
   XY=             13.2796   XZ=             -6.0774   YZ=              1.2090

 Normal termination of Gaussian 16 at Thu May  6 12:14:19 2021.
