 Gaussian 16, Revision A.03,
 Gaussian 16:  EM64L-G16RevA.03 25-Dec-2016

 -------------
 #p 6-31g* mp2
 -------------

 ------------------------------------------------------
 Input file generated by CHIRIPA (05-May-2021 14:55:25)
 ------------------------------------------------------
 Symbolic Z-matrix:
 Charge =  0 Multiplicity = 1

                         Standard orientation:
 ---------------------------------------------------------------------
 Center     Atomic      Atomic             Coordinates (Angstroms)
 Number     Number       Type             X           Y           Z
 ---------------------------------------------------------------------
      1          6           0        5.275758    0.516186   -0.859924
      2          6           0        4.786453   -0.749317   -1.199929
      3          6           0        3.595289   -1.223352   -0.642284
      4          6           0        2.916027   -0.401784    0.256003
      5          6           0        3.377828    0.863674    0.614677
      6          6           0        4.571126    1.317230    0.044699
      7          1           0        6.201912    0.876473   -1.297906
      8          1           0        5.331573   -1.373590   -1.902193
      9          1           0        3.193804   -2.198998   -0.887929
     10          1           0        2.812225    1.463109    1.317662
     11          1           0        4.948749    2.300463    0.310593
     12          7           0        1.653866   -0.892783    0.852884
     13          8           0        1.074179   -0.149672    1.641799
     14          8           0        1.268169   -2.011442    0.520504
     15          6           0       -4.641404    0.201269    0.154049
     16          6           0       -5.677196   -0.422334   -0.782027
     17          6           0       -6.957307   -0.836162   -0.055490
     18          1           0       -4.397514   -0.515396    0.950198
     19          1           0       -5.083871    1.077806    0.647305
     20          1           0       -5.232453   -1.296621   -1.274413
     21          1           0       -5.918505    0.295827   -1.576149
     22          1           0       -7.426643    0.030187    0.421758
     23          1           0       -6.736693   -1.571308    0.725209
     24          1           0       -7.683935   -1.279557   -0.743437
     25          6           0       -3.356156    0.620135   -0.557580
     26          6           0       -2.320364    1.243738    0.378496
     27          6           0       -1.040252    1.657566   -0.348042
     28          1           0       -2.913689   -0.256402   -1.050836
     29          1           0       -3.600045    1.336800   -1.353730
     30          1           0       -2.079055    0.525577    1.172618
     31          1           0       -2.765106    2.118025    0.870881
     32          1           0       -1.260867    2.392713   -1.128740
     33          1           0       -0.570918    0.791218   -0.825290
     34          1           0       -0.313624    2.100962    0.339906
 ---------------------------------------------------------------------

 SCF Done:  E(RHF) =  -669.536043557     A.U. after   15 cycles
 E2 =    -0.2091911061D+01 EUMP2 =    -0.67162795461740D+03

 The electronic state is 1-A.
 Alpha  occ. eigenvalues --  -20.60943 -20.60915 -15.85944 -11.31262 -11.27826
 Alpha  occ. eigenvalues --  -11.27822 -11.27561 -11.26831 -11.26821 -11.20928
 Alpha  occ. eigenvalues --  -11.20563 -11.20490 -11.20456 -11.20397 -11.20082
 Alpha  occ. eigenvalues --   -1.59984  -1.39541  -1.19429  -1.08836  -1.07546
 Alpha  occ. eigenvalues --   -1.04825  -1.02650  -0.95684  -0.95134  -0.86227
 Alpha  occ. eigenvalues --   -0.86170  -0.82516  -0.78741  -0.77571  -0.77342
 Alpha  occ. eigenvalues --   -0.72182  -0.71306  -0.70541  -0.65088  -0.64831
 Alpha  occ. eigenvalues --   -0.64164  -0.62176  -0.60033  -0.58510  -0.56729
 Alpha  occ. eigenvalues --   -0.55333  -0.54436  -0.53151  -0.52920  -0.51856
 Alpha  occ. eigenvalues --   -0.51573  -0.49114  -0.48946  -0.48920  -0.47056
 Alpha  occ. eigenvalues --   -0.45763  -0.44918  -0.44877  -0.44776  -0.42902
 Alpha  occ. eigenvalues --   -0.37405  -0.36423
 Alpha virt. eigenvalues --    0.04931   0.11214   0.16414   0.21262   0.23724
 Alpha virt. eigenvalues --    0.24962   0.27065   0.27478   0.27880   0.28386
 Alpha virt. eigenvalues --    0.28892   0.30695   0.31566   0.32130   0.32626

 Mulliken charges:
               1
     1  C   -0.170501
     2  C   -0.218539
     3  C   -0.170936
     4  C    0.158361
     5  C   -0.170052
     6  C   -0.218560
     7  H    0.225899
     8  H    0.223687
     9  H    0.275609
    10  H    0.275646
    11  H    0.223772
    12  N    0.488684
    13  O   -0.458016
    14  O   -0.460323
    15  C   -0.298291
    16  C   -0.299113
    17  C   -0.475346
    18  H    0.153078
    19  H    0.147001
    20  H    0.152223
    21  H    0.149523
    22  H    0.153813
    23  H    0.155850
    24  H    0.157995
    25  C   -0.298524
    26  C   -0.301952
    27  C   -0.470145
    28  H    0.151729
    29  H    0.144406
    30  H    0.170223
    31  H    0.145812
    32  H    0.145177
    33  H    0.150699
    34  H    0.161113
 Sum of Mulliken charges =  -0.00000

 Dipole moment (field-independent basis, Debye):
    X=              4.6691    Y=              1.6101    Z=             -1.9577  Tot=              5.3128
 Quadrupole moment (field-independent basis, Debye-Ang):
   XX=            -70.9601   YY=            -92.3068   ZZ=            -95.3286
   XY=              2.5321   XZ=             -5.3549   YZ=              3.9887

 Normal termination of Gaussian 16 at Thu May  6 01:37:08 2021.
