 Gaussian 16, Revision A.03,
 Gaussian 16:  EM64L-G16RevA.03 25-Dec-2016

 -------------
 #p 6-31g* mp2
 -------------

 ------------------------------------------------------
 Input file generated by CHIRIPA (05-May-2021 14:57:22)
 ------------------------------------------------------
 Symbolic Z-matrix:
 Charge =  0 Multiplicity = 1

                         Standard orientation:
 ---------------------------------------------------------------------
 Center     Atomic      Atomic             Coordinates (Angstroms)
 Number     Number       Type             X           Y           Z
 ---------------------------------------------------------------------
      1          6           0       -2.286612    2.361813    0.995870
      2          6           0       -2.893974    2.370144   -0.264115
      3          6           0       -3.376606    1.185155   -0.827512
      4          6           0       -3.234654    0.004557   -0.099962
      5          6           0       -2.634270   -0.036175    1.157484
      6          6           0       -2.158923    1.160798    1.701404
      7          1           0       -1.914521    3.286996    1.425965
      8          1           0       -2.994502    3.301388   -0.814318
      9          1           0       -3.850994    1.162987   -1.801104
     10          1           0       -2.548418   -0.980082    1.681971
     11          1           0       -1.687676    1.151328    2.680118
     12          7           0       -3.741738   -1.256281   -0.686096
     13          8           0       -3.604557   -2.283222   -0.024876
     14          8           0       -4.266771   -1.193711   -1.795629
     15          6           0        0.900783   -1.047494    0.780943
     16          6           0        2.038860   -1.843247    0.948507
     17          6           0        3.290807   -1.390692    0.521459
     18          6           0        3.368631   -0.131620   -0.071813
     19          6           0        2.253110    0.684575   -0.252731
     20          6           0        1.011346    0.211658    0.181915
     21          1           0       -0.067805   -1.406958    1.115635
     22          1           0        1.955986   -2.821541    1.413393
     23          1           0        4.188082   -1.986120    0.638858
     24          1           0        2.367235    1.655354   -0.719615
     25          1           0        0.129199    0.831811    0.050489
     26          7           0        4.688622    0.358257   -0.527932
     27          8           0        4.730581    1.471243   -1.047681
     28          8           0        5.656277   -0.380038   -0.357051
 ---------------------------------------------------------------------

 SCF Done:  E(RHF) =  -868.336529732     A.U. after   16 cycles
 E2 =    -0.2603496994D+01 EUMP2 =    -0.87094002672561D+03

 The electronic state is 1-A.
 Alpha  occ. eigenvalues --  -20.61853 -20.61826 -20.60841 -20.60832 -15.86900
 Alpha  occ. eigenvalues --  -15.85888 -11.32503 -11.31232 -11.29081 -11.28981
 Alpha  occ. eigenvalues --  -11.28729 -11.28088 -11.28047 -11.27775 -11.27765
 Alpha  occ. eigenvalues --  -11.27471 -11.26784 -11.26655  -1.60910  -1.59914
 Alpha  occ. eigenvalues --   -1.40459  -1.39469  -1.20691  -1.19382  -1.10009
 Alpha  occ. eigenvalues --   -1.08786  -1.06099  -1.04771  -0.96807  -0.95630
 Alpha  occ. eigenvalues --   -0.87451  -0.86174  -0.83617  -0.82461  -0.78652
 Alpha  occ. eigenvalues --   -0.77517  -0.73106  -0.72248  -0.72106  -0.71738
 Alpha  occ. eigenvalues --   -0.71237  -0.70503  -0.66285  -0.66022  -0.65030
 Alpha  occ. eigenvalues --   -0.64826  -0.63400  -0.62167  -0.56508  -0.55303
 Alpha  occ. eigenvalues --   -0.54513  -0.54096  -0.53118  -0.52671  -0.49883
 Alpha  occ. eigenvalues --   -0.49854  -0.48868  -0.48857  -0.45812  -0.44880
 Alpha  occ. eigenvalues --   -0.38682  -0.37773  -0.37282  -0.36350
 Alpha virt. eigenvalues --    0.03826   0.05004   0.09737   0.11365   0.15294
 Alpha virt. eigenvalues --    0.16511   0.19775   0.21844   0.25315   0.26829
 Alpha virt. eigenvalues --    0.27514   0.28907   0.30129   0.30618   0.32346

 Mulliken charges:
               1
     1  C   -0.178165
     2  C   -0.218020
     3  C   -0.171248
     4  C    0.162680
     5  C   -0.184203
     6  C   -0.222248
     7  H    0.232242
     8  H    0.230059
     9  H    0.280825
    10  H    0.274553
    11  H    0.229883
    12  N    0.488651
    13  O   -0.461075
    14  O   -0.454432
    15  C   -0.175522
    16  C   -0.218182
    17  C   -0.171647
    18  C    0.159127
    19  C   -0.173978
    20  C   -0.226003
    21  H    0.223764
    22  H    0.225096
    23  H    0.275747
    24  H    0.272986
    25  H    0.232597
    26  N    0.488036
    27  O   -0.461675
    28  O   -0.459848
 Sum of Mulliken charges =  -0.00000

 Dipole moment (field-independent basis, Debye):
    X=             -3.2329    Y=              2.8319    Z=              3.5871  Tot=              5.5981
 Quadrupole moment (field-independent basis, Debye-Ang):
   XX=           -146.8356   YY=            -99.5862   ZZ=           -102.4417
   XY=            -23.1845   XZ=              1.4069   YZ=             -4.2762

 Normal termination of Gaussian 16 at Thu May  6 12:52:45 2021.
