 Gaussian 16, Revision A.03,
 Gaussian 16:  EM64L-G16RevA.03 25-Dec-2016

 -------------
 #p 6-31g* mp2
 -------------

 ------------------------------------------------------
 Input file generated by CHIRIPA (05-May-2021 14:51:13)
 ------------------------------------------------------
 Symbolic Z-matrix:
 Charge =  0 Multiplicity = 1

                         Standard orientation:
 ---------------------------------------------------------------------
 Center     Atomic      Atomic             Coordinates (Angstroms)
 Number     Number       Type             X           Y           Z
 ---------------------------------------------------------------------
      1          6           0        3.762546    0.180666   -0.219413
      2          6           0        3.849152   -1.127424   -1.006423
      3          6           0        5.234012   -1.771232   -0.932476
      4          1           0        4.515701    0.882502   -0.602987
      5          1           0        4.022130   -0.013354    0.830523
      6          1           0        3.588137   -0.931253   -2.054280
      7          1           0        3.095574   -1.826159   -0.621059
      8          1           0        5.499716   -1.995349    0.105683
      9          1           0        5.995077   -1.095358   -1.335682
     10          1           0        5.273551   -2.705035   -1.501957
     11          6           0        2.384220    0.836263   -0.283753
     12          6           0        2.297614    2.144353    0.503257
     13          6           0        0.912754    2.788161    0.429310
     14          1           0        2.124636    1.030283   -1.333690
     15          1           0        1.631065    0.134427    0.099821
     16          1           0        3.051192    2.843088    0.117892
     17          1           0        2.558629    1.948182    1.551113
     18          1           0        0.151689    2.112287    0.832516
     19          1           0        0.647050    3.012278   -0.608849
     20          1           0        0.873215    3.721964    0.998790
     21          6           0       -3.424982   -0.044319   -0.242764
     22          6           0       -4.813059   -0.536177   -0.654227
     23          6           0       -5.503787    0.402985   -1.643501
     24          1           0       -3.514309    0.956696    0.201008
     25          1           0       -2.801732    0.066429   -1.140923
     26          1           0       -5.433076   -0.647288    0.244578
     27          1           0       -4.720441   -1.536218   -1.096896
     28          1           0       -4.908727    0.505895   -2.556690
     29          1           0       -5.625412    1.399876   -1.207594
     30          1           0       -6.494566    0.032249   -1.924168
     31          6           0       -2.721784   -0.972610    0.745931
     32          6           0       -1.333707   -0.480752    1.157393
     33          6           0       -0.642978   -1.419914    2.146668
     34          1           0       -3.345034   -1.083358    1.644090
     35          1           0       -2.632457   -1.973625    0.302158
     36          1           0       -1.426325    0.519288    1.600063
     37          1           0       -0.713690   -0.369642    0.258589
     38          1           0       -0.521354   -2.416805    1.710761
     39          1           0       -1.238039   -1.522824    3.059857
     40          1           0        0.347800   -1.049178    2.427334
 ---------------------------------------------------------------------

 SCF Done:  E(RHF) =  -470.732299361     A.U. after   11 cycles
 E2 =    -0.1584223055D+01 EUMP2 =    -0.47231652241560D+03

 The electronic state is 1-A.
 Alpha  occ. eigenvalues --  -11.21652 -11.21611 -11.21592 -11.21542 -11.21433
 Alpha  occ. eigenvalues --  -11.21368 -11.21367 -11.21298 -11.21177 -11.21073
 Alpha  occ. eigenvalues --  -11.21062 -11.20909  -1.08485  -1.08382  -1.03606
 Alpha  occ. eigenvalues --   -1.03464  -0.96028  -0.95931  -0.87051  -0.86941
 Alpha  occ. eigenvalues --   -0.79765  -0.79477  -0.78390  -0.78100  -0.65147
 Alpha  occ. eigenvalues --   -0.65005  -0.60994  -0.60925  -0.59451  -0.59232
 Alpha  occ. eigenvalues --   -0.57638  -0.57541  -0.55370  -0.55177  -0.52729
 Alpha  occ. eigenvalues --   -0.52622  -0.52493  -0.52330  -0.50038  -0.49845
 Alpha  occ. eigenvalues --   -0.48209  -0.47706  -0.46708  -0.46605  -0.46041
 Alpha  occ. eigenvalues --   -0.45717  -0.45708  -0.45240  -0.43822  -0.43739
 Alpha virt. eigenvalues --    0.20859   0.23076   0.23771   0.24817   0.25842
 Alpha virt. eigenvalues --    0.26328   0.26723   0.27468   0.28686   0.29412
 Alpha virt. eigenvalues --    0.30266   0.31131   0.31610   0.31921   0.32253

 Mulliken charges:
               1
     1  C   -0.297492
     2  C   -0.299721
     3  C   -0.475651
     4  H    0.149632
     5  H    0.149155
     6  H    0.151671
     7  H    0.151743
     8  H    0.155253
     9  H    0.155197
    10  H    0.160115
    11  C   -0.307225
    12  C   -0.298515
    13  C   -0.484042
    14  H    0.148700
    15  H    0.159030
    16  H    0.151579
    17  H    0.150843
    18  H    0.165305
    19  H    0.154245
    20  H    0.158992
    21  C   -0.298724
    22  C   -0.299662
    23  C   -0.475726
    24  H    0.149965
    25  H    0.150075
    26  H    0.151909
    27  H    0.151931
    28  H    0.155258
    29  H    0.155343
    30  H    0.160254
    31  C   -0.296743
    32  C   -0.308979
    33  C   -0.477353
    34  H    0.149449
    35  H    0.149704
    36  H    0.154849
    37  H    0.157632
    38  H    0.155601
    39  H    0.156047
    40  H    0.160355
 Sum of Mulliken charges =  -0.00000

 Dipole moment (field-independent basis, Debye):
    X=             -0.0573    Y=             -0.0330    Z=              0.0072  Tot=              0.0665
 Quadrupole moment (field-independent basis, Debye-Ang):
   XX=            -85.9156   YY=            -85.0720   ZZ=            -83.9830
   XY=              0.7678   XZ=             -0.9866   YZ=              0.3511

 Normal termination of Gaussian 16 at Wed May  5 19:58:08 2021.
