 Gaussian 16, Revision A.03,
 Gaussian 16:  EM64L-G16RevA.03 25-Dec-2016

 -------------
 #p 6-31g* mp2
 -------------

 ------------------------------------------------------
 Input file generated by CHIRIPA (05-May-2021 14:55:23)
 ------------------------------------------------------
 Symbolic Z-matrix:
 Charge =  0 Multiplicity = 1

                         Standard orientation:
 ---------------------------------------------------------------------
 Center     Atomic      Atomic             Coordinates (Angstroms)
 Number     Number       Type             X           Y           Z
 ---------------------------------------------------------------------
      1          6           0       -5.213326    0.174565    0.140586
      2          6           0       -4.615211   -0.059455   -1.101998
      3          6           0       -3.256636   -0.378122   -1.187283
      4          6           0       -2.522739   -0.454690   -0.004566
      5          6           0       -3.089891   -0.226979    1.248341
      6          6           0       -4.450102    0.090205    1.309729
      7          1           0       -6.269335    0.421537    0.197556
      8          1           0       -5.205488    0.005368   -2.011622
      9          1           0       -2.768216   -0.564099   -2.136112
     10          1           0       -2.475628   -0.298889    2.137682
     11          1           0       -4.911945    0.271444    2.276113
     12          7           0       -1.083610   -0.791264   -0.082204
     13          8           0       -0.458867   -0.852565    0.974477
     14          8           0       -0.607615   -0.987395   -1.198268
     15          6           0        4.189756    0.165529    0.169360
     16          6           0        4.198490   -1.328317   -0.156731
     17          6           0        5.519695   -2.005481    0.208863
     18          1           0        5.014924    0.655838   -0.365093
     19          1           0        4.387764    0.300807    1.241688
     20          1           0        3.999153   -1.460802   -1.227865
     21          1           0        3.373089   -1.815095    0.378410
     22          1           0        5.721746   -1.902822    1.279955
     23          1           0        6.351368   -1.546516   -0.335446
     24          1           0        5.504063   -3.072853   -0.032658
     25          6           0        2.875650    0.856472   -0.190428
     26          6           0        2.866917    2.350318    0.135662
     27          6           0        1.545712    3.027481   -0.229932
     28          1           0        2.677643    0.721193   -1.262757
     29          1           0        2.050482    0.366163    0.344024
     30          1           0        3.692318    2.837095   -0.399479
     31          1           0        3.066254    2.482802    1.206796
     32          1           0        0.714039    2.568517    0.314377
     33          1           0        1.343660    2.924823   -1.301024
     34          1           0        1.561344    4.094853    0.011588
 ---------------------------------------------------------------------

 SCF Done:  E(RHF) =  -669.536710489     A.U. after   15 cycles
 E2 =    -0.2091828882D+01 EUMP2 =    -0.67162853937096D+03

 The electronic state is 1-A.
 Alpha  occ. eigenvalues --  -20.61055 -20.61047 -15.86058 -11.31346 -11.27902
 Alpha  occ. eigenvalues --  -11.27895 -11.27631 -11.26897 -11.26888 -11.20454
 Alpha  occ. eigenvalues --  -11.20199 -11.20177 -11.20035 -11.19992 -11.19644
 Alpha  occ. eigenvalues --   -1.60091  -1.39650  -1.19506  -1.08918  -1.07056
 Alpha  occ. eigenvalues --   -1.04896  -1.02336  -0.95765  -0.94792  -0.86298
 Alpha  occ. eigenvalues --   -0.85824  -0.82602  -0.78375  -0.77660  -0.76807
 Alpha  occ. eigenvalues --   -0.72274  -0.71396  -0.70615  -0.65162  -0.64899
 Alpha  occ. eigenvalues --   -0.63687  -0.62244  -0.59746  -0.58167  -0.56398
 Alpha  occ. eigenvalues --   -0.55403  -0.54090  -0.53229  -0.52987  -0.51559
 Alpha  occ. eigenvalues --   -0.51236  -0.49122  -0.49030  -0.48713  -0.46697
 Alpha  occ. eigenvalues --   -0.45429  -0.45072  -0.44367  -0.44117  -0.42521
 Alpha  occ. eigenvalues --   -0.37480  -0.36494
 Alpha virt. eigenvalues --    0.04842   0.11161   0.16341   0.21295   0.24202
 Alpha virt. eigenvalues --    0.25357   0.27220   0.27949   0.28206   0.28760
 Alpha virt. eigenvalues --    0.29343   0.30896   0.32308   0.32516   0.32890

 Mulliken charges:
               1
     1  C   -0.170380
     2  C   -0.218561
     3  C   -0.170472
     4  C    0.159119
     5  C   -0.170755
     6  C   -0.218506
     7  H    0.226221
     8  H    0.224048
     9  H    0.276004
    10  H    0.275671
    11  H    0.224005
    12  N    0.488807
    13  O   -0.461128
    14  O   -0.457334
    15  C   -0.297341
    16  C   -0.299972
    17  C   -0.475115
    18  H    0.142990
    19  H    0.145350
    20  H    0.152022
    21  H    0.162484
    22  H    0.152360
    23  H    0.151202
    24  H    0.157405
    25  C   -0.310155
    26  C   -0.297931
    27  C   -0.474245
    28  H    0.150059
    29  H    0.177357
    30  H    0.146677
    31  H    0.148317
    32  H    0.153370
    33  H    0.154279
    34  H    0.154145
 Sum of Mulliken charges =  -0.00000

 Dipole moment (field-independent basis, Debye):
    X=             -5.4660    Y=              0.9898    Z=              0.2569  Tot=              5.5609
 Quadrupole moment (field-independent basis, Debye-Ang):
   XX=            -71.8385   YY=            -97.8741   ZZ=            -88.9468
   XY=             -0.3928   XZ=             -0.8109   YZ=              0.2017

 Normal termination of Gaussian 16 at Thu May  6 20:49:12 2021.
