 Gaussian 16, Revision A.03,
 Gaussian 16:  EM64L-G16RevA.03 25-Dec-2016

 -------------
 #p 6-31g* mp2
 -------------

 ------------------------------------------------------
 Input file generated by CHIRIPA (05-May-2021 14:53:16)
 ------------------------------------------------------
 Symbolic Z-matrix:
 Charge =  0 Multiplicity = 1

                         Standard orientation:
 ---------------------------------------------------------------------
 Center     Atomic      Atomic             Coordinates (Angstroms)
 Number     Number       Type             X           Y           Z
 ---------------------------------------------------------------------
      1          6           0       -4.200859   -0.274052    0.018740
      2          6           0       -4.956600    1.025286    0.299026
      3          6           0       -6.362086    0.784452    0.850753
      4          1           0       -4.777300   -0.879621   -0.693964
      5          1           0       -4.136321   -0.859881    0.946120
      6          1           0       -5.018488    1.609123   -0.628293
      7          1           0       -4.378201    1.627918    1.010999
      8          1           0       -6.316449    0.223013    1.789530
      9          1           0       -6.960374    0.204111    0.140924
     10          1           0       -6.884424    1.726625    1.043969
     11          6           0       -2.794195   -0.049727   -0.533258
     12          6           0       -2.038454   -1.349065   -0.813543
     13          6           0       -0.632968   -1.108231   -1.365270
     14          1           0       -2.858734    0.536102   -1.460638
     15          1           0       -2.217754    0.555842    0.179447
     16          1           0       -2.616854   -1.951696   -1.525516
     17          1           0       -1.976566   -1.932901    0.113776
     18          1           0       -0.034680   -0.527889   -0.655442
     19          1           0       -0.678606   -0.546791   -2.304048
     20          1           0       -0.110630   -2.050404   -1.558487
     21          6           0        3.045282    2.548395   -0.433341
     22          6           0        2.938116    1.572142   -1.429317
     23          6           0        2.764575    0.227178   -1.089461
     24          6           0        2.702199   -0.107666    0.262307
     25          6           0        2.805722    0.841844    1.277691
     26          6           0        2.978860    2.180777    0.914608
     27          1           0        3.179935    3.590852   -0.706371
     28          1           0        2.989348    1.854733   -2.476964
     29          1           0        2.678745   -0.549032   -1.840159
     30          1           0        2.750947    0.529522    2.313486
     31          1           0        3.061786    2.936806    1.690230
     32          7           0        2.518693   -1.528327    0.634393
     33          8           0        2.466867   -1.797472    1.832522
     34          8           0        2.430160   -2.345796   -0.279141
 ---------------------------------------------------------------------

 SCF Done:  E(RHF) =  -669.534482411     A.U. after   15 cycles
 E2 =    -0.2093481136D+01 EUMP2 =    -0.67162796354673D+03

 The electronic state is 1-A.
 Alpha  occ. eigenvalues --  -20.60827 -20.60812 -15.85846 -11.31167 -11.27782
 Alpha  occ. eigenvalues --  -11.27740 -11.27516 -11.26772 -11.26752 -11.21488
 Alpha  occ. eigenvalues --  -11.21196 -11.21168 -11.21106 -11.20968 -11.20537
 Alpha  occ. eigenvalues --   -1.59884  -1.39441  -1.19378  -1.08775  -1.08187
 Alpha  occ. eigenvalues --   -1.04772  -1.03261  -0.95741  -0.95592  -0.86767
 Alpha  occ. eigenvalues --   -0.86156  -0.82446  -0.79357  -0.78010  -0.77482
 Alpha  occ. eigenvalues --   -0.72088  -0.71224  -0.70482  -0.65030  -0.64819
 Alpha  occ. eigenvalues --   -0.64770  -0.62117  -0.60674  -0.59062  -0.57327
 Alpha  occ. eigenvalues --   -0.55285  -0.55063  -0.53212  -0.52869  -0.52370
 Alpha  occ. eigenvalues --   -0.52050  -0.49694  -0.48841  -0.48832  -0.47645
 Alpha  occ. eigenvalues --   -0.46404  -0.45554  -0.45479  -0.44829  -0.43416
 Alpha  occ. eigenvalues --   -0.37313  -0.36339
 Alpha virt. eigenvalues --    0.04988   0.11260   0.16482   0.21358   0.23083
 Alpha virt. eigenvalues --    0.24575   0.26808   0.27115   0.27726   0.27869
 Alpha virt. eigenvalues --    0.28612   0.30787   0.31503   0.31883   0.32101

 Mulliken charges:
               1
     1  C   -0.298268
     2  C   -0.299130
     3  C   -0.475569
     4  H    0.149614
     5  H    0.151065
     6  H    0.150458
     7  H    0.150598
     8  H    0.155811
     9  H    0.155288
    10  H    0.159057
    11  C   -0.297520
    12  C   -0.300594
    13  C   -0.483410
    14  H    0.146447
    15  H    0.147817
    16  H    0.150926
    17  H    0.157083
    18  H    0.149424
    19  H    0.145697
    20  H    0.179996
    21  C   -0.170480
    22  C   -0.218130
    23  C   -0.166812
    24  C    0.154484
    25  C   -0.172341
    26  C   -0.218772
    27  H    0.225714
    28  H    0.223597
    29  H    0.276630
    30  H    0.275532
    31  H    0.223367
    32  N    0.491801
    33  O   -0.460553
    34  O   -0.458828
 Sum of Mulliken charges =  -0.00000

 Dipole moment (field-independent basis, Debye):
    X=              0.7662    Y=              4.8883    Z=             -1.3049  Tot=              5.1172
 Quadrupole moment (field-independent basis, Debye-Ang):
   XX=            -93.3320   YY=            -95.8674   ZZ=            -90.1258
   XY=             13.8094   XZ=             -2.7352   YZ=              2.9377

 Normal termination of Gaussian 16 at Thu May  6 02:44:26 2021.
