 Gaussian 16, Revision A.03,
 Gaussian 16:  EM64L-G16RevA.03 25-Dec-2016

 -------------
 #p 6-31g* mp2
 -------------

 ------------------------------------------------------
 Input file generated by CHIRIPA (05-May-2021 14:55:18)
 ------------------------------------------------------
 Symbolic Z-matrix:
 Charge =  0 Multiplicity = 1

                         Standard orientation:
 ---------------------------------------------------------------------
 Center     Atomic      Atomic             Coordinates (Angstroms)
 Number     Number       Type             X           Y           Z
 ---------------------------------------------------------------------
      1          6           0       -4.797280    2.090877    0.491579
      2          6           0       -5.213752    1.200169   -0.503263
      3          6           0       -4.443165    0.077096   -0.818619
      4          6           0       -3.256277   -0.125500   -0.116094
      5          6           0       -2.814550    0.743647    0.880275
      6          6           0       -3.601117    1.860180    1.178961
      7          1           0       -5.402097    2.960768    0.730081
      8          1           0       -6.142257    1.376811   -1.038727
      9          1           0       -4.741949   -0.628597   -1.584219
     10          1           0       -1.884216    0.541001    1.396832
     11          1           0       -3.275202    2.550224    1.952048
     12          7           0       -2.432032   -1.310986   -0.441124
     13          8           0       -1.390396   -1.467050    0.192339
     14          8           0       -2.843232   -2.061659   -1.323190
     15          6           0        3.655786   -0.420055    0.022102
     16          6           0        3.496004   -1.646840    0.920686
     17          6           0        2.118101   -2.297250    0.793625
     18          1           0        2.877746    0.313965    0.272729
     19          1           0        3.483093   -0.714284   -1.022409
     20          1           0        3.670307   -1.350667    1.963047
     21          1           0        4.274632   -2.377945    0.668022
     22          1           0        1.938147   -2.620319   -0.236834
     23          1           0        1.330388   -1.587204    1.065550
     24          1           0        2.025613   -3.172238    1.444548
     25          6           0        5.028047    0.241157    0.137963
     26          6           0        5.187828    1.467941   -0.760622
     27          6           0        6.565731    2.118352   -0.633559
     28          1           0        5.200739    0.535386    1.182473
     29          1           0        5.806086   -0.492863   -0.112664
     30          1           0        4.409200    2.199047   -0.507957
     31          1           0        5.013525    1.171768   -1.802983
     32          1           0        7.353445    1.408306   -0.905485
     33          1           0        6.745686    2.441421    0.396899
     34          1           0        6.658220    2.993340   -1.284483
 ---------------------------------------------------------------------

 SCF Done:  E(RHF) =  -669.535606993     A.U. after   15 cycles
 E2 =    -0.2090778387D+01 EUMP2 =    -0.67162638537964D+03

 The electronic state is 1-A.
 Alpha  occ. eigenvalues --  -20.60845 -20.60839 -15.85890 -11.31252 -11.27826
 Alpha  occ. eigenvalues --  -11.27816 -11.27563 -11.26838 -11.26827 -11.21223
 Alpha  occ. eigenvalues --  -11.20871 -11.20780 -11.20695 -11.20635 -11.19614
 Alpha  occ. eigenvalues --   -1.59913  -1.39468  -1.19424  -1.08820  -1.07794
 Alpha  occ. eigenvalues --   -1.04828  -1.02806  -0.95660  -0.95217  -0.86239
 Alpha  occ. eigenvalues --   -0.86211  -0.82491  -0.78892  -0.77599  -0.77507
 Alpha  occ. eigenvalues --   -0.72113  -0.71232  -0.70534  -0.65081  -0.64831
 Alpha  occ. eigenvalues --   -0.64438  -0.62177  -0.60209  -0.58665  -0.56826
 Alpha  occ. eigenvalues --   -0.55329  -0.54503  -0.53157  -0.52921  -0.51910
 Alpha  occ. eigenvalues --   -0.51619  -0.49175  -0.48867  -0.48844  -0.47164
 Alpha  occ. eigenvalues --   -0.45949  -0.45110  -0.45035  -0.44844  -0.43075
 Alpha  occ. eigenvalues --   -0.37405  -0.36431
 Alpha virt. eigenvalues --    0.04996   0.11223   0.16486   0.21280   0.23425
 Alpha virt. eigenvalues --    0.24989   0.26977   0.27356   0.27821   0.28187
 Alpha virt. eigenvalues --    0.29027   0.30750   0.31868   0.32308   0.32615

 Mulliken charges:
               1
     1  C   -0.170754
     2  C   -0.218512
     3  C   -0.170825
     4  C    0.157866
     5  C   -0.170479
     6  C   -0.218473
     7  H    0.225823
     8  H    0.223681
     9  H    0.275825
    10  H    0.274839
    11  H    0.223588
    12  N    0.494151
    13  O   -0.464836
    14  O   -0.459775
    15  C   -0.296348
    16  C   -0.301232
    17  C   -0.474010
    18  H    0.146803
    19  H    0.150761
    20  H    0.146434
    21  H    0.148417
    22  H    0.159615
    23  H    0.167433
    24  H    0.155675
    25  C   -0.297569
    26  C   -0.298845
    27  C   -0.475253
    28  H    0.147296
    29  H    0.149118
    30  H    0.149690
    31  H    0.152165
    32  H    0.155150
    33  H    0.153995
    34  H    0.158586
 Sum of Mulliken charges =  -0.00000

 Dipole moment (field-independent basis, Debye):
    X=             -3.1656    Y=              4.1185    Z=              1.1012  Tot=              5.3100
 Quadrupole moment (field-independent basis, Debye-Ang):
   XX=            -75.8118   YY=            -96.1423   ZZ=            -92.6060
   XY=            -13.3225   XZ=             -1.1585   YZ=              1.1507

 Normal termination of Gaussian 16 at Thu May  6 14:01:09 2021.
