 Gaussian 16, Revision A.03,
 Gaussian 16:  EM64L-G16RevA.03 25-Dec-2016

 -------------
 #p 6-31g* mp2
 -------------

 ------------------------------------------------------
 Input file generated by CHIRIPA (05-May-2021 14:53:18)
 ------------------------------------------------------
 Symbolic Z-matrix:
 Charge =  0 Multiplicity = 1

                         Standard orientation:
 ---------------------------------------------------------------------
 Center     Atomic      Atomic             Coordinates (Angstroms)
 Number     Number       Type             X           Y           Z
 ---------------------------------------------------------------------
      1          6           0       -4.571084   -0.413089   -0.208857
      2          6           0       -3.524421   -0.681933    0.872904
      3          6           0       -2.192441   -1.166333    0.299336
      4          1           0       -4.732718   -1.331300   -0.789983
      5          1           0       -4.178896    0.335988   -0.910617
      6          1           0       -3.919016   -1.429262    1.573197
      7          1           0       -3.365400    0.236972    1.451645
      8          1           0       -1.773266   -0.420648   -0.383926
      9          1           0       -2.330027   -2.096349   -0.261682
     10          1           0       -1.458825   -1.352406    1.089934
     11          6           0       -5.908045    0.071815    0.348933
     12          6           0       -6.954708    0.340659   -0.732827
     13          6           0       -8.286688    0.825059   -0.159260
     14          1           0       -6.300233   -0.677262    1.050693
     15          1           0       -5.746411    0.990026    0.930059
     16          1           0       -7.113728   -0.578246   -1.311568
     17          1           0       -6.560113    1.087988   -1.433121
     18          1           0       -8.149102    1.755075    0.401759
     19          1           0       -8.705863    0.079374    0.524002
     20          1           0       -9.020303    1.011132   -0.949858
     21          6           0        1.573548    0.260429   -0.062616
     22          6           0        2.332468    1.421763    0.115891
     23          6           0        3.729278    1.363186    0.122014
     24          6           0        4.337021    0.121021   -0.053954
     25          6           0        3.608469   -1.053733   -0.234110
     26          6           0        2.212843   -0.971441   -0.236739
     27          1           0        0.488933    0.315145   -0.066015
     28          1           0        1.838683    2.379820    0.251347
     29          1           0        4.341143    2.246646    0.258173
     30          1           0        4.129158   -1.994325   -0.366718
     31          1           0        1.626008   -1.874984   -0.375583
     32          7           0        5.815134    0.046455   -0.049320
     33          8           0        6.326526   -1.060091   -0.206392
     34          8           0        6.434297    1.095967    0.111295
 ---------------------------------------------------------------------

 SCF Done:  E(RHF) =  -669.535546878     A.U. after   15 cycles
 E2 =    -0.2090939246D+01 EUMP2 =    -0.67162648612415D+03

 The electronic state is 1-A.
 Alpha  occ. eigenvalues --  -20.60694 -20.60689 -15.85748 -11.31092 -11.27665
 Alpha  occ. eigenvalues --  -11.27659 -11.27325 -11.26662 -11.26644 -11.22633
 Alpha  occ. eigenvalues --  -11.22465 -11.22215 -11.22155 -11.22031 -11.21532
 Alpha  occ. eigenvalues --   -1.59771  -1.39325  -1.19260  -1.09222  -1.08651
 Alpha  occ. eigenvalues --   -1.04663  -1.04368  -0.96847  -0.95490  -0.87874
 Alpha  occ. eigenvalues --   -0.86055  -0.82331  -0.80444  -0.78983  -0.77384
 Alpha  occ. eigenvalues --   -0.71965  -0.71094  -0.70373  -0.65851  -0.64907
 Alpha  occ. eigenvalues --   -0.64667  -0.62014  -0.61773  -0.60235  -0.58417
 Alpha  occ. eigenvalues --   -0.56252  -0.55090  -0.53519  -0.53255  -0.52986
 Alpha  occ. eigenvalues --   -0.52749  -0.50763  -0.48753  -0.48722  -0.48715
 Alpha  occ. eigenvalues --   -0.47449  -0.46538  -0.46431  -0.44736  -0.44599
 Alpha  occ. eigenvalues --   -0.37227  -0.36275
 Alpha virt. eigenvalues --    0.05148   0.11371   0.16631   0.20200   0.22325
 Alpha virt. eigenvalues --    0.23720   0.25661   0.26131   0.26753   0.27288
 Alpha virt. eigenvalues --    0.29217   0.29785   0.30752   0.31383   0.32150

 Mulliken charges:
               1
     1  C   -0.299219
     2  C   -0.299246
     3  C   -0.484976
     4  H    0.151498
     5  H    0.149189
     6  H    0.156576
     7  H    0.152860
     8  H    0.149549
     9  H    0.160567
    10  H    0.160914
    11  C   -0.298938
    12  C   -0.300177
    13  C   -0.476115
    14  H    0.151135
    15  H    0.150200
    16  H    0.152880
    17  H    0.152177
    18  H    0.155654
    19  H    0.156065
    20  H    0.161846
    21  C   -0.176591
    22  C   -0.220554
    23  C   -0.170733
    24  C    0.158097
    25  C   -0.170929
    26  C   -0.222332
    27  H    0.236285
    28  H    0.223100
    29  H    0.275108
    30  H    0.275217
    31  H    0.224329
    32  N    0.488049
    33  O   -0.460729
    34  O   -0.460762
 Sum of Mulliken charges =  -0.00000

 Dipole moment (field-independent basis, Debye):
    X=             -5.5230    Y=              0.2167    Z=              0.0076  Tot=              5.5272
 Quadrupole moment (field-independent basis, Debye-Ang):
   XX=           -140.6121   YY=            -88.9048   ZZ=            -95.5964
   XY=              1.5723   XZ=              0.4143   YZ=              0.6506

 Normal termination of Gaussian 16 at Thu May  6 13:59:15 2021.
