 Gaussian 16, Revision A.03,
 Gaussian 16:  EM64L-G16RevA.03 25-Dec-2016

 -------------
 #p 6-31g* mp2
 -------------

 ------------------------------------------------------
 Input file generated by CHIRIPA (05-May-2021 14:55:22)
 ------------------------------------------------------
 Symbolic Z-matrix:
 Charge =  0 Multiplicity = 1

                         Standard orientation:
 ---------------------------------------------------------------------
 Center     Atomic      Atomic             Coordinates (Angstroms)
 Number     Number       Type             X           Y           Z
 ---------------------------------------------------------------------
      1          6           0       -4.959476    1.522180   -0.038913
      2          6           0       -3.756395    1.962007   -0.600758
      3          6           0       -2.628599    1.135795   -0.600212
      4          6           0       -2.739862   -0.129928   -0.026752
      5          6           0       -3.924433   -0.596764    0.540827
      6          6           0       -5.039514    0.246447    0.529085
      7          1           0       -5.830636    2.170604   -0.043686
      8          1           0       -3.691321    2.952265   -1.042571
      9          1           0       -1.684783    1.451036   -1.028292
     10          1           0       -3.958585   -1.589088    0.973892
     11          1           0       -5.972539   -0.097775    0.966143
     12          7           0       -1.552646   -1.013599   -0.020247
     13          8           0       -1.676603   -2.124324    0.491183
     14          8           0       -0.520630   -0.578763   -0.526702
     15          6           0        3.198812   -0.534795    0.115773
     16          6           0        3.587079   -1.931750   -0.369767
     17          6           0        2.459059   -2.950331   -0.202863
     18          1           0        2.905629   -0.589388    1.173132
     19          1           0        2.312132   -0.195262   -0.437319
     20          1           0        4.473591   -2.267978    0.183103
     21          1           0        3.879558   -1.873793   -1.426041
     22          1           0        1.574070   -2.641199   -0.768401
     23          1           0        2.171479   -3.037624    0.849886
     24          1           0        2.758133   -3.942075   -0.556213
     25          6           0        4.316145    0.494572   -0.044543
     26          6           0        3.927878    1.891527    0.440996
     27          6           0        5.055898    2.910108    0.274091
     28          1           0        5.202825    0.155039    0.508548
     29          1           0        4.609329    0.549164   -1.101902
     30          1           0        3.635399    1.833570    1.497269
     31          1           0        3.041366    2.227755   -0.111874
     32          1           0        5.343478    2.997400   -0.778656
     33          1           0        5.940887    2.600976    0.839629
     34          1           0        4.756824    3.901853    0.627442
 ---------------------------------------------------------------------

 SCF Done:  E(RHF) =  -669.536289304     A.U. after   15 cycles
 E2 =    -0.2091924254D+01 EUMP2 =    -0.67162821355770D+03

 The electronic state is 1-A.
 Alpha  occ. eigenvalues --  -20.61062 -20.61053 -15.86074 -11.31361 -11.27918
 Alpha  occ. eigenvalues --  -11.27912 -11.27646 -11.26915 -11.26905 -11.20826
 Alpha  occ. eigenvalues --  -11.20491 -11.20320 -11.20086 -11.19783 -11.19080
 Alpha  occ. eigenvalues --   -1.60103  -1.39662  -1.19522  -1.08934  -1.07207
 Alpha  occ. eigenvalues --   -1.04913  -1.02297  -0.95782  -0.94720  -0.86315
 Alpha  occ. eigenvalues --   -0.85730  -0.82622  -0.78436  -0.77680  -0.76905
 Alpha  occ. eigenvalues --   -0.72292  -0.71410  -0.70631  -0.65181  -0.64916
 Alpha  occ. eigenvalues --   -0.63850  -0.62261  -0.59705  -0.58188  -0.56316
 Alpha  occ. eigenvalues --   -0.55417  -0.54004  -0.53246  -0.53004  -0.51477
 Alpha  occ. eigenvalues --   -0.51115  -0.49148  -0.49044  -0.48604  -0.46676
 Alpha  occ. eigenvalues --   -0.45484  -0.45106  -0.44464  -0.44208  -0.42539
 Alpha  occ. eigenvalues --   -0.37499  -0.36511
 Alpha virt. eigenvalues --    0.04846   0.11144   0.16349   0.21255   0.23955
 Alpha virt. eigenvalues --    0.25628   0.27184   0.27660   0.28145   0.28873
 Alpha virt. eigenvalues --    0.29291   0.30896   0.32362   0.32613   0.32769

 Mulliken charges:
               1
     1  C   -0.170455
     2  C   -0.218516
     3  C   -0.170412
     4  C    0.157505
     5  C   -0.170413
     6  C   -0.218605
     7  H    0.226252
     8  H    0.224067
     9  H    0.275410
    10  H    0.276093
    11  H    0.224069
    12  N    0.493436
    13  O   -0.457447
    14  O   -0.464043
    15  C   -0.303284
    16  C   -0.298902
    17  C   -0.478613
    18  H    0.146151
    19  H    0.170802
    20  H    0.144002
    21  H    0.145813
    22  H    0.178197
    23  H    0.153902
    24  H    0.148987
    25  C   -0.297415
    26  C   -0.297691
    27  C   -0.474767
    28  H    0.145583
    29  H    0.146194
    30  H    0.150402
    31  H    0.149624
    32  H    0.153617
    33  H    0.154286
    34  H    0.156173
 Sum of Mulliken charges =  -0.00000

 Dipole moment (field-independent basis, Debye):
    X=             -4.6903    Y=              3.0881    Z=             -0.0523  Tot=              5.6158
 Quadrupole moment (field-independent basis, Debye-Ang):
   XX=            -72.9624   YY=            -94.7645   ZZ=            -93.5846
   XY=             -6.5800   XZ=             -1.0124   YZ=             -2.2890

 Normal termination of Gaussian 16 at Thu May  6 09:24:32 2021.
