 Gaussian 16, Revision A.03,
 Gaussian 16:  EM64L-G16RevA.03 25-Dec-2016

 -------------
 #p 6-31g* mp2
 -------------

 ------------------------------------------------------
 Input file generated by CHIRIPA (05-May-2021 14:55:25)
 ------------------------------------------------------
 Symbolic Z-matrix:
 Charge =  0 Multiplicity = 1

                         Standard orientation:
 ---------------------------------------------------------------------
 Center     Atomic      Atomic             Coordinates (Angstroms)
 Number     Number       Type             X           Y           Z
 ---------------------------------------------------------------------
      1          6           0       -3.457950    2.570316   -0.055131
      2          6           0       -3.065687    1.871019   -1.201270
      3          6           0       -2.876460    0.486500   -1.158270
      4          6           0       -3.089285   -0.169882    0.052993
      5          6           0       -3.480381    0.498776    1.211972
      6          6           0       -3.663683    1.883174    1.145715
      7          1           0       -3.602645    3.645797   -0.097568
      8          1           0       -2.905187    2.402051   -2.135235
      9          1           0       -2.573025   -0.079640   -2.030526
     10          1           0       -3.632726   -0.058100    2.128541
     11          1           0       -3.968345    2.423661    2.037398
     12          7           0       -2.892096   -1.635546    0.110826
     13          8           0       -3.086053   -2.190588    1.190153
     14          8           0       -2.547314   -2.201539   -0.924265
     15          6           0        3.278876    0.089617   -0.246518
     16          6           0        2.318656   -1.099236   -0.195637
     17          6           0        0.888072   -0.720539   -0.580102
     18          1           0        2.913130    0.877262    0.426379
     19          1           0        3.270927    0.515343   -1.259479
     20          1           0        2.329455   -1.523449    0.816559
     21          1           0        2.686832   -1.884219   -0.868590
     22          1           0        0.856494   -0.317276   -1.597443
     23          1           0        0.497087    0.045545    0.097281
     24          1           0        0.218508   -1.585227   -0.536981
     25          6           0        4.712893   -0.273111    0.135256
     26          6           0        5.673113    0.915742    0.084376
     27          6           0        7.103697    0.537045    0.468840
     28          1           0        4.720841   -0.698837    1.148217
     29          1           0        5.078638   -1.060756   -0.537641
     30          1           0        5.304936    1.700725    0.757328
     31          1           0        5.662314    1.339955   -0.927821
     32          1           0        7.494682   -0.229039   -0.208542
     33          1           0        7.135273    0.133781    1.486181
     34          1           0        7.773261    1.401733    0.425719
 ---------------------------------------------------------------------

 SCF Done:  E(RHF) =  -669.536194837     A.U. after   15 cycles
 E2 =    -0.2091777381D+01 EUMP2 =    -0.67162797221805D+03

 The electronic state is 1-A.
 Alpha  occ. eigenvalues --  -20.60859 -20.60853 -15.85877 -11.31192 -11.27764
 Alpha  occ. eigenvalues --  -11.27751 -11.27504 -11.26772 -11.26757 -11.21495
 Alpha  occ. eigenvalues --  -11.21232 -11.21201 -11.21133 -11.20976 -11.20582
 Alpha  occ. eigenvalues --   -1.59915  -1.39472  -1.19364  -1.08770  -1.08209
 Alpha  occ. eigenvalues --   -1.04761  -1.03279  -0.95736  -0.95610  -0.86758
 Alpha  occ. eigenvalues --   -0.86159  -0.82451  -0.79359  -0.78026  -0.77501
 Alpha  occ. eigenvalues --   -0.72109  -0.71230  -0.70477  -0.65022  -0.64845
 Alpha  occ. eigenvalues --   -0.64767  -0.62110  -0.60684  -0.59083  -0.57328
 Alpha  occ. eigenvalues --   -0.55272  -0.55040  -0.53120  -0.52857  -0.52395
 Alpha  occ. eigenvalues --   -0.52132  -0.49695  -0.48869  -0.48865  -0.47665
 Alpha  occ. eigenvalues --   -0.46398  -0.45565  -0.45495  -0.44917  -0.43446
 Alpha  occ. eigenvalues --   -0.37331  -0.36351
 Alpha virt. eigenvalues --    0.05010   0.11264   0.16492   0.21371   0.23068
 Alpha virt. eigenvalues --    0.24538   0.26772   0.27163   0.27695   0.27860
 Alpha virt. eigenvalues --    0.28628   0.30851   0.31498   0.31947   0.32412

 Mulliken charges:
               1
     1  C   -0.170663
     2  C   -0.218973
     3  C   -0.168263
     4  C    0.159876
     5  C   -0.171416
     6  C   -0.218846
     7  H    0.225591
     8  H    0.223512
     9  H    0.276228
    10  H    0.275429
    11  H    0.223333
    12  N    0.487943
    13  O   -0.459173
    14  O   -0.459180
    15  C   -0.297597
    16  C   -0.299530
    17  C   -0.486713
    18  H    0.147297
    19  H    0.147315
    20  H    0.153365
    21  H    0.153442
    22  H    0.148827
    23  H    0.149900
    24  H    0.179290
    25  C   -0.298107
    26  C   -0.299232
    27  C   -0.475565
    28  H    0.149952
    29  H    0.150187
    30  H    0.150681
    31  H    0.150943
    32  H    0.155490
    33  H    0.155362
    34  H    0.159292
 Sum of Mulliken charges =  -0.00000

 Dipole moment (field-independent basis, Debye):
    X=             -0.8197    Y=              5.0738    Z=             -0.2006  Tot=              5.1434
 Quadrupole moment (field-independent basis, Debye-Ang):
   XX=            -92.3427   YY=            -96.9871   ZZ=            -89.2348
   XY=            -16.1177   XZ=             -1.2353   YZ=              0.5803

 Normal termination of Gaussian 16 at Thu May  6 04:50:04 2021.
