 Gaussian 16, Revision A.03,
 Gaussian 16:  EM64L-G16RevA.03 25-Dec-2016

 -------------
 #p 6-31g* mp2
 -------------

 ------------------------------------------------------
 Input file generated by CHIRIPA (05-May-2021 14:51:13)
 ------------------------------------------------------
 Symbolic Z-matrix:
 Charge =  0 Multiplicity = 1

                         Standard orientation:
 ---------------------------------------------------------------------
 Center     Atomic      Atomic             Coordinates (Angstroms)
 Number     Number       Type             X           Y           Z
 ---------------------------------------------------------------------
      1          6           0       -3.323048   -0.554097    0.256844
      2          6           0       -3.658768    0.841773   -0.269295
      3          6           0       -4.967523    1.389442    0.300803
      4          1           0       -4.146348   -1.239081    0.012060
      5          1           0       -3.260504   -0.519800    1.353342
      6          1           0       -3.719296    0.805147   -1.364563
      7          1           0       -2.834487    1.523471   -0.023398
      8          1           0       -4.914755    1.454760    1.392384
      9          1           0       -5.804591    0.732355    0.043599
     10          1           0       -5.188196    2.388223   -0.088557
     11          6           0       -2.017499   -1.115106   -0.303993
     12          6           0       -1.681779   -2.510977    0.222146
     13          6           0       -0.373024   -3.058646   -0.347952
     14          1           0       -2.080043   -1.149404   -1.400491
     15          1           0       -1.194199   -0.430122   -0.059209
     16          1           0       -2.506060   -3.192674   -0.023751
     17          1           0       -1.621251   -2.474350    1.317413
     18          1           0        0.464045   -2.401558   -0.090749
     19          1           0       -0.425792   -3.123964   -1.439534
     20          1           0       -0.152351   -4.057426    0.041407
     21          6           0        3.040827    0.294606    0.416673
     22          6           0        3.384423   -0.937346   -0.421314
     23          6           0        4.125553   -2.008768    0.379045
     24          1           0        3.966087    0.718436    0.830447
     25          1           0        2.427235   -0.013579    1.274532
     26          1           0        3.996028   -0.626733   -1.278096
     27          1           0        2.458257   -1.358180   -0.833297
     28          1           0        3.518129   -2.346910    1.224799
     29          1           0        5.064637   -1.611307    0.777473
     30          1           0        4.361337   -2.880496   -0.239304
     31          6           0        2.299719    1.374597   -0.369524
     32          6           0        1.956124    2.606549    0.468463
     33          6           0        1.214995    3.677972   -0.331896
     34          1           0        2.913312    1.682783   -1.227382
     35          1           0        1.374460    0.950767   -0.783297
     36          1           0        2.882290    3.027384    0.880447
     37          1           0        1.344519    2.295937    1.325245
     38          1           0        0.275909    3.280511   -0.730324
     39          1           0        1.822418    4.016113   -1.177649
     40          1           0        0.979211    4.549700    0.286453
 ---------------------------------------------------------------------

 SCF Done:  E(RHF) =  -470.733355277     A.U. after   11 cycles
 E2 =    -0.1583427122D+01 EUMP2 =    -0.47231678239862D+03

 The electronic state is 1-A.
 Alpha  occ. eigenvalues --  -11.21667 -11.21651 -11.21623 -11.21555 -11.21477
 Alpha  occ. eigenvalues --  -11.21416 -11.21413 -11.21357 -11.21121 -11.21102
 Alpha  occ. eigenvalues --  -11.21086 -11.21046  -1.08498  -1.08434  -1.03594
 Alpha  occ. eigenvalues --   -1.03521  -0.96041  -0.95973  -0.87061  -0.86987
 Alpha  occ. eigenvalues --   -0.79680  -0.79563  -0.78339  -0.78217  -0.65245
 Alpha  occ. eigenvalues --   -0.64971  -0.61122  -0.60817  -0.59402  -0.59344
 Alpha  occ. eigenvalues --   -0.57665  -0.57566  -0.55402  -0.55191  -0.52722
 Alpha  occ. eigenvalues --   -0.52670  -0.52494  -0.52373  -0.50065  -0.49838
 Alpha  occ. eigenvalues --   -0.48077  -0.47827  -0.46782  -0.46516  -0.46072
 Alpha  occ. eigenvalues --   -0.45793  -0.45752  -0.45428  -0.43841  -0.43784
 Alpha virt. eigenvalues --    0.19489   0.22471   0.23684   0.24809   0.25543
 Alpha virt. eigenvalues --    0.26928   0.27265   0.27504   0.27924   0.29699
 Alpha virt. eigenvalues --    0.30882   0.31628   0.31721   0.31854   0.31949

 Mulliken charges:
               1
     1  C   -0.298242
     2  C   -0.300026
     3  C   -0.475735
     4  H    0.150080
     5  H    0.149633
     6  H    0.152138
     7  H    0.151797
     8  H    0.155286
     9  H    0.155299
    10  H    0.160575
    11  C   -0.301006
    12  C   -0.299413
    13  C   -0.482383
    14  H    0.149879
    15  H    0.150892
    16  H    0.152405
    17  H    0.151869
    18  H    0.161602
    19  H    0.155372
    20  H    0.160983
    21  C   -0.298632
    22  C   -0.305844
    23  C   -0.475760
    24  H    0.149960
    25  H    0.148597
    26  H    0.152308
    27  H    0.157786
    28  H    0.155178
    29  H    0.155030
    30  H    0.160673
    31  C   -0.301347
    32  C   -0.299471
    33  C   -0.476183
    34  H    0.149926
    35  H    0.152205
    36  H    0.152142
    37  H    0.151207
    38  H    0.155523
    39  H    0.155439
    40  H    0.160256
 Sum of Mulliken charges =  -0.00000

 Dipole moment (field-independent basis, Debye):
    X=             -0.0179    Y=             -0.0173    Z=             -0.0161  Tot=              0.0296
 Quadrupole moment (field-independent basis, Debye-Ang):
   XX=            -84.7838   YY=            -85.4053   ZZ=            -84.4107
   XY=              1.5710   XZ=              0.2025   YZ=              0.4304

 Normal termination of Gaussian 16 at Thu May  6 02:21:37 2021.
