 Gaussian 16, Revision A.03,
 Gaussian 16:  EM64L-G16RevA.03 25-Dec-2016

 -------------
 #p 6-31g* mp2
 -------------

 ------------------------------------------------------
 Input file generated by CHIRIPA (05-May-2021 14:51:07)
 ------------------------------------------------------
 Symbolic Z-matrix:
 Charge =  0 Multiplicity = 1

                         Standard orientation:
 ---------------------------------------------------------------------
 Center     Atomic      Atomic             Coordinates (Angstroms)
 Number     Number       Type             X           Y           Z
 ---------------------------------------------------------------------
      1          6           0       -2.114784   -0.484971    0.759955
      2          6           0       -2.109371   -2.007841    0.622763
      3          6           0       -1.657095   -2.714916    1.900764
      4          1           0       -1.106465   -0.144112    1.032081
      5          1           0       -2.775547   -0.200977    1.590699
      6          1           0       -1.449894   -2.288801   -0.208361
      7          1           0       -3.117776   -2.345097    0.350744
      8          1           0       -2.319730   -2.463551    2.735229
      9          1           0       -0.642371   -2.406935    2.172947
     10          1           0       -1.660697   -3.802748    1.780485
     11          6           0       -2.564658    0.236060   -0.509476
     12          6           0       -2.570071    1.758931   -0.372284
     13          6           0       -3.022346    2.466005   -1.650285
     14          1           0       -1.903895   -0.047933   -1.340220
     15          1           0       -3.572977   -0.104799   -0.781602
     16          1           0       -1.561666    2.096187   -0.100265
     17          1           0       -3.229548    2.039890    0.458840
     18          1           0       -4.037071    2.158024   -1.922468
     19          1           0       -2.359712    2.214641   -2.484750
     20          1           0       -3.018745    3.553838   -1.530006
     21          6           0        2.455438   -0.293567   -0.753968
     22          6           0        2.041298   -1.756746   -0.594024
     23          6           0        2.278871   -2.580166   -1.860252
     24          1           0        1.898268    0.149199   -1.590905
     25          1           0        3.518670   -0.248506   -1.027653
     26          1           0        0.979510   -1.798982   -0.319368
     27          1           0        2.599378   -2.196026    0.242751
     28          1           0        3.338668   -2.567812   -2.134621
     29          1           0        1.709595   -2.168512   -2.699935
     30          1           0        1.975901   -3.622967   -1.723743
     31          6           0        2.224004    0.542478    0.503488
     32          6           0        2.638144    2.005656    0.343546
     33          6           0        2.400571    2.829076    1.609773
     34          1           0        1.160772    0.497417    0.777175
     35          1           0        2.781174    0.099712    1.340427
     36          1           0        2.080064    2.444937   -0.493230
     37          1           0        3.699933    2.047892    0.068890
     38          1           0        2.969847    2.417422    2.449456
     39          1           0        1.340774    2.816722    1.884142
     40          1           0        2.703541    3.871877    1.473264
 ---------------------------------------------------------------------

 SCF Done:  E(RHF) =  -470.732967314     A.U. after   11 cycles
 E2 =    -0.1584875831D+01 EUMP2 =    -0.47231784314444D+03

 The electronic state is 1-A.
 Alpha  occ. eigenvalues --  -11.21674 -11.21655 -11.21644 -11.21632 -11.21466
 Alpha  occ. eigenvalues --  -11.21461 -11.21407 -11.21397 -11.21125 -11.21122
 Alpha  occ. eigenvalues --  -11.21109 -11.21072  -1.08541  -1.08446  -1.03610
 Alpha  occ. eigenvalues --   -1.03550  -0.96049  -0.96005  -0.87048  -0.87037
 Alpha  occ. eigenvalues --   -0.79687  -0.79603  -0.78395  -0.78233  -0.65512
 Alpha  occ. eigenvalues --   -0.64774  -0.61190  -0.60788  -0.59397  -0.59383
 Alpha  occ. eigenvalues --   -0.57663  -0.57620  -0.55455  -0.55187  -0.52721
 Alpha  occ. eigenvalues --   -0.52712  -0.52498  -0.52404  -0.50004  -0.49959
 Alpha  occ. eigenvalues --   -0.48054  -0.47899  -0.46873  -0.46537  -0.46302
 Alpha  occ. eigenvalues --   -0.45818  -0.45727  -0.45221  -0.43841  -0.43825
 Alpha virt. eigenvalues --    0.18837   0.21949   0.23948   0.24338   0.25646
 Alpha virt. eigenvalues --    0.26815   0.27236   0.27749   0.28009   0.30318
 Alpha virt. eigenvalues --    0.31381   0.31475   0.31672   0.31783   0.32236

 Mulliken charges:
               1
     1  C   -0.307981
     2  C   -0.302722
     3  C   -0.476943
     4  H    0.157521
     5  H    0.150273
     6  H    0.153993
     7  H    0.152784
     8  H    0.155251
     9  H    0.156867
    10  H    0.160341
    11  C   -0.297901
    12  C   -0.300694
    13  C   -0.475688
    14  H    0.148848
    15  H    0.150266
    16  H    0.151631
    17  H    0.152427
    18  H    0.155520
    19  H    0.155020
    20  H    0.160574
    21  C   -0.297318
    22  C   -0.308667
    23  C   -0.475541
    24  H    0.149038
    25  H    0.150049
    26  H    0.160261
    27  H    0.152269
    28  H    0.155612
    29  H    0.154833
    30  H    0.160585
    31  C   -0.308112
    32  C   -0.299220
    33  C   -0.476246
    34  H    0.157503
    35  H    0.149964
    36  H    0.151855
    37  H    0.152319
    38  H    0.155424
    39  H    0.155434
    40  H    0.160569
 Sum of Mulliken charges =  -0.00000

 Dipole moment (field-independent basis, Debye):
    X=             -0.0011    Y=             -0.0052    Z=              0.0118  Tot=              0.0130
 Quadrupole moment (field-independent basis, Debye-Ang):
   XX=            -82.9547   YY=            -85.6491   ZZ=            -85.9802
   XY=              0.0752   XZ=             -0.1583   YZ=             -0.1431

 Normal termination of Gaussian 16 at Thu May  6 08:25:53 2021.
