 Gaussian 16, Revision A.03,
 Gaussian 16:  EM64L-G16RevA.03 25-Dec-2016

 -------------
 #p 6-31g* mp2
 -------------

 ------------------------------------------------------
 Input file generated by CHIRIPA (05-May-2021 14:55:23)
 ------------------------------------------------------
 Symbolic Z-matrix:
 Charge =  0 Multiplicity = 1

                         Standard orientation:
 ---------------------------------------------------------------------
 Center     Atomic      Atomic             Coordinates (Angstroms)
 Number     Number       Type             X           Y           Z
 ---------------------------------------------------------------------
      1          6           0        0.882004   -0.630171    0.928363
      2          6           0        1.673670   -1.736442    0.602862
      3          6           0        2.987423   -1.562937    0.157332
      4          6           0        3.479619   -0.263244    0.048564
      5          6           0        2.715722    0.859019    0.365228
      6          6           0        1.404635    0.661751    0.808718
      7          1           0       -0.137516   -0.774184    1.273669
      8          1           0        1.270425   -2.740923    0.694814
      9          1           0        3.622241   -2.401675   -0.101402
     10          1           0        3.145486    1.848136    0.263394
     11          1           0        0.792116    1.522750    1.060800
     12          7           0        4.869020   -0.066983   -0.422019
     13          8           0        5.279184    1.088349   -0.509256
     14          8           0        5.521560   -1.072203   -0.694714
     15          6           0       -3.914265    1.081538    0.006445
     16          6           0       -2.436004    1.299374   -0.318020
     17          6           0       -1.957605    2.710885    0.023396
     18          1           0       -4.516240    1.817436   -0.544033
     19          1           0       -4.080794    1.277775    1.074693
     20          1           0       -2.272055    1.101441   -1.385053
     21          1           0       -1.837494    0.562748    0.233146
     22          1           0       -2.092430    2.915799    1.090370
     23          1           0       -2.529461    3.457553   -0.537022
     24          1           0       -0.898185    2.844734   -0.216549
     25          6           0       -4.407346   -0.324828   -0.329316
     26          6           0       -5.885607   -0.542663   -0.004851
     27          6           0       -6.364006   -1.954174   -0.346267
     28          1           0       -4.240818   -0.521064   -1.397564
     29          1           0       -3.805371   -1.060726    0.221162
     30          1           0       -6.484117    0.193962   -0.556017
     31          1           0       -6.049556   -0.344731    1.062182
     32          1           0       -5.792151   -2.700843    0.214153
     33          1           0       -6.229181   -2.159089   -1.413241
     34          1           0       -7.423426   -2.088024   -0.106322
 ---------------------------------------------------------------------

 SCF Done:  E(RHF) =  -669.534793166     A.U. after   15 cycles
 E2 =    -0.2092347842D+01 EUMP2 =    -0.67162714100833D+03

 The electronic state is 1-A.
 Alpha  occ. eigenvalues --  -20.60739 -20.60734 -15.85792 -11.31156 -11.27726
 Alpha  occ. eigenvalues --  -11.27716 -11.27452 -11.26737 -11.26694 -11.22677
 Alpha  occ. eigenvalues --  -11.22280 -11.22259 -11.22175 -11.22170 -11.21649
 Alpha  occ. eigenvalues --   -1.59815  -1.39368  -1.19328  -1.09300  -1.08722
 Alpha  occ. eigenvalues --   -1.04735  -1.04389  -0.96838  -0.95562  -0.87855
 Alpha  occ. eigenvalues --   -0.86127  -0.82398  -0.80464  -0.79089  -0.77439
 Alpha  occ. eigenvalues --   -0.72011  -0.71138  -0.70471  -0.65955  -0.64978
 Alpha  occ. eigenvalues --   -0.64762  -0.62161  -0.61737  -0.60184  -0.58425
 Alpha  occ. eigenvalues --   -0.56114  -0.55285  -0.53581  -0.53286  -0.53049
 Alpha  occ. eigenvalues --   -0.52712  -0.50765  -0.48810  -0.48766  -0.48716
 Alpha  occ. eigenvalues --   -0.47494  -0.46630  -0.46536  -0.44775  -0.44640
 Alpha  occ. eigenvalues --   -0.37286  -0.36326
 Alpha virt. eigenvalues --    0.05074   0.11239   0.16494   0.19402   0.22565
 Alpha virt. eigenvalues --    0.23695   0.24787   0.26061   0.26481   0.28432
 Alpha virt. eigenvalues --    0.29209   0.30140   0.30868   0.31527   0.32137

 Mulliken charges:
               1
     1  C   -0.171968
     2  C   -0.219025
     3  C   -0.170980
     4  C    0.158637
     5  C   -0.172437
     6  C   -0.221490
     7  H    0.226482
     8  H    0.223312
     9  H    0.275475
    10  H    0.275504
    11  H    0.230346
    12  N    0.488078
    13  O   -0.460496
    14  O   -0.460541
    15  C   -0.298917
    16  C   -0.302128
    17  C   -0.481296
    18  H    0.153588
    19  H    0.149516
    20  H    0.158465
    21  H    0.142671
    22  H    0.154395
    23  H    0.162749
    24  H    0.157904
    25  C   -0.297622
    26  C   -0.300258
    27  C   -0.476041
    28  H    0.152169
    29  H    0.144162
    30  H    0.154128
    31  H    0.152380
    32  H    0.154251
    33  H    0.156493
    34  H    0.162494
 Sum of Mulliken charges =  -0.00000

 Dipole moment (field-independent basis, Debye):
    X=             -5.1044    Y=             -0.6474    Z=              1.5698  Tot=              5.3795
 Quadrupole moment (field-independent basis, Debye-Ang):
   XX=           -128.8239   YY=            -90.1436   ZZ=            -94.5316
   XY=             -2.4920   XZ=              5.9223   YZ=             -0.5807

 Normal termination of Gaussian 16 at Thu May  6 19:15:48 2021.
