 Gaussian 16, Revision A.03,
 Gaussian 16:  EM64L-G16RevA.03 25-Dec-2016

 -------------
 #p 6-31g* mp2
 -------------

 ------------------------------------------------------
 Input file generated by CHIRIPA (05-May-2021 14:51:11)
 ------------------------------------------------------
 Symbolic Z-matrix:
 Charge =  0 Multiplicity = 1

                         Standard orientation:
 ---------------------------------------------------------------------
 Center     Atomic      Atomic             Coordinates (Angstroms)
 Number     Number       Type             X           Y           Z
 ---------------------------------------------------------------------
      1          6           0       -3.613230   -0.590387    0.217170
      2          6           0       -3.976208   -1.788910   -0.660199
      3          6           0       -4.131393   -3.082214    0.140472
      4          1           0       -2.678693   -0.805965    0.752998
      5          1           0       -4.389390   -0.457396    0.983515
      6          1           0       -3.200299   -1.918756   -1.425524
      7          1           0       -4.909889   -1.570377   -1.194147
      8          1           0       -4.919131   -2.976963    0.893461
      9          1           0       -3.199828   -3.327322    0.660769
     10          1           0       -4.390901   -3.926121   -0.506318
     11          6           0       -3.454646    0.709886   -0.568876
     12          6           0       -3.091668    1.908408    0.308493
     13          6           0       -2.936483    3.201713   -0.492178
     14          1           0       -2.678487    0.576894   -1.335221
     15          1           0       -4.389183    0.925464   -1.104704
     16          1           0       -2.157987    1.689875    0.842441
     17          1           0       -3.867577    2.038254    1.073818
     18          1           0       -3.868048    3.446820   -1.012475
     19          1           0       -2.148745    3.096462   -1.245167
     20          1           0       -2.676975    4.045619    0.154613
     21          6           0        2.957084    0.382850    0.409897
     22          6           0        1.636274   -0.372408    0.561660
     23          6           0        0.491773    0.526522    1.030528
     24          1           0        3.221234    0.843641    1.371584
     25          1           0        2.820414    1.206612   -0.304339
     26          1           0        1.775760   -1.195350    1.274349
     27          1           0        1.375334   -0.831613   -0.400451
     28          1           0        0.323876    1.340001    0.317321
     29          1           0        0.726577    0.974199    2.001638
     30          1           0       -0.442900   -0.033730    1.132321
     31          6           0        4.110793   -0.502348   -0.058191
     32          6           0        5.431602    0.252910   -0.209954
     33          6           0        6.576103   -0.646021   -0.678822
     34          1           0        4.247462   -1.326109    0.656045
     35          1           0        3.846642   -0.963138   -1.019878
     36          1           0        5.692542    0.712116    0.752157
     37          1           0        5.292116    1.075852   -0.922644
     38          1           0        6.341299   -1.093697   -1.649932
     39          1           0        6.744001   -1.459500    0.034384
     40          1           0        7.510776   -0.085768   -0.780615
 ---------------------------------------------------------------------

 SCF Done:  E(RHF) =  -470.732303909     A.U. after   11 cycles
 E2 =    -0.1583798972D+01 EUMP2 =    -0.47231610288087D+03

 The electronic state is 1-A.
 Alpha  occ. eigenvalues --  -11.21678 -11.21634 -11.21586 -11.21456 -11.21415
 Alpha  occ. eigenvalues --  -11.21394 -11.21365 -11.21291 -11.21158 -11.21096
 Alpha  occ. eigenvalues --  -11.21063 -11.21000  -1.08491  -1.08375  -1.03603
 Alpha  occ. eigenvalues --   -1.03461  -0.96053  -0.95933  -0.87090  -0.86939
 Alpha  occ. eigenvalues --   -0.79714  -0.79500  -0.78308  -0.78176  -0.65162
 Alpha  occ. eigenvalues --   -0.65012  -0.61070  -0.60809  -0.59443  -0.59272
 Alpha  occ. eigenvalues --   -0.57707  -0.57504  -0.55339  -0.55219  -0.52836
 Alpha  occ. eigenvalues --   -0.52582  -0.52483  -0.52336  -0.50026  -0.49842
 Alpha  occ. eigenvalues --   -0.48020  -0.47814  -0.46735  -0.46517  -0.45847
 Alpha  occ. eigenvalues --   -0.45781  -0.45707  -0.45651  -0.43762  -0.43673
 Alpha virt. eigenvalues --    0.21032   0.23081   0.23744   0.24665   0.25881
 Alpha virt. eigenvalues --    0.26515   0.27027   0.27450   0.27904   0.29230
 Alpha virt. eigenvalues --    0.30531   0.31155   0.31761   0.32029   0.32370

 Mulliken charges:
               1
     1  C   -0.304393
     2  C   -0.299211
     3  C   -0.475725
     4  H    0.153863
     5  H    0.149819
     6  H    0.151753
     7  H    0.152065
     8  H    0.155220
     9  H    0.154953
    10  H    0.160239
    11  C   -0.297741
    12  C   -0.308653
    13  C   -0.475598
    14  H    0.149064
    15  H    0.149492
    16  H    0.164826
    17  H    0.150776
    18  H    0.154769
    19  H    0.154014
    20  H    0.159978
    21  C   -0.298860
    22  C   -0.299622
    23  C   -0.484551
    24  H    0.149882
    25  H    0.149695
    26  H    0.152079
    27  H    0.151817
    28  H    0.156786
    29  H    0.156132
    30  H    0.166668
    31  C   -0.298316
    32  C   -0.299668
    33  C   -0.475735
    34  H    0.149639
    35  H    0.149671
    36  H    0.152029
    37  H    0.152006
    38  H    0.155218
    39  H    0.155236
    40  H    0.160386
 Sum of Mulliken charges =  -0.00000

 Dipole moment (field-independent basis, Debye):
    X=              0.0487    Y=             -0.0066    Z=              0.0268  Tot=              0.0560
 Quadrupole moment (field-independent basis, Debye-Ang):
   XX=            -84.7529   YY=            -86.1012   ZZ=            -84.1041
   XY=              0.1545   XZ=              0.4430   YZ=              0.1294

 Normal termination of Gaussian 16 at Thu May  6 03:49:13 2021.
