 Gaussian 16, Revision A.03,
 Gaussian 16:  EM64L-G16RevA.03 25-Dec-2016

 -------------
 #p 6-31g* mp2
 -------------

 ------------------------------------------------------
 Input file generated by CHIRIPA (05-May-2021 14:53:13)
 ------------------------------------------------------
 Symbolic Z-matrix:
 Charge =  0 Multiplicity = 1

                         Standard orientation:
 ---------------------------------------------------------------------
 Center     Atomic      Atomic             Coordinates (Angstroms)
 Number     Number       Type             X           Y           Z
 ---------------------------------------------------------------------
      1          6           0        2.911749   -0.626098   -0.228530
      2          6           0        3.890450   -1.485613   -1.029383
      3          6           0        3.413951   -2.929462   -1.190760
      4          1           0        2.762887   -1.077469    0.761949
      5          1           0        1.932620   -0.636504   -0.727121
      6          1           0        4.867813   -1.472467   -0.530178
      7          1           0        4.037148   -1.032039   -2.018001
      8          1           0        2.450090   -2.961399   -1.708980
      9          1           0        3.285474   -3.404329   -0.212703
     10          1           0        4.128524   -3.526092   -1.766328
     11          6           0        3.374205    0.819934   -0.058666
     12          6           0        2.395504    1.679449    0.742186
     13          6           0        2.872003    3.123298    0.903563
     14          1           0        4.353334    0.830340    0.439924
     15          1           0        3.523067    1.271305   -1.049146
     16          1           0        2.248806    1.225876    1.730805
     17          1           0        1.418141    1.666304    0.242981
     18          1           0        3.000479    3.598165   -0.074494
     19          1           0        3.835864    3.155235    1.421783
     20          1           0        2.157430    3.719928    1.479131
     21          6           0       -1.769282   -1.456904    2.109039
     22          6           0       -2.825166   -1.879774    1.294905
     23          6           0       -3.213938   -1.122466    0.185902
     24          6           0       -2.521787    0.057811   -0.080862
     25          6           0       -1.465757    0.505638    0.711314
     26          6           0       -1.094138   -0.267645    1.815162
     27          1           0       -1.473937   -2.051404    2.968536
     28          1           0       -3.351294   -2.802942    1.520726
     29          1           0       -4.027815   -1.426445   -0.461106
     30          1           0       -0.960280    1.430392    0.460836
     31          1           0       -0.273753    0.063213    2.445675
     32          7           0       -2.924283    0.867994   -1.252186
     33          8           0       -2.298462    1.904025   -1.465786
     34          8           0       -3.857959    0.451645   -1.934490
 ---------------------------------------------------------------------

 SCF Done:  E(RHF) =  -669.535483740     A.U. after   15 cycles
 E2 =    -0.2092197013D+01 EUMP2 =    -0.67162768075291D+03

 The electronic state is 1-A.
 Alpha  occ. eigenvalues --  -20.60763 -20.60757 -15.85814 -11.31153 -11.27721
 Alpha  occ. eigenvalues --  -11.27691 -11.27454 -11.26740 -11.26706 -11.22267
 Alpha  occ. eigenvalues --  -11.21865 -11.21796 -11.21713 -11.21484 -11.21311
 Alpha  occ. eigenvalues --   -1.59838  -1.39392  -1.19324  -1.08836  -1.08723
 Alpha  occ. eigenvalues --   -1.04722  -1.03926  -0.96338  -0.95564  -0.87357
 Alpha  occ. eigenvalues --   -0.86122  -0.82399  -0.80036  -0.78669  -0.77426
 Alpha  occ. eigenvalues --   -0.72033  -0.71161  -0.70442  -0.65485  -0.64973
 Alpha  occ. eigenvalues --   -0.64708  -0.62110  -0.61300  -0.59713  -0.57966
 Alpha  occ. eigenvalues --   -0.55607  -0.55229  -0.53103  -0.52998  -0.52829
 Alpha  occ. eigenvalues --   -0.52758  -0.50268  -0.48793  -0.48790  -0.48319
 Alpha  occ. eigenvalues --   -0.47047  -0.46188  -0.46088  -0.44802  -0.44170
 Alpha  occ. eigenvalues --   -0.37305  -0.36298
 Alpha virt. eigenvalues --    0.05056   0.11280   0.16529   0.20126   0.22809
 Alpha virt. eigenvalues --    0.23870   0.24885   0.25697   0.27547   0.28291
 Alpha virt. eigenvalues --    0.29191   0.29678   0.31461   0.31606   0.32067

 Mulliken charges:
               1
     1  C   -0.299274
     2  C   -0.300143
     3  C   -0.475880
     4  H    0.144363
     5  H    0.153327
     6  H    0.151766
     7  H    0.154789
     8  H    0.157070
     9  H    0.152762
    10  H    0.161491
    11  C   -0.297744
    12  C   -0.307102
    13  C   -0.475411
    14  H    0.150438
    15  H    0.154811
    16  H    0.143979
    17  H    0.153375
    18  H    0.161188
    19  H    0.156392
    20  H    0.159736
    21  C   -0.171210
    22  C   -0.218338
    23  C   -0.171121
    24  C    0.159149
    25  C   -0.176403
    26  C   -0.219083
    27  H    0.225429
    28  H    0.223285
    29  H    0.275363
    30  H    0.280134
    31  H    0.226401
    32  N    0.487859
    33  O   -0.460975
    34  O   -0.460423
 Sum of Mulliken charges =  -0.00000

 Dipole moment (field-independent basis, Debye):
    X=              1.5281    Y=             -2.8271    Z=              4.0322  Tot=              5.1562
 Quadrupole moment (field-independent basis, Debye-Ang):
   XX=            -99.2979   YY=            -94.1622   ZZ=            -95.1798
   XY=             10.0169   XZ=             -9.6529   YZ=              0.7329

 Normal termination of Gaussian 16 at Thu May  6 08:54:48 2021.
