 Gaussian 16, Revision A.03,
 Gaussian 16:  EM64L-G16RevA.03 25-Dec-2016

 -------------
 #p 6-31g* mp2
 -------------

 ------------------------------------------------------
 Input file generated by CHIRIPA (05-May-2021 14:51:09)
 ------------------------------------------------------
 Symbolic Z-matrix:
 Charge =  0 Multiplicity = 1

                         Standard orientation:
 ---------------------------------------------------------------------
 Center     Atomic      Atomic             Coordinates (Angstroms)
 Number     Number       Type             X           Y           Z
 ---------------------------------------------------------------------
      1          6           0       -2.746914    0.430754    0.330547
      2          6           0       -3.723011    1.400242   -0.336771
      3          6           0       -3.791781    2.752384    0.373704
      4          1           0       -3.045887    0.281845    1.377155
      5          1           0       -1.746897    0.885577    0.352823
      6          1           0       -4.720604    0.943155   -0.359026
      7          1           0       -3.421791    1.546711   -1.381965
      8          1           0       -2.808103    3.232886    0.383503
      9          1           0       -4.114296    2.625901    1.412255
     10          1           0       -4.495420    3.429942   -0.119924
     11          6           0       -2.667103   -0.925358   -0.368251
     12          6           0       -1.691007   -1.894845    0.299068
     13          6           0       -1.622236   -3.246988   -0.411408
     14          1           0       -3.667120   -1.380181   -0.390527
     15          1           0       -2.368130   -0.776449   -1.414858
     16          1           0       -1.992226   -2.041315    1.344261
     17          1           0       -0.693413   -1.437759    0.321322
     18          1           0       -1.299722   -3.120504   -1.449958
     19          1           0       -2.605915   -3.727489   -0.421207
     20          1           0       -0.918597   -3.924546    0.082220
     21          6           0        2.711874   -0.447132   -0.299220
     22          6           0        2.470728   -1.575383    0.704217
     23          6           0        2.483349   -2.958595    0.052787
     24          1           0        1.943532   -0.491815   -1.083183
     25          1           0        3.677306   -0.609688   -0.798131
     26          1           0        1.506676   -1.409999    1.202080
     27          1           0        3.239622   -1.527892    1.485986
     28          1           0        3.448071   -3.148943   -0.428543
     29          1           0        1.705280   -3.030380   -0.714062
     30          1           0        2.309022   -3.750270    0.788125
     31          6           0        2.702143    0.941736    0.336924
     32          6           0        2.943290    2.069987   -0.666512
     33          6           0        2.930669    3.453198   -0.015084
     34          1           0        1.736711    1.104292    0.835835
     35          1           0        3.470486    0.986418    1.120886
     36          1           0        2.174396    2.022496   -1.448282
     37          1           0        3.907341    1.904603   -1.164376
     38          1           0        3.708737    3.524982    0.751766
     39          1           0        1.965946    3.643546    0.466247
     40          1           0        3.104995    4.244873   -0.750421
 ---------------------------------------------------------------------

 SCF Done:  E(RHF) =  -470.733076122     A.U. after   11 cycles
 E2 =    -0.1583844851D+01 EUMP2 =    -0.47231692097301D+03

 The electronic state is 1-A.
 Alpha  occ. eigenvalues --  -11.21645 -11.21640 -11.21628 -11.21583 -11.21459
 Alpha  occ. eigenvalues --  -11.21443 -11.21398 -11.21384 -11.21107 -11.21102
 Alpha  occ. eigenvalues --  -11.21089 -11.21049  -1.08501  -1.08440  -1.03616
 Alpha  occ. eigenvalues --   -1.03505  -0.96055  -0.95962  -0.87076  -0.86973
 Alpha  occ. eigenvalues --   -0.79711  -0.79544  -0.78339  -0.78229  -0.65325
 Alpha  occ. eigenvalues --   -0.64920  -0.61262  -0.60702  -0.59425  -0.59302
 Alpha  occ. eigenvalues --   -0.57652  -0.57579  -0.55443  -0.55128  -0.52759
 Alpha  occ. eigenvalues --   -0.52639  -0.52443  -0.52413  -0.50119  -0.49804
 Alpha  occ. eigenvalues --   -0.48076  -0.47841  -0.46882  -0.46452  -0.46029
 Alpha  occ. eigenvalues --   -0.45801  -0.45784  -0.45427  -0.43849  -0.43773
 Alpha virt. eigenvalues --    0.19603   0.22641   0.23605   0.25141   0.25590
 Alpha virt. eigenvalues --    0.26644   0.26843   0.27554   0.29172   0.29729
 Alpha virt. eigenvalues --    0.30556   0.30630   0.31372   0.31981   0.32398

 Mulliken charges:
               1
     1  C   -0.298634
     2  C   -0.299679
     3  C   -0.475697
     4  H    0.149940
     5  H    0.148673
     6  H    0.152219
     7  H    0.151974
     8  H    0.154992
     9  H    0.155313
    10  H    0.160496
    11  C   -0.297610
    12  C   -0.307940
    13  C   -0.476773
    14  H    0.149873
    15  H    0.149303
    16  H    0.151933
    17  H    0.159593
    18  H    0.154225
    19  H    0.155193
    20  H    0.163112
    21  C   -0.299294
    22  C   -0.304437
    23  C   -0.478382
    24  H    0.149129
    25  H    0.149994
    26  H    0.156194
    27  H    0.152527
    28  H    0.154915
    29  H    0.159241
    30  H    0.159758
    31  C   -0.298925
    32  C   -0.299622
    33  C   -0.475667
    34  H    0.149417
    35  H    0.150147
    36  H    0.151519
    37  H    0.152173
    38  H    0.155415
    39  H    0.155004
    40  H    0.160388
 Sum of Mulliken charges =  -0.00000

 Dipole moment (field-independent basis, Debye):
    X=             -0.0036    Y=             -0.0140    Z=              0.0078  Tot=              0.0165
 Quadrupole moment (field-independent basis, Debye-Ang):
   XX=            -83.1587   YY=            -86.7941   ZZ=            -84.6785
   XY=              0.3636   XZ=             -0.2439   YZ=             -0.9867

 Normal termination of Gaussian 16 at Wed May  5 19:43:07 2021.
