 Gaussian 16, Revision A.03,
 Gaussian 16:  EM64L-G16RevA.03 25-Dec-2016

 -------------
 #p 6-31g* mp2
 -------------

 ------------------------------------------------------
 Input file generated by CHIRIPA (05-May-2021 14:53:17)
 ------------------------------------------------------
 Symbolic Z-matrix:
 Charge =  0 Multiplicity = 1

                         Standard orientation:
 ---------------------------------------------------------------------
 Center     Atomic      Atomic             Coordinates (Angstroms)
 Number     Number       Type             X           Y           Z
 ---------------------------------------------------------------------
      1          6           0        2.231486   -0.620357    0.345352
      2          6           0        1.721326   -1.375900    1.572901
      3          6           0        0.248823   -1.770262    1.454559
      4          1           0        1.620044    0.280189    0.196688
      5          1           0        2.088981   -1.245713   -0.546846
      6          1           0        1.866021   -0.749857    2.462704
      7          1           0        2.334176   -2.274651    1.718772
      8          1           0        0.091541   -2.415383    0.584109
      9          1           0       -0.379274   -0.881926    1.332269
     10          1           0       -0.095083   -2.309246    2.342863
     11          6           0        3.701931   -0.219307    0.448692
     12          6           0        4.212090    0.536236   -0.778857
     13          6           0        5.684594    0.930598   -0.660515
     14          1           0        3.844435    0.406049    1.340890
     15          1           0        4.313373   -1.119853    0.597356
     16          1           0        3.599241    1.434987   -0.924728
     17          1           0        4.067396   -0.089807   -1.668660
     18          1           0        6.312691    0.042262   -0.538224
     19          1           0        5.841876    1.575720    0.209935
     20          1           0        6.028500    1.469583   -1.548819
     21          6           0       -2.477819   -2.039141   -1.168643
     22          6           0       -1.498041   -1.176859   -1.671659
     23          6           0       -1.400075    0.136771   -1.203339
     24          6           0       -2.302265    0.556840   -0.227180
     25          6           0       -3.289345   -0.278396    0.293728
     26          6           0       -3.368774   -1.587953   -0.189281
     27          1           0       -2.546721   -3.058020   -1.538152
     28          1           0       -0.804772   -1.524533   -2.432282
     29          1           0       -0.651184    0.825391   -1.575338
     30          1           0       -3.966290    0.096897    1.051568
     31          1           0       -4.130691   -2.255404    0.203194
     32          7           0       -2.208366    1.945366    0.276386
     33          8           0       -3.015135    2.291204    1.136709
     34          8           0       -1.329776    2.661562   -0.198778
 ---------------------------------------------------------------------

 SCF Done:  E(RHF) =  -669.533350189     A.U. after   15 cycles
 E2 =    -0.2095438719D+01 EUMP2 =    -0.67162878890732D+03

 The electronic state is 1-A.
 Alpha  occ. eigenvalues --  -20.60833 -20.60827 -15.85882 -11.31190 -11.27803
 Alpha  occ. eigenvalues --  -11.27742 -11.27521 -11.26818 -11.26754 -11.21636
 Alpha  occ. eigenvalues --  -11.21606 -11.21502 -11.21396 -11.21062 -11.20935
 Alpha  occ. eigenvalues --   -1.59910  -1.39462  -1.19411  -1.08803  -1.08475
 Alpha  occ. eigenvalues --   -1.04796  -1.03536  -0.95992  -0.95638  -0.87015
 Alpha  occ. eigenvalues --   -0.86197  -0.82465  -0.79621  -0.78327  -0.77512
 Alpha  occ. eigenvalues --   -0.72099  -0.71244  -0.70507  -0.65115  -0.65047
 Alpha  occ. eigenvalues --   -0.64787  -0.62141  -0.60948  -0.59383  -0.57702
 Alpha  occ. eigenvalues --   -0.55330  -0.55294  -0.53641  -0.52886  -0.52671
 Alpha  occ. eigenvalues --   -0.51937  -0.49943  -0.48858  -0.48856  -0.47791
 Alpha  occ. eigenvalues --   -0.46664  -0.45814  -0.45767  -0.44860  -0.43813
 Alpha  occ. eigenvalues --   -0.37304  -0.36327
 Alpha virt. eigenvalues --    0.04974   0.11148   0.16424   0.20989   0.22913
 Alpha virt. eigenvalues --    0.24306   0.25955   0.26247   0.27746   0.28130
 Alpha virt. eigenvalues --    0.29056   0.30664   0.31492   0.31788   0.31939

 Mulliken charges:
               1
     1  C   -0.300784
     2  C   -0.299634
     3  C   -0.476053
     4  H    0.154113
     5  H    0.140780
     6  H    0.154738
     7  H    0.149733
     8  H    0.149983
     9  H    0.160248
    10  H    0.156607
    11  C   -0.297777
    12  C   -0.300706
    13  C   -0.475705
    14  H    0.152981
    15  H    0.148671
    16  H    0.155586
    17  H    0.147637
    18  H    0.154278
    19  H    0.157238
    20  H    0.160436
    21  C   -0.169986
    22  C   -0.214070
    23  C   -0.169826
    24  C    0.157221
    25  C   -0.172202
    26  C   -0.214826
    27  H    0.225687
    28  H    0.223591
    29  H    0.276004
    30  H    0.275833
    31  H    0.223848
    32  N    0.487887
    33  O   -0.460188
    34  O   -0.461344
 Sum of Mulliken charges =  -0.00000

 Dipole moment (field-independent basis, Debye):
    X=             -0.4217    Y=             -4.8289    Z=             -1.7794  Tot=              5.1636
 Quadrupole moment (field-independent basis, Debye-Ang):
   XX=            -91.4340   YY=           -100.2350   ZZ=            -92.4924
   XY=             11.7779   XZ=              1.5554   YZ=              0.1477

 Normal termination of Gaussian 16 at Wed May  5 15:43:07 2021.
