 Gaussian 16, Revision A.03,
 Gaussian 16:  EM64L-G16RevA.03 25-Dec-2016

 -------------
 #p 6-31g* mp2
 -------------

 ------------------------------------------------------
 Input file generated by CHIRIPA (05-May-2021 14:53:18)
 ------------------------------------------------------
 Symbolic Z-matrix:
 Charge =  0 Multiplicity = 1

                         Standard orientation:
 ---------------------------------------------------------------------
 Center     Atomic      Atomic             Coordinates (Angstroms)
 Number     Number       Type             X           Y           Z
 ---------------------------------------------------------------------
      1          6           0       -3.292226   -0.248344   -0.274793
      2          6           0       -4.667228   -0.817702   -0.625772
      3          6           0       -4.600573   -2.264898   -1.114623
      4          1           0       -2.641060   -0.309060   -1.157540
      5          1           0       -2.829473   -0.876703    0.498783
      6          1           0       -5.127831   -0.187661   -1.397464
      7          1           0       -5.315255   -0.755448    0.257858
      8          1           0       -4.164765   -2.911441   -0.346082
      9          1           0       -3.976276   -2.340427   -2.010809
     10          1           0       -5.594486   -2.651968   -1.359927
     11          6           0       -3.342436    1.197623    0.215499
     12          6           0       -1.967435    1.766981    0.566478
     13          6           0       -2.034089    3.214177    1.055329
     14          1           0       -3.805189    1.825982   -0.558077
     15          1           0       -3.993602    1.258339    1.098246
     16          1           0       -1.319408    1.704727   -0.317152
     17          1           0       -1.506831    1.136940    1.338169
     18          1           0       -2.658386    3.289706    1.951515
     19          1           0       -2.469898    3.860720    0.286788
     20          1           0       -1.040176    3.601247    1.300633
     21          6           0        1.159082   -1.509150    1.760348
     22          6           0        0.593218   -1.089696    0.551887
     23          6           0        1.377445   -0.457934   -0.417861
     24          6           0        2.730162   -0.260762   -0.144783
     25          6           0        3.323173   -0.667256    1.049533
     26          6           0        2.519854   -1.296965    2.004883
     27          1           0        0.542460   -1.999121    2.508080
     28          1           0       -0.463293   -1.253166    0.359255
     29          1           0        0.965162   -0.123133   -1.361973
     30          1           0        4.379333   -0.490430    1.212865
     31          1           0        2.962015   -1.621662    2.942492
     32          7           0        3.570494    0.406970   -1.163790
     33          8           0        4.759725    0.568968   -0.898984
     34          8           0        3.024002    0.755697   -2.208000
 ---------------------------------------------------------------------

 SCF Done:  E(RHF) =  -669.535018212     A.U. after   15 cycles
 E2 =    -0.2092994071D+01 EUMP2 =    -0.67162801228328D+03

 The electronic state is 1-A.
 Alpha  occ. eigenvalues --  -20.60720 -20.60715 -15.85770 -11.31117 -11.27670
 Alpha  occ. eigenvalues --  -11.27651 -11.27401 -11.26703 -11.26594 -11.22437
 Alpha  occ. eigenvalues --  -11.22342 -11.22184 -11.22069 -11.21767 -11.21458
 Alpha  occ. eigenvalues --   -1.59795  -1.39349  -1.19277  -1.09217  -1.08678
 Alpha  occ. eigenvalues --   -1.04672  -1.04176  -0.96643  -0.95520  -0.87650
 Alpha  occ. eigenvalues --   -0.86079  -0.82358  -0.80267  -0.79107  -0.77369
 Alpha  occ. eigenvalues --   -0.71990  -0.71117  -0.70394  -0.65866  -0.64925
 Alpha  occ. eigenvalues --   -0.64657  -0.62034  -0.61563  -0.60008  -0.58261
 Alpha  occ. eigenvalues --   -0.55933  -0.55185  -0.53317  -0.53137  -0.52969
 Alpha  occ. eigenvalues --   -0.52716  -0.50577  -0.48756  -0.48747  -0.48569
 Alpha  occ. eigenvalues --   -0.47306  -0.46532  -0.46484  -0.44758  -0.44478
 Alpha  occ. eigenvalues --   -0.37257  -0.36226
 Alpha virt. eigenvalues --    0.05110   0.11285   0.16578   0.20044   0.22710
 Alpha virt. eigenvalues --    0.23613   0.24654   0.25252   0.27292   0.28566
 Alpha virt. eigenvalues --    0.29869   0.30774   0.30916   0.31381   0.31799

 Mulliken charges:
               1
     1  C   -0.304083
     2  C   -0.298755
     3  C   -0.476842
     4  H    0.147957
     5  H    0.141653
     6  H    0.156286
     7  H    0.154065
     8  H    0.152397
     9  H    0.156500
    10  H    0.164064
    11  C   -0.297869
    12  C   -0.302840
    13  C   -0.476210
    14  H    0.153827
    15  H    0.151310
    16  H    0.151810
    17  H    0.150602
    18  H    0.154937
    19  H    0.157668
    20  H    0.164199
    21  C   -0.175258
    22  C   -0.221088
    23  C   -0.174286
    24  C    0.158646
    25  C   -0.171771
    26  C   -0.217983
    27  H    0.224809
    28  H    0.236823
    29  H    0.274700
    30  H    0.275163
    31  H    0.222941
    32  N    0.488087
    33  O   -0.460653
    34  O   -0.460804
 Sum of Mulliken charges =  -0.00000

 Dipole moment (field-independent basis, Debye):
    X=             -3.1587    Y=             -2.2507    Z=              3.5603  Tot=              5.2649
 Quadrupole moment (field-independent basis, Debye-Ang):
   XX=           -107.3297   YY=            -94.9878   ZZ=            -93.6592
   XY=             -6.2746   XZ=             13.1157   YZ=             -1.5649

 Normal termination of Gaussian 16 at Thu May  6 20:33:45 2021.
