 Gaussian 16, Revision A.03,
 Gaussian 16:  EM64L-G16RevA.03 25-Dec-2016

 -------------
 #p 6-31g* mp2
 -------------

 ------------------------------------------------------
 Input file generated by CHIRIPA (05-May-2021 14:53:12)
 ------------------------------------------------------
 Symbolic Z-matrix:
 Charge =  0 Multiplicity = 1

                         Standard orientation:
 ---------------------------------------------------------------------
 Center     Atomic      Atomic             Coordinates (Angstroms)
 Number     Number       Type             X           Y           Z
 ---------------------------------------------------------------------
      1          6           0        3.615027    0.542903    0.143535
      2          6           0        2.625095    1.075424   -0.893017
      3          6           0        1.552947    1.975821   -0.278542
      4          1           0        3.064827   -0.013462    0.914692
      5          1           0        4.094372    1.390877    0.652027
      6          1           0        2.148773    0.226702   -1.400366
      7          1           0        3.177736    1.630424   -1.661899
      8          1           0        2.011048    2.840968    0.211626
      9          1           0        0.976238    1.429271    0.474645
     10          1           0        0.855979    2.345372   -1.037177
     11          6           0        4.692909   -0.358815   -0.455468
     12          6           0        5.682841   -0.891336    0.581084
     13          6           0        6.754989   -1.791733   -0.033391
     14          1           0        4.213564   -1.206788   -0.963960
     15          1           0        5.243109    0.197550   -1.226625
     16          1           0        5.130200   -1.446335    1.349966
     17          1           0        6.159164   -0.042614    1.088433
     18          1           0        7.331698   -1.245183   -0.786578
     19          1           0        6.296888   -2.656880   -0.523559
     20          1           0        7.451957   -2.161284    0.725244
     21          6           0       -1.946838    2.017065    0.684111
     22          6           0       -2.079666    0.998591    1.633631
     23          6           0       -2.796863   -0.163227    1.333046
     24          6           0       -3.370817   -0.273864    0.067491
     25          6           0       -3.256197    0.723293   -0.899893
     26          6           0       -2.534492    1.876412   -0.577397
     27          1           0       -1.387951    2.916215    0.926123
     28          1           0       -1.624353    1.105095    2.614138
     29          1           0       -2.915328   -0.967202    2.049291
     30          1           0       -3.721321    0.588375   -1.868848
     31          1           0       -2.432975    2.665747   -1.316782
     32          7           0       -4.132468   -1.499225   -0.262323
     33          8           0       -4.628627   -1.572424   -1.384421
     34          8           0       -4.218869   -2.363261    0.607513
 ---------------------------------------------------------------------

 SCF Done:  E(RHF) =  -669.535088992     A.U. after   15 cycles
 E2 =    -0.2091836623D+01 EUMP2 =    -0.67162692561506D+03

 The electronic state is 1-A.
 Alpha  occ. eigenvalues --  -20.60759 -20.60754 -15.85816 -11.31168 -11.27776
 Alpha  occ. eigenvalues --  -11.27768 -11.27482 -11.26752 -11.26738 -11.22080
 Alpha  occ. eigenvalues --  -11.21859 -11.21801 -11.21736 -11.21670 -11.21264
 Alpha  occ. eigenvalues --   -1.59836  -1.39390  -1.19362  -1.08814  -1.08742
 Alpha  occ. eigenvalues --   -1.04767  -1.03924  -0.96403  -0.95578  -0.87423
 Alpha  occ. eigenvalues --   -0.86163  -0.82418  -0.80001  -0.78603  -0.77466
 Alpha  occ. eigenvalues --   -0.72034  -0.71161  -0.70461  -0.65428  -0.65013
 Alpha  occ. eigenvalues --   -0.64768  -0.62117  -0.61321  -0.59775  -0.57994
 Alpha  occ. eigenvalues --   -0.55725  -0.55252  -0.53341  -0.52913  -0.52854
 Alpha  occ. eigenvalues --   -0.52754  -0.50305  -0.48791  -0.48788  -0.48314
 Alpha  occ. eigenvalues --   -0.47011  -0.46153  -0.46057  -0.44799  -0.44186
 Alpha  occ. eigenvalues --   -0.37246  -0.36376
 Alpha virt. eigenvalues --    0.05075   0.11143   0.16545   0.20992   0.22543
 Alpha virt. eigenvalues --    0.23993   0.26252   0.26737   0.26889   0.27466
 Alpha virt. eigenvalues --    0.28714   0.30369   0.30900   0.31369   0.31870

 Mulliken charges:
               1
     1  C   -0.298683
     2  C   -0.299706
     3  C   -0.479042
     4  H    0.149335
     5  H    0.148723
     6  H    0.155521
     7  H    0.152611
     8  H    0.151766
     9  H    0.156996
    10  H    0.155678
    11  C   -0.298797
    12  C   -0.299888
    13  C   -0.475981
    14  H    0.151396
    15  H    0.150100
    16  H    0.152181
    17  H    0.151497
    18  H    0.155386
    19  H    0.156346
    20  H    0.160905
    21  C   -0.164200
    22  C   -0.221936
    23  C   -0.170628
    24  C    0.157753
    25  C   -0.170812
    26  C   -0.220014
    27  H    0.228683
    28  H    0.223534
    29  H    0.275581
    30  H    0.275633
    31  H    0.223182
    32  N    0.488167
    33  O   -0.460587
    34  O   -0.460699
 Sum of Mulliken charges =  -0.00000

 Dipole moment (field-independent basis, Debye):
    X=              2.7390    Y=              4.2876    Z=              1.1501  Tot=              5.2161
 Quadrupole moment (field-independent basis, Debye-Ang):
   XX=           -113.6682   YY=            -96.9641   ZZ=            -90.6330
   XY=            -15.0016   XZ=             -2.6862   YZ=             -2.2164

 Normal termination of Gaussian 16 at Thu May  6 08:49:21 2021.
