 Gaussian 16, Revision A.03,
 Gaussian 16:  EM64L-G16RevA.03 25-Dec-2016

 -------------
 #p 6-31g* mp2
 -------------

 ------------------------------------------------------
 Input file generated by CHIRIPA (05-May-2021 14:53:12)
 ------------------------------------------------------
 Symbolic Z-matrix:
 Charge =  0 Multiplicity = 1

                         Standard orientation:
 ---------------------------------------------------------------------
 Center     Atomic      Atomic             Coordinates (Angstroms)
 Number     Number       Type             X           Y           Z
 ---------------------------------------------------------------------
      1          6           0        3.597183    0.524974    0.104660
      2          6           0        4.211341   -0.599805   -0.729406
      3          6           0        5.526820   -1.117250   -0.146689
      4          1           0        4.316745    1.351697    0.180200
      5          1           0        3.428554    0.162850    1.128293
      6          1           0        4.377482   -0.236094   -1.751526
      7          1           0        3.490159   -1.423866   -0.803130
      8          1           0        5.373412   -1.506060    0.865187
      9          1           0        6.265776   -0.311539   -0.088598
     10          1           0        5.948424   -1.920794   -0.758594
     11          6           0        2.281691    1.052754   -0.465126
     12          6           0        1.667533    2.177533    0.368940
     13          6           0        0.352054    2.694979   -0.213777
     14          1           0        2.450320    1.414879   -1.488759
     15          1           0        1.562129    0.226032   -0.540666
     16          1           0        2.388714    3.001595    0.442663
     17          1           0        1.501392    1.813823    1.391060
     18          1           0       -0.386902    1.889268   -0.271868
     19          1           0        0.505462    3.083789   -1.225653
     20          1           0       -0.069550    3.498523    0.398128
     21          6           0       -0.377989   -2.127727    0.774113
     22          6           0       -1.196658   -2.453519   -0.312240
     23          6           0       -2.262478   -1.623444   -0.672168
     24          6           0       -2.481903   -0.470181    0.079581
     25          6           0       -1.683968   -0.118435    1.167176
     26          6           0       -0.623823   -0.963278    1.509059
     27          1           0        0.447761   -2.778285    1.046705
     28          1           0       -1.008099   -3.357208   -0.884812
     29          1           0       -2.911903   -1.851704   -1.508567
     30          1           0       -1.896790    0.789137    1.718935
     31          1           0        0.010326   -0.707752    2.353218
     32          7           0       -3.607235    0.416399   -0.291907
     33          8           0       -3.779563    1.426742    0.386435
     34          8           0       -4.295634    0.084171   -1.254386
 ---------------------------------------------------------------------

 SCF Done:  E(RHF) =  -669.534769410     A.U. after   15 cycles
 E2 =    -0.2094485713D+01 EUMP2 =    -0.67162925512344D+03

 The electronic state is 1-A.
 Alpha  occ. eigenvalues --  -20.60846 -20.60833 -15.85894 -11.31307 -11.27888
 Alpha  occ. eigenvalues --  -11.27872 -11.27657 -11.26914 -11.26903 -11.22116
 Alpha  occ. eigenvalues --  -11.21870 -11.21837 -11.21603 -11.21572 -11.21017
 Alpha  occ. eigenvalues --   -1.59914  -1.39465  -1.19510  -1.08894  -1.08789
 Alpha  occ. eigenvalues --   -1.04919  -1.03858  -0.96291  -0.95704  -0.87304
 Alpha  occ. eigenvalues --   -0.86296  -0.82533  -0.79939  -0.78602  -0.77572
 Alpha  occ. eigenvalues --   -0.72111  -0.71244  -0.70605  -0.65471  -0.65150
 Alpha  occ. eigenvalues --   -0.64894  -0.62274  -0.61279  -0.59662  -0.57902
 Alpha  occ. eigenvalues --   -0.55634  -0.55382  -0.53263  -0.52998  -0.52953
 Alpha  occ. eigenvalues --   -0.52686  -0.50237  -0.48875  -0.48863  -0.48237
 Alpha  occ. eigenvalues --   -0.46999  -0.46135  -0.46042  -0.44843  -0.44103
 Alpha  occ. eigenvalues --   -0.37451  -0.36443
 Alpha virt. eigenvalues --    0.04936   0.11056   0.16337   0.20133   0.22979
 Alpha virt. eigenvalues --    0.23756   0.25616   0.26402   0.27244   0.28311
 Alpha virt. eigenvalues --    0.28715   0.30429   0.31175   0.31760   0.31970

 Mulliken charges:
               1
     1  C   -0.297142
     2  C   -0.298781
     3  C   -0.475548
     4  H    0.151803
     5  H    0.142502
     6  H    0.154714
     7  H    0.146304
     8  H    0.152549
     9  H    0.157497
    10  H    0.160750
    11  C   -0.303323
    12  C   -0.297754
    13  C   -0.480922
    14  H    0.151220
    15  H    0.153905
    16  H    0.153338
    17  H    0.141336
    18  H    0.159157
    19  H    0.157483
    20  H    0.162819
    21  C   -0.171981
    22  C   -0.218439
    23  C   -0.170681
    24  C    0.160670
    25  C   -0.174942
    26  C   -0.215698
    27  H    0.226691
    28  H    0.224340
    29  H    0.276390
    30  H    0.278060
    31  H    0.224815
    32  N    0.488552
    33  O   -0.459625
    34  O   -0.460059
 Sum of Mulliken charges =  -0.00000

 Dipole moment (field-independent basis, Debye):
    X=              3.8556    Y=             -3.1247    Z=              1.2449  Tot=              5.1166
 Quadrupole moment (field-independent basis, Debye-Ang):
   XX=           -115.5144   YY=            -89.9517   ZZ=            -91.8541
   XY=              7.6333   XZ=             -2.7127   YZ=              1.4537

 Normal termination of Gaussian 16 at Thu May  6 10:26:26 2021.
