 Gaussian 16, Revision A.03,
 Gaussian 16:  EM64L-G16RevA.03 25-Dec-2016

 -------------
 #p 6-31g* mp2
 -------------

 ------------------------------------------------------
 Input file generated by CHIRIPA (05-May-2021 14:57:21)
 ------------------------------------------------------
 Symbolic Z-matrix:
 Charge =  0 Multiplicity = 1

                         Standard orientation:
 ---------------------------------------------------------------------
 Center     Atomic      Atomic             Coordinates (Angstroms)
 Number     Number       Type             X           Y           Z
 ---------------------------------------------------------------------
      1          6           0       -6.161711    0.363194    0.710532
      2          6           0       -5.332504    1.339491    0.148590
      3          6           0       -4.031280    1.021255   -0.251524
      4          6           0       -3.589759   -0.289061   -0.074268
      5          6           0       -4.391921   -1.283976    0.482482
      6          6           0       -5.689606   -0.943121    0.875394
      7          1           0       -7.171159    0.619192    1.018553
      8          1           0       -5.696479    2.354806    0.019354
      9          1           0       -3.368160    1.757479   -0.689319
     10          1           0       -4.000977   -2.287514    0.598642
     11          1           0       -6.331360   -1.703380    1.311516
     12          7           0       -2.214084   -0.637937   -0.494038
     13          8           0       -1.848840   -1.799570   -0.327181
     14          8           0       -1.527124    0.256855   -0.981964
     15          6           0        5.879225   -1.055437    0.679372
     16          6           0        5.548988    0.133084    1.338829
     17          6           0        4.408454    0.854430    0.973605
     18          6           0        3.617069    0.355985   -0.060102
     19          6           0        3.919562   -0.824962   -0.736232
     20          6           0        5.064893   -1.529831   -0.354231
     21          1           0        6.767082   -1.609396    0.969605
     22          1           0        6.179563    0.503889    2.141901
     23          1           0        4.129388    1.777372    1.467284
     24          1           0        3.271528   -1.169461   -1.532969
     25          1           0        5.318905   -2.452556   -0.868140
     26          7           0        2.407097    1.110921   -0.455630
     27          8           0        1.726301    0.650565   -1.369538
     28          8           0        2.162427    2.148698    0.155753
 ---------------------------------------------------------------------

 SCF Done:  E(RHF) =  -868.335400458     A.U. after   16 cycles
 E2 =    -0.2600186405D+01 EUMP2 =    -0.87093558686244D+03

 The electronic state is 1-A.
 Alpha  occ. eigenvalues --  -20.59811 -20.59689 -20.59581 -20.59425 -15.84804
 Alpha  occ. eigenvalues --  -15.84557 -11.30461 -11.30257 -11.27101 -11.27026
 Alpha  occ. eigenvalues --  -11.26904 -11.26885 -11.26829 -11.26703 -11.26176
 Alpha  occ. eigenvalues --  -11.26132 -11.25994 -11.25949  -1.58835  -1.58569
 Alpha  occ. eigenvalues --   -1.38376  -1.38114  -1.18669  -1.18468  -1.08015
 Alpha  occ. eigenvalues --   -1.07806  -1.04113  -1.03922  -0.94798  -0.94577
 Alpha  occ. eigenvalues --   -0.85498  -0.85306  -0.81624  -0.81408  -0.76620
 Alpha  occ. eigenvalues --   -0.76401  -0.71077  -0.70693  -0.70190  -0.69891
 Alpha  occ. eigenvalues --   -0.69778  -0.69585  -0.64313  -0.64130  -0.64107
 Alpha  occ. eigenvalues --   -0.63936  -0.61453  -0.61264  -0.54617  -0.54431
 Alpha  occ. eigenvalues --   -0.52433  -0.52236  -0.52208  -0.52023  -0.47915
 Alpha  occ. eigenvalues --   -0.47789  -0.47542  -0.47368  -0.43739  -0.43394
 Alpha  occ. eigenvalues --   -0.36675  -0.36475  -0.35731  -0.35540
 Alpha virt. eigenvalues --    0.05906   0.06158   0.11918   0.12109   0.17345
 Alpha virt. eigenvalues --    0.17575   0.22012   0.22176   0.27905   0.28063
 Alpha virt. eigenvalues --    0.28944   0.29111   0.31537   0.31692   0.33236

 Mulliken charges:
               1
     1  C   -0.171850
     2  C   -0.218814
     3  C   -0.171148
     4  C    0.158530
     5  C   -0.171911
     6  C   -0.218735
     7  H    0.223039
     8  H    0.222283
     9  H    0.280149
    10  H    0.273353
    11  H    0.220579
    12  N    0.485804
    13  O   -0.468956
    14  O   -0.442406
    15  C   -0.172045
    16  C   -0.218772
    17  C   -0.171972
    18  C    0.159452
    19  C   -0.169711
    20  C   -0.218785
    21  H    0.222257
    22  H    0.219924
    23  H    0.273185
    24  H    0.279426
    25  H    0.221506
    26  N    0.487027
    27  O   -0.442731
    28  O   -0.468679
 Sum of Mulliken charges =  -0.00000

 Dipole moment (field-independent basis, Debye):
    X=             -0.6311    Y=             -1.3359    Z=              2.6092  Tot=              2.9985
 Quadrupole moment (field-independent basis, Debye-Ang):
   XX=            -43.0495   YY=           -101.5639   ZZ=           -103.4671
   XY=            -10.2527   XZ=              0.1960   YZ=              1.1835

 Normal termination of Gaussian 16 at Wed May  5 16:14:21 2021.
