 Gaussian 16, Revision A.03,
 Gaussian 16:  EM64L-G16RevA.03 25-Dec-2016

 -------------
 #p 6-31g* mp2
 -------------

 ------------------------------------------------------
 Input file generated by CHIRIPA (05-May-2021 14:53:13)
 ------------------------------------------------------
 Symbolic Z-matrix:
 Charge =  0 Multiplicity = 1

                         Standard orientation:
 ---------------------------------------------------------------------
 Center     Atomic      Atomic             Coordinates (Angstroms)
 Number     Number       Type             X           Y           Z
 ---------------------------------------------------------------------
      1          6           0       -4.122353    0.081667   -0.150375
      2          6           0       -4.337257   -1.303911    0.459524
      3          6           0       -5.754835   -1.833086    0.239883
      4          1           0       -4.848342    0.782867    0.283449
      5          1           0       -4.335508    0.037609   -1.227416
      6          1           0       -4.122422   -1.257570    1.534844
      7          1           0       -3.610546   -2.001851    0.024338
      8          1           0       -5.976695   -1.907948   -0.829591
      9          1           0       -6.491480   -1.159438    0.689497
     10          1           0       -5.886467   -2.824742    0.683901
     11          6           0       -2.709988    0.624163    0.060936
     12          6           0       -2.495083    2.009740   -0.548962
     13          6           0       -1.077506    2.538916   -0.329322
     14          1           0       -2.496833    0.668220    1.137978
     15          1           0       -1.983999   -0.077037   -0.372888
     16          1           0       -3.221795    2.707681   -0.113777
     17          1           0       -2.709918    1.963399   -1.624283
     18          1           0       -0.340861    1.865268   -0.778936
     19          1           0       -0.855645    2.613778    0.740152
     20          1           0       -0.945874    3.530571   -0.773339
     21          6           0        2.516004    2.195216    0.521813
     22          6           0        2.446085    1.736097   -0.797596
     23          6           0        2.529680    0.369234   -1.079102
     24          6           0        2.683663   -0.514595   -0.012133
     25          6           0        2.756574   -0.088078    1.313030
     26          6           0        2.670752    1.283272    1.571065
     27          1           0        2.450201    3.258771    0.731378
     28          1           0        2.325924    2.442034   -1.614454
     29          1           0        2.478417   -0.013481   -2.091190
     30          1           0        2.876548   -0.815926    2.106290
     31          1           0        2.725353    1.636972    2.596717
     32          7           0        2.773339   -1.964007   -0.297727
     33          8           0        2.908837   -2.722285    0.660026
     34          8           0        2.706433   -2.314332   -1.473921
 ---------------------------------------------------------------------

 SCF Done:  E(RHF) =  -669.534432235     A.U. after   15 cycles
 E2 =    -0.2092787404D+01 EUMP2 =    -0.67162721963953D+03

 The electronic state is 1-A.
 Alpha  occ. eigenvalues --  -20.60789 -20.60784 -15.85843 -11.31215 -11.27772
 Alpha  occ. eigenvalues --  -11.27766 -11.27485 -11.26787 -11.26756 -11.21827
 Alpha  occ. eigenvalues --  -11.21559 -11.21505 -11.21410 -11.21378 -11.21014
 Alpha  occ. eigenvalues --   -1.59865  -1.39418  -1.19386  -1.08778  -1.08523
 Alpha  occ. eigenvalues --   -1.04796  -1.03643  -0.96116  -0.95603  -0.87146
 Alpha  occ. eigenvalues --   -0.86176  -0.82442  -0.79722  -0.78323  -0.77491
 Alpha  occ. eigenvalues --   -0.72060  -0.71188  -0.70475  -0.65161  -0.65032
 Alpha  occ. eigenvalues --   -0.64787  -0.62138  -0.61050  -0.59493  -0.57739
 Alpha  occ. eigenvalues --   -0.55459  -0.55249  -0.53417  -0.52885  -0.52791
 Alpha  occ. eigenvalues --   -0.52278  -0.50037  -0.48819  -0.48815  -0.48007
 Alpha  occ. eigenvalues --   -0.46741  -0.45866  -0.45784  -0.44823  -0.43908
 Alpha  occ. eigenvalues --   -0.37286  -0.36329
 Alpha virt. eigenvalues --    0.05015   0.11227   0.16460   0.21179   0.22803
 Alpha virt. eigenvalues --    0.24228   0.26539   0.27009   0.27444   0.27828
 Alpha virt. eigenvalues --    0.28606   0.30829   0.31393   0.31615   0.31945

 Mulliken charges:
               1
     1  C   -0.298392
     2  C   -0.300275
     3  C   -0.475848
     4  H    0.148807
     5  H    0.149911
     6  H    0.151512
     7  H    0.155143
     8  H    0.155495
     9  H    0.154206
    10  H    0.161433
    11  C   -0.298263
    12  C   -0.299467
    13  C   -0.480339
    14  H    0.148608
    15  H    0.152067
    16  H    0.151144
    17  H    0.151752
    18  H    0.162549
    19  H    0.151865
    20  H    0.152655
    21  C   -0.164387
    22  C   -0.219428
    23  C   -0.173052
    24  C    0.159270
    25  C   -0.170623
    26  C   -0.219319
    27  H    0.226436
    28  H    0.224804
    29  H    0.275493
    30  H    0.275657
    31  H    0.223455
    32  N    0.488053
    33  O   -0.460241
    34  O   -0.460684
 Sum of Mulliken charges =  -0.00000

 Dipole moment (field-independent basis, Debye):
    X=             -0.2620    Y=              5.0498    Z=              1.0242  Tot=              5.1593
 Quadrupole moment (field-independent basis, Debye-Ang):
   XX=            -98.1308   YY=           -100.8204   ZZ=            -89.2616
   XY=             13.6633   XZ=              2.9596   YZ=             -1.2301

 Normal termination of Gaussian 16 at Thu May  6 13:43:49 2021.
