 Gaussian 16, Revision A.03,
 Gaussian 16:  EM64L-G16RevA.03 25-Dec-2016

 -------------
 #p 6-31g* mp2
 -------------

 ------------------------------------------------------
 Input file generated by CHIRIPA (05-May-2021 14:53:13)
 ------------------------------------------------------
 Symbolic Z-matrix:
 Charge =  0 Multiplicity = 1

                         Standard orientation:
 ---------------------------------------------------------------------
 Center     Atomic      Atomic             Coordinates (Angstroms)
 Number     Number       Type             X           Y           Z
 ---------------------------------------------------------------------
      1          6           0        3.325352   -0.083549    0.341841
      2          6           0        2.814626   -1.469272   -0.054285
      3          6           0        3.609661   -2.600950    0.597649
      4          1           0        4.384647    0.003123    0.063763
      5          1           0        3.279882    0.017633    1.435043
      6          1           0        2.859748   -1.567301   -1.146517
      7          1           0        1.756372   -1.552587    0.224594
      8          1           0        3.554921   -2.531266    1.688863
      9          1           0        4.664566   -2.546064    0.309962
     10          1           0        3.227695   -3.582707    0.300805
     11          6           0        2.540623    1.058168   -0.301907
     12          6           0        3.051349    2.443890    0.094219
     13          6           0        2.256314    3.575569   -0.557715
     14          1           0        2.586093    0.956986   -1.395109
     15          1           0        1.481328    0.971495   -0.023830
     16          1           0        4.109603    2.527205   -0.184661
     17          1           0        3.006227    2.541920    1.186451
     18          1           0        1.201409    3.520683   -0.270028
     19          1           0        2.311054    3.505885   -1.648930
     20          1           0        2.638280    4.557325   -0.260872
     21          6           0       -3.555407    1.691489    0.673017
     22          6           0       -3.430359    1.365572   -0.681480
     23          6           0       -2.732225    0.219865   -1.074561
     24          6           0       -2.169196   -0.581043   -0.082173
     25          6           0       -2.276478   -0.283054    1.275394
     26          6           0       -2.979084    0.867588    1.645417
     27          1           0       -4.099471    2.583418    0.969416
     28          1           0       -3.876906    2.003577   -1.438838
     29          1           0       -2.620147   -0.056035   -2.116067
     30          1           0       -1.820446   -0.938506    2.007401
     31          1           0       -3.074597    1.118227    2.698080
     32          7           0       -1.427747   -1.796564   -0.486104
     33          8           0       -0.940913   -2.485737    0.407580
     34          8           0       -1.347471   -2.037100   -1.688741
 ---------------------------------------------------------------------

 SCF Done:  E(RHF) =  -669.536311757     A.U. after   15 cycles
 E2 =    -0.2091790379D+01 EUMP2 =    -0.67162810213634D+03

 The electronic state is 1-A.
 Alpha  occ. eigenvalues --  -20.60955 -20.60949 -15.85973 -11.31312 -11.27874
 Alpha  occ. eigenvalues --  -11.27859 -11.27600 -11.26872 -11.26859 -11.21403
 Alpha  occ. eigenvalues --  -11.21020 -11.21014 -11.20769 -11.20530 -11.20117
 Alpha  occ. eigenvalues --   -1.60007  -1.39564  -1.19472  -1.08874  -1.07918
 Alpha  occ. eigenvalues --   -1.04867  -1.02960  -0.95715  -0.95455  -0.86481
 Alpha  occ. eigenvalues --   -0.86267  -0.82548  -0.79069  -0.77672  -0.77597
 Alpha  occ. eigenvalues --   -0.72196  -0.71320  -0.70577  -0.65126  -0.64867
 Alpha  occ. eigenvalues --   -0.64555  -0.62213  -0.60359  -0.58855  -0.57021
 Alpha  occ. eigenvalues --   -0.55369  -0.54769  -0.53198  -0.52957  -0.52141
 Alpha  occ. eigenvalues --   -0.51877  -0.49435  -0.48968  -0.48956  -0.47375
 Alpha  occ. eigenvalues --   -0.46150  -0.45399  -0.45183  -0.44620  -0.43228
 Alpha  occ. eigenvalues --   -0.37446  -0.36466
 Alpha virt. eigenvalues --    0.04898   0.11182   0.16365   0.21319   0.23246
 Alpha virt. eigenvalues --    0.24906   0.26922   0.27261   0.27774   0.28302
 Alpha virt. eigenvalues --    0.28472   0.30873   0.31904   0.32144   0.32554

 Mulliken charges:
               1
     1  C   -0.298011
     2  C   -0.306280
     3  C   -0.474653
     4  H    0.147330
     5  H    0.146027
     6  H    0.152890
     7  H    0.166117
     8  H    0.151432
     9  H    0.149761
    10  H    0.166654
    11  C   -0.297251
    12  C   -0.298724
    13  C   -0.475305
    14  H    0.150738
    15  H    0.145018
    16  H    0.152326
    17  H    0.149990
    18  H    0.152300
    19  H    0.155251
    20  H    0.158575
    21  C   -0.170624
    22  C   -0.218503
    23  C   -0.170456
    24  C    0.158708
    25  C   -0.171686
    26  C   -0.218616
    27  H    0.226176
    28  H    0.224091
    29  H    0.276119
    30  H    0.275793
    31  H    0.223899
    32  N    0.487740
    33  O   -0.459097
    34  O   -0.457727
 Sum of Mulliken charges =  -0.00000

 Dipole moment (field-independent basis, Debye):
    X=             -2.8066    Y=              4.1468    Z=              1.3617  Tot=              5.1892
 Quadrupole moment (field-independent basis, Debye-Ang):
   XX=            -84.2588   YY=           -101.1147   ZZ=            -89.9105
   XY=             -7.9693   XZ=             -2.7300   YZ=             -1.8523

 Normal termination of Gaussian 16 at Thu May  6 12:03:53 2021.
