 Gaussian 16, Revision A.03,
 Gaussian 16:  EM64L-G16RevA.03 25-Dec-2016

 -------------
 #p 6-31g* mp2
 -------------

 ------------------------------------------------------
 Input file generated by CHIRIPA (05-May-2021 14:57:20)
 ------------------------------------------------------
 Symbolic Z-matrix:
 Charge =  0 Multiplicity = 1

                         Standard orientation:
 ---------------------------------------------------------------------
 Center     Atomic      Atomic             Coordinates (Angstroms)
 Number     Number       Type             X           Y           Z
 ---------------------------------------------------------------------
      1          6           0       -3.610233    1.671772    0.765881
      2          6           0       -3.983010    0.323635    0.775063
      3          6           0       -3.211225   -0.630999    0.106057
      4          6           0       -2.067708   -0.200543   -0.565037
      5          6           0       -1.670089    1.135283   -0.592557
      6          6           0       -2.456995    2.072587    0.083304
      7          1           0       -4.215647    2.406624    1.288244
      8          1           0       -4.878122    0.009480    1.304332
      9          1           0       -3.476687   -1.681173    0.096954
     10          1           0       -0.772453    1.418125   -1.128905
     11          1           0       -2.165067    3.118888    0.074474
     12          7           0       -1.242650   -1.201998   -1.276912
     13          8           0       -0.239722   -0.797165   -1.860762
     14          8           0       -1.614521   -2.372810   -1.237550
     15          6           0        3.046598    2.044246   -0.825209
     16          6           0        2.266371    2.219639    0.322399
     17          6           0        1.793912    1.113878    1.035577
     18          6           0        2.122199   -0.158708    0.570772
     19          6           0        2.897484   -0.366042   -0.569067
     20          6           0        3.359114    0.754241   -1.266501
     21          1           0        3.409410    2.908868   -1.373107
     22          1           0        2.022103    3.220303    0.667437
     23          1           0        1.188056    1.220909    1.927149
     24          1           0        3.124494   -1.375909   -0.888523
     25          1           0        3.964858    0.615014   -2.157420
     26          7           0        1.627759   -1.337014    1.317449
     27          8           0        1.930900   -2.447732    0.887275
     28          8           0        0.946439   -1.127541    2.318727
 ---------------------------------------------------------------------

 SCF Done:  E(RHF) =  -868.337287916     A.U. after   16 cycles
 E2 =    -0.2603550283D+01 EUMP2 =    -0.87094083819933D+03

 The electronic state is 1-A.
 Alpha  occ. eigenvalues --  -20.60637 -20.60585 -20.60257 -20.60177 -15.85636
 Alpha  occ. eigenvalues --  -15.85259 -11.30989 -11.30613 -11.27608 -11.27543
 Alpha  occ. eigenvalues --  -11.27371 -11.27368 -11.27154 -11.27115 -11.26663
 Alpha  occ. eigenvalues --  -11.26558 -11.26422 -11.26200  -1.59677  -1.59293
 Alpha  occ. eigenvalues --   -1.39232  -1.38842  -1.19182  -1.18858  -1.08590
 Alpha  occ. eigenvalues --   -1.08270  -1.04600  -1.04278  -0.95427  -0.95087
 Alpha  occ. eigenvalues --   -0.85999  -0.85684  -0.82266  -0.81928  -0.77304
 Alpha  occ. eigenvalues --   -0.76949  -0.71890  -0.71492  -0.71239  -0.70382
 Alpha  occ. eigenvalues --   -0.70308  -0.70012  -0.64851  -0.64619  -0.64535
 Alpha  occ. eigenvalues --   -0.64319  -0.61953  -0.61633  -0.55122  -0.54837
 Alpha  occ. eigenvalues --   -0.52954  -0.52805  -0.52447  -0.52392  -0.48650
 Alpha  occ. eigenvalues --   -0.48602  -0.48267  -0.48228  -0.44651  -0.44226
 Alpha  occ. eigenvalues --   -0.37193  -0.36841  -0.36351  -0.35618
 Alpha virt. eigenvalues --    0.05087   0.05723   0.11210   0.12008   0.16580
 Alpha virt. eigenvalues --    0.17163   0.21416   0.21872   0.27188   0.27848
 Alpha virt. eigenvalues --    0.28412   0.28724   0.30819   0.31442   0.32596

 Mulliken charges:
               1
     1  C   -0.169674
     2  C   -0.217981
     3  C   -0.165412
     4  C    0.158398
     5  C   -0.172669
     6  C   -0.221580
     7  H    0.224439
     8  H    0.224156
     9  H    0.278262
    10  H    0.275534
    11  H    0.218073
    12  N    0.487118
    13  O   -0.467477
    14  O   -0.451752
    15  C   -0.171962
    16  C   -0.226819
    17  C   -0.175155
    18  C    0.160975
    19  C   -0.150066
    20  C   -0.217765
    21  H    0.222686
    22  H    0.216661
    23  H    0.272172
    24  H    0.280287
    25  H    0.223769
    26  N    0.484784
    27  O   -0.451492
    28  O   -0.467511
 Sum of Mulliken charges =  -0.00000

 Dipole moment (field-independent basis, Debye):
    X=             -1.1647    Y=              7.1762    Z=             -0.2775  Tot=              7.2753
 Quadrupole moment (field-independent basis, Debye-Ang):
   XX=            -82.7481   YY=           -104.1100   ZZ=           -109.5512
   XY=              2.5795   XZ=            -11.5778   YZ=              1.4859

 Normal termination of Gaussian 16 at Wed May  5 19:16:35 2021.
