 Gaussian 16, Revision A.03,
 Gaussian 16:  EM64L-G16RevA.03 25-Dec-2016

 -------------
 #p 6-31g* mp2
 -------------

 ------------------------------------------------------
 Input file generated by CHIRIPA (05-May-2021 14:55:21)
 ------------------------------------------------------
 Symbolic Z-matrix:
 Charge =  0 Multiplicity = 1

                         Standard orientation:
 ---------------------------------------------------------------------
 Center     Atomic      Atomic             Coordinates (Angstroms)
 Number     Number       Type             X           Y           Z
 ---------------------------------------------------------------------
      1          6           0       -0.640360   -0.834161    0.984650
      2          6           0       -0.782838    0.474405    0.511494
      3          6           0       -2.017151    0.926994    0.035907
      4          6           0       -3.092755    0.040303    0.047974
      5          6           0       -2.982488   -1.269240    0.512977
      6          6           0       -1.738703   -1.700280    0.983883
      7          1           0        0.322163   -1.177373    1.352280
      8          1           0        0.068420    1.149241    0.510903
      9          1           0       -2.155412    1.934936   -0.336055
     10          1           0       -3.849291   -1.918800    0.501061
     11          1           0       -1.630984   -2.717064    1.350749
     12          7           0       -4.404480    0.508033   -0.453031
     13          8           0       -5.336700   -0.292688   -0.431842
     14          8           0       -4.475553    1.666503   -0.857421
     15          6           0        3.361798   -0.628513   -0.010673
     16          6           0        3.960651   -1.783803   -0.813585
     17          6           0        3.309685   -3.128816   -0.489577
     18          1           0        3.469890   -0.840918    1.061775
     19          1           0        2.282857   -0.572454   -0.211018
     20          1           0        5.038386   -1.836797   -0.612853
     21          1           0        3.851292   -1.568534   -1.884246
     22          1           0        2.237102   -3.100044   -0.707154
     23          1           0        3.430942   -3.369831    0.571464
     24          1           0        3.752889   -3.940649   -1.074691
     25          6           0        4.002212    0.722680   -0.323524
     26          6           0        3.403360    1.877970    0.479387
     27          6           0        4.054325    3.222982    0.155380
     28          1           0        5.081153    0.666621   -0.123180
     29          1           0        3.894120    0.935084   -1.395973
     30          1           0        3.512718    1.662701    1.550048
     31          1           0        2.325624    1.930965    0.278655
     32          1           0        3.933069    3.463998   -0.905662
     33          1           0        5.126908    3.194211    0.372956
     34          1           0        3.611121    4.034815    0.740494
 ---------------------------------------------------------------------

 SCF Done:  E(RHF) =  -669.535425534     A.U. after   15 cycles
 E2 =    -0.2092591788D+01 EUMP2 =    -0.67162801732206D+03

 The electronic state is 1-A.
 Alpha  occ. eigenvalues --  -20.60731 -20.60726 -15.85784 -11.31143 -11.27711
 Alpha  occ. eigenvalues --  -11.27706 -11.27397 -11.26709 -11.26683 -11.22733
 Alpha  occ. eigenvalues --  -11.22539 -11.22477 -11.22356 -11.21974 -11.21903
 Alpha  occ. eigenvalues --   -1.59807  -1.39361  -1.19311  -1.09465  -1.08699
 Alpha  occ. eigenvalues --   -1.04713  -1.04493  -0.96925  -0.95538  -0.87941
 Alpha  occ. eigenvalues --   -0.86112  -0.82375  -0.80574  -0.79334  -0.77424
 Alpha  occ. eigenvalues --   -0.72002  -0.71131  -0.70404  -0.66127  -0.64956
 Alpha  occ. eigenvalues --   -0.64692  -0.62118  -0.61833  -0.60297  -0.58554
 Alpha  occ. eigenvalues --   -0.56209  -0.55198  -0.53599  -0.53353  -0.53040
 Alpha  occ. eigenvalues --   -0.52815  -0.50858  -0.48899  -0.48759  -0.48735
 Alpha  occ. eigenvalues --   -0.47597  -0.46811  -0.46743  -0.44768  -0.44758
 Alpha  occ. eigenvalues --   -0.37267  -0.36317
 Alpha virt. eigenvalues --    0.05085   0.11241   0.16528   0.19498   0.22573
 Alpha virt. eigenvalues --    0.22659   0.25004   0.25770   0.26903   0.27699
 Alpha virt. eigenvalues --    0.29511   0.29901   0.30765   0.31388   0.31546

 Mulliken charges:
               1
     1  C   -0.176529
     2  C   -0.227336
     3  C   -0.173403
     4  C    0.158771
     5  C   -0.171069
     6  C   -0.219621
     7  H    0.231300
     8  H    0.235344
     9  H    0.275884
    10  H    0.275398
    11  H    0.223597
    12  N    0.488041
    13  O   -0.460616
    14  O   -0.460542
    15  C   -0.306734
    16  C   -0.299216
    17  C   -0.478505
    18  H    0.147425
    19  H    0.148115
    20  H    0.155270
    21  H    0.155951
    22  H    0.154053
    23  H    0.153474
    24  H    0.165227
    25  C   -0.298041
    26  C   -0.306397
    27  C   -0.475738
    28  H    0.153920
    29  H    0.153517
    30  H    0.153314
    31  H    0.145992
    32  H    0.157981
    33  H    0.158717
    34  H    0.162458
 Sum of Mulliken charges =  -0.00000

 Dipole moment (field-independent basis, Debye):
    X=              4.8885    Y=             -1.6350    Z=              1.6935  Tot=              5.4257
 Quadrupole moment (field-independent basis, Debye-Ang):
   XX=           -121.7172   YY=            -91.6401   ZZ=            -94.6136
   XY=              7.0379   XZ=             -5.4525   YZ=             -0.9519

 Normal termination of Gaussian 16 at Thu May  6 15:48:33 2021.
