 Gaussian 16, Revision A.03,
 Gaussian 16:  EM64L-G16RevA.03 25-Dec-2016

 -------------
 #p 6-31g* mp2
 -------------

 ------------------------------------------------------
 Input file generated by CHIRIPA (05-May-2021 14:51:14)
 ------------------------------------------------------
 Symbolic Z-matrix:
 Charge =  0 Multiplicity = 1

                         Standard orientation:
 ---------------------------------------------------------------------
 Center     Atomic      Atomic             Coordinates (Angstroms)
 Number     Number       Type             X           Y           Z
 ---------------------------------------------------------------------
      1          6           0       -2.316998   -0.586347   -0.136012
      2          6           0       -2.446795   -2.106079   -0.028542
      3          6           0       -1.118393   -2.829981   -0.250148
      4          1           0       -1.917722   -0.327943   -1.126341
      5          1           0       -1.579940   -0.235358    0.599478
      6          1           0       -3.184408   -2.453942   -0.763072
      7          1           0       -2.845989   -2.360884    0.961577
      8          1           0       -0.377769   -2.511288    0.490468
      9          1           0       -0.718111   -2.604875   -1.243980
     10          1           0       -1.234169   -3.915269   -0.168870
     11          6           0       -3.636642    0.151383    0.083129
     12          6           0       -3.506846    1.671116   -0.024342
     13          6           0       -4.835247    2.395018    0.197264
     14          1           0       -4.373701   -0.199605   -0.652362
     15          1           0       -4.035918   -0.107020    1.073458
     16          1           0       -3.107652    1.925921   -1.014460
     17          1           0       -2.769232    2.018979    0.710188
     18          1           0       -5.235530    2.169912    1.191097
     19          1           0       -5.575872    2.076325   -0.543351
     20          1           0       -4.719472    3.480306    0.115987
     21          6           0        2.955788    0.880629   -0.352009
     22          6           0        3.514615    2.055359    0.451553
     23          6           0        3.465750    3.375108   -0.318945
     24          1           0        3.522997    0.781821   -1.287667
     25          1           0        1.917927    1.101403   -0.637484
     26          1           0        4.550665    1.831839    0.736609
     27          1           0        2.946135    2.151261    1.385495
     28          1           0        2.434931    3.624782   -0.590380
     29          1           0        4.048578    3.303545   -1.242953
     30          1           0        3.870056    4.201396    0.274052
     31          6           0        2.997852   -0.445666    0.404891
     32          6           0        2.439025   -1.620395   -0.398669
     33          6           0        2.487891   -2.940145    0.371828
     34          1           0        4.035714   -0.666440    0.690367
     35          1           0        2.430643   -0.346858    1.340550
     36          1           0        3.007506   -1.716299   -1.332611
     37          1           0        1.402976   -1.396876   -0.683726
     38          1           0        1.905063   -2.868582    1.295836
     39          1           0        3.518709   -3.189819    0.643264
     40          1           0        2.083585   -3.766433   -0.221169
 ---------------------------------------------------------------------

 SCF Done:  E(RHF) =  -470.731645679     A.U. after   11 cycles
 E2 =    -0.1584180573D+01 EUMP2 =    -0.47231582625218D+03

 The electronic state is 1-A.
 Alpha  occ. eigenvalues --  -11.21646 -11.21614 -11.21566 -11.21463 -11.21420
 Alpha  occ. eigenvalues --  -11.21401 -11.21342 -11.21281 -11.21103 -11.21043
 Alpha  occ. eigenvalues --  -11.21012 -11.20969  -1.08484  -1.08357  -1.03614
 Alpha  occ. eigenvalues --   -1.03418  -0.96093  -0.95846  -0.87075  -0.86896
 Alpha  occ. eigenvalues --   -0.79665  -0.79506  -0.78325  -0.78146  -0.65147
 Alpha  occ. eigenvalues --   -0.64986  -0.61140  -0.60789  -0.59372  -0.59298
 Alpha  occ. eigenvalues --   -0.57719  -0.57421  -0.55522  -0.55035  -0.52760
 Alpha  occ. eigenvalues --   -0.52567  -0.52366  -0.52309  -0.50114  -0.49693
 Alpha  occ. eigenvalues --   -0.48095  -0.47717  -0.46698  -0.46490  -0.45960
 Alpha  occ. eigenvalues --   -0.45764  -0.45689  -0.45417  -0.43840  -0.43685
 Alpha virt. eigenvalues --    0.21261   0.23179   0.23622   0.24794   0.26110
 Alpha virt. eigenvalues --    0.26301   0.26916   0.27488   0.28344   0.29347
 Alpha virt. eigenvalues --    0.29761   0.31452   0.31641   0.31833   0.32594

 Mulliken charges:
               1
     1  C   -0.299158
     2  C   -0.300267
     3  C   -0.479637
     4  H    0.149514
     5  H    0.148691
     6  H    0.151717
     7  H    0.151743
     8  H    0.162603
     9  H    0.156050
    10  H    0.160076
    11  C   -0.298078
    12  C   -0.299714
    13  C   -0.475741
    14  H    0.149882
    15  H    0.149853
    16  H    0.151967
    17  H    0.151662
    18  H    0.155263
    19  H    0.155327
    20  H    0.160396
    21  C   -0.298561
    22  C   -0.299469
    23  C   -0.475720
    24  H    0.149470
    25  H    0.150004
    26  H    0.151846
    27  H    0.151572
    28  H    0.155250
    29  H    0.155088
    30  H    0.160067
    31  C   -0.297354
    32  C   -0.306842
    33  C   -0.476684
    34  H    0.149190
    35  H    0.147944
    36  H    0.151053
    37  H    0.159924
    38  H    0.153392
    39  H    0.155141
    40  H    0.162542
 Sum of Mulliken charges =  -0.00000

 Dipole moment (field-independent basis, Debye):
    X=             -0.0422    Y=             -0.0326    Z=             -0.0155  Tot=              0.0556
 Quadrupole moment (field-independent basis, Debye-Ang):
   XX=            -84.8415   YY=            -86.2021   ZZ=            -83.8455
   XY=              0.3645   XZ=             -0.0620   YZ=              0.4907

 Normal termination of Gaussian 16 at Wed May  5 21:39:43 2021.
