 Gaussian 16, Revision A.03,
 Gaussian 16:  EM64L-G16RevA.03 25-Dec-2016

 -------------
 #p 6-31g* mp2
 -------------

 ------------------------------------------------------
 Input file generated by CHIRIPA (05-May-2021 14:57:21)
 ------------------------------------------------------
 Symbolic Z-matrix:
 Charge =  0 Multiplicity = 1

                         Standard orientation:
 ---------------------------------------------------------------------
 Center     Atomic      Atomic             Coordinates (Angstroms)
 Number     Number       Type             X           Y           Z
 ---------------------------------------------------------------------
      1          6           0       -5.677509   -0.531921    0.066754
      2          6           0       -5.202913    0.783845    0.072992
      3          6           0       -3.833740    1.045289   -0.034524
      4          6           0       -2.963406   -0.037810   -0.147231
      5          6           0       -3.405493   -1.359841   -0.156464
      6          6           0       -4.778868   -1.597686   -0.047752
      7          1           0       -6.742747   -0.725851    0.150740
      8          1           0       -5.898497    1.613498    0.161791
      9          1           0       -3.439179    2.054118   -0.032359
     10          1           0       -2.687733   -2.166168   -0.246327
     11          1           0       -5.144600   -2.620554   -0.052875
     12          7           0       -1.511699    0.226477   -0.261687
     13          8           0       -0.765507   -0.745221   -0.359848
     14          8           0       -1.147533    1.400320   -0.251069
     15          6           0        2.339652    2.446589    0.292265
     16          6           0        1.935406    1.487608    1.226858
     17          6           0        2.407211    0.174075    1.145756
     18          6           0        3.286097   -0.147292    0.112522
     19          6           0        3.707325    0.785628   -0.833795
     20          6           0        3.222764    2.093161   -0.733270
     21          1           0        1.968189    3.464643    0.362812
     22          1           0        1.249661    1.759239    2.024363
     23          1           0        2.110553   -0.588222    1.855908
     24          1           0        4.391864    0.484873   -1.617613
     25          1           0        3.538414    2.835834   -1.460489
     26          7           0        3.792328   -1.534696    0.016382
     27          8           0        4.565822   -1.792510   -0.903333
     28          8           0        3.406031   -2.338058    0.862563
 ---------------------------------------------------------------------

 SCF Done:  E(RHF) =  -868.338289891     A.U. after   16 cycles
 E2 =    -0.2600645925D+01 EUMP2 =    -0.87093893581590D+03

 The electronic state is 1-A.
 Alpha  occ. eigenvalues --  -20.61315 -20.61256 -20.59442 -20.59429 -15.86314
 Alpha  occ. eigenvalues --  -15.84483 -11.31564 -11.29535 -11.28149 -11.28079
 Alpha  occ. eigenvalues --  -11.27831 -11.27119 -11.27072 -11.26164 -11.26071
 Alpha  occ. eigenvalues --  -11.25826 -11.25146 -11.25032  -1.60351  -1.58513
 Alpha  occ. eigenvalues --   -1.39910  -1.38079  -1.19725  -1.17688  -1.09141
 Alpha  occ. eigenvalues --   -1.07150  -1.05106  -1.03089  -0.95995  -0.94045
 Alpha  occ. eigenvalues --   -0.86510  -0.84517  -0.82832  -0.80920  -0.77894
 Alpha  occ. eigenvalues --   -0.75996  -0.72541  -0.71679  -0.70826  -0.70729
 Alpha  occ. eigenvalues --   -0.69812  -0.68874  -0.65378  -0.65104  -0.63389
 Alpha  occ. eigenvalues --   -0.63161  -0.62452  -0.60498  -0.55613  -0.53648
 Alpha  occ. eigenvalues --   -0.53447  -0.53193  -0.51502  -0.51249  -0.49296
 Alpha  occ. eigenvalues --   -0.49137  -0.47486  -0.47453  -0.45343  -0.43558
 Alpha  occ. eigenvalues --   -0.37703  -0.36705  -0.35579  -0.34572
 Alpha virt. eigenvalues --    0.04606   0.06581   0.10950   0.13052   0.16133
 Alpha virt. eigenvalues --    0.18142   0.21121   0.22863   0.27037   0.28002
 Alpha virt. eigenvalues --    0.28709   0.29747   0.30694   0.32212   0.32348

 Mulliken charges:
               1
     1  C   -0.170336
     2  C   -0.218488
     3  C   -0.171603
     4  C    0.157673
     5  C   -0.170882
     6  C   -0.218543
     7  H    0.226978
     8  H    0.223749
     9  H    0.272934
    10  H    0.278985
    11  H    0.225790
    12  N    0.487212
    13  O   -0.455222
    14  O   -0.465723
    15  C   -0.160572
    16  C   -0.201209
    17  C   -0.158961
    18  C    0.159889
    19  C   -0.171955
    20  C   -0.219679
    21  H    0.219895
    22  H    0.216318
    23  H    0.269690
    24  H    0.269522
    25  H    0.216287
    26  N    0.488825
    27  O   -0.466394
    28  O   -0.464179
 Sum of Mulliken charges =  -0.00000

 Dipole moment (field-independent basis, Debye):
    X=             -7.3527    Y=              3.8962    Z=              0.7583  Tot=              8.3558
 Quadrupole moment (field-independent basis, Debye-Ang):
   XX=            -86.9159   YY=           -101.9252   ZZ=           -102.9941
   XY=             19.5307   XZ=             -1.9238   YZ=             -0.1683

 Normal termination of Gaussian 16 at Wed May  5 20:55:37 2021.
