 Gaussian 16, Revision A.03,
 Gaussian 16:  EM64L-G16RevA.03 25-Dec-2016

 -------------
 #p 6-31g* mp2
 -------------

 ------------------------------------------------------
 Input file generated by CHIRIPA (05-May-2021 14:51:12)
 ------------------------------------------------------
 Symbolic Z-matrix:
 Charge =  0 Multiplicity = 1

                         Standard orientation:
 ---------------------------------------------------------------------
 Center     Atomic      Atomic             Coordinates (Angstroms)
 Number     Number       Type             X           Y           Z
 ---------------------------------------------------------------------
      1          6           0       -3.165798    0.907445    0.272259
      2          6           0       -3.074087    2.274847   -0.405816
      3          6           0       -3.000623    3.427676    0.595874
      4          1           0       -4.050676    0.886575    0.923028
      5          1           0       -2.293472    0.771047    0.926352
      6          1           0       -3.945622    2.408051   -1.059497
      7          1           0       -2.189431    2.292398   -1.055194
      8          1           0       -2.122225    3.322275    1.240784
      9          1           0       -3.888394    3.438585    1.236455
     10          1           0       -2.935624    4.395854    0.089645
     11          6           0       -3.239934   -0.255093   -0.716041
     12          6           0       -3.331645   -1.622496   -0.037967
     13          6           0       -3.405109   -2.775325   -1.039657
     14          1           0       -4.112259   -0.118696   -1.370135
     15          1           0       -2.355056   -0.234224   -1.366811
     16          1           0       -4.216301   -1.640047    0.611411
     17          1           0       -2.460110   -1.755699    0.615715
     18          1           0       -2.517338   -2.786233   -1.680238
     19          1           0       -4.283507   -2.669924   -1.684566
     20          1           0       -3.470108   -3.743502   -0.533428
     21          6           0        2.813575   -0.955004    0.412834
     22          6           0        1.411097   -0.661274    0.946465
     23          6           0        0.644742   -1.929278    1.324167
     24          1           0        2.735171   -1.612578   -0.463748
     25          1           0        3.378011   -1.513042    1.172704
     26          1           0        0.849933   -0.102752    0.186355
     27          1           0        1.492838   -0.004168    1.821763
     28          1           0        1.180245   -2.486452    2.099663
     29          1           0        0.533688   -2.585597    0.454965
     30          1           0       -0.355179   -1.696139    1.703198
     31          6           0        3.592156    0.302653    0.030949
     32          6           0        4.994635    0.008922   -0.502681
     33          6           0        5.760990    1.276926   -0.880385
     34          1           0        3.027720    0.860690   -0.728920
     35          1           0        3.670560    0.960226    0.907530
     36          1           0        4.912894   -0.648183   -1.377980
     37          1           0        5.555798   -0.549599    0.257427
     38          1           0        5.872044    1.933245   -0.011181
     39          1           0        5.225486    1.834101   -1.655880
     40          1           0        6.760911    1.043787   -1.259416
 ---------------------------------------------------------------------

 SCF Done:  E(RHF) =  -470.733240532     A.U. after   11 cycles
 E2 =    -0.1583058909D+01 EUMP2 =    -0.47231629944163D+03

 The electronic state is 1-A.
 Alpha  occ. eigenvalues --  -11.21695 -11.21640 -11.21594 -11.21521 -11.21465
 Alpha  occ. eigenvalues --  -11.21403 -11.21387 -11.21327 -11.21150 -11.21100
 Alpha  occ. eigenvalues --  -11.21059 -11.21036  -1.08494  -1.08404  -1.03599
 Alpha  occ. eigenvalues --   -1.03495  -0.96044  -0.95953  -0.87068  -0.86963
 Alpha  occ. eigenvalues --   -0.79682  -0.79542  -0.78302  -0.78224  -0.65170
 Alpha  occ. eigenvalues --   -0.65008  -0.61045  -0.60870  -0.59452  -0.59275
 Alpha  occ. eigenvalues --   -0.57655  -0.57562  -0.55333  -0.55233  -0.52788
 Alpha  occ. eigenvalues --   -0.52634  -0.52472  -0.52369  -0.49992  -0.49881
 Alpha  occ. eigenvalues --   -0.48025  -0.47842  -0.46719  -0.46552  -0.45849
 Alpha  occ. eigenvalues --   -0.45783  -0.45736  -0.45672  -0.43810  -0.43746
 Alpha virt. eigenvalues --    0.20054   0.23163   0.23839   0.24730   0.26035
 Alpha virt. eigenvalues --    0.26253   0.27075   0.27380   0.28191   0.29256
 Alpha virt. eigenvalues --    0.30630   0.31259   0.31777   0.32142   0.32236

 Mulliken charges:
               1
     1  C   -0.300105
     2  C   -0.299421
     3  C   -0.475782
     4  H    0.149637
     5  H    0.150759
     6  H    0.151959
     7  H    0.151588
     8  H    0.155459
     9  H    0.155108
    10  H    0.160180
    11  C   -0.297658
    12  C   -0.307387
    13  C   -0.475128
    14  H    0.149415
    15  H    0.149075
    16  H    0.151370
    17  H    0.160363
    18  H    0.154566
    19  H    0.154908
    20  H    0.160275
    21  C   -0.298526
    22  C   -0.300562
    23  C   -0.481008
    24  H    0.149828
    25  H    0.149942
    26  H    0.152005
    27  H    0.152147
    28  H    0.155963
    29  H    0.155815
    30  H    0.164809
    31  C   -0.298340
    32  C   -0.299713
    33  C   -0.475748
    34  H    0.149444
    35  H    0.149787
    36  H    0.152025
    37  H    0.152052
    38  H    0.155261
    39  H    0.155231
    40  H    0.160407
 Sum of Mulliken charges =  -0.00000

 Dipole moment (field-independent basis, Debye):
    X=              0.0372    Y=             -0.0110    Z=              0.0213  Tot=              0.0442
 Quadrupole moment (field-independent basis, Debye-Ang):
   XX=            -84.0903   YY=            -86.3380   ZZ=            -84.3221
   XY=             -0.6880   XZ=              0.5163   YZ=             -0.2771

 Normal termination of Gaussian 16 at Wed May  5 23:09:36 2021.
