 Gaussian 16, Revision A.03,
 Gaussian 16:  EM64L-G16RevA.03 25-Dec-2016

 -------------
 #p 6-31g* mp2
 -------------

 ------------------------------------------------------
 Input file generated by CHIRIPA (05-May-2021 14:53:13)
 ------------------------------------------------------
 Symbolic Z-matrix:
 Charge =  0 Multiplicity = 1

                         Standard orientation:
 ---------------------------------------------------------------------
 Center     Atomic      Atomic             Coordinates (Angstroms)
 Number     Number       Type             X           Y           Z
 ---------------------------------------------------------------------
      1          6           0       -4.132516    0.397284   -0.424833
      2          6           0       -3.417043    1.723987   -0.168036
      3          6           0       -2.137670    1.874761   -0.991605
      4          1           0       -3.448105   -0.431254   -0.196689
      5          1           0       -4.372426    0.319081   -1.494282
      6          1           0       -3.179786    1.800283    0.900844
      7          1           0       -4.103301    2.549462   -0.396635
      8          1           0       -2.360613    1.824710   -2.062302
      9          1           0       -1.431851    1.071274   -0.757451
     10          1           0       -1.642314    2.830190   -0.792513
     11          6           0       -5.413284    0.231816    0.391244
     12          6           0       -6.128756   -1.094887    0.134447
     13          6           0       -7.408130   -1.245661    0.958016
     14          1           0       -5.173374    0.310019    1.460694
     15          1           0       -6.097695    1.060354    0.163100
     16          1           0       -5.442499   -1.920362    0.363046
     17          1           0       -6.366014   -1.171183   -0.934433
     18          1           0       -8.113949   -0.442174    0.723863
     19          1           0       -7.185187   -1.195610    2.028713
     20          1           0       -7.903486   -2.201090    0.758924
     21          6           0        6.068894    0.382408    0.716998
     22          6           0        5.809230   -0.895816    0.211784
     23          6           0        4.516494   -1.254803   -0.181295
     24          6           0        3.502599   -0.306469   -0.054927
     25          6           0        3.729652    0.974975    0.444709
     26          6           0        5.030107    1.312085    0.831645
     27          1           0        7.076121    0.652781    1.019965
     28          1           0        6.614016   -1.619857    0.121624
     29          1           0        4.287537   -2.237373   -0.575697
     30          1           0        2.906863    1.675223    0.522753
     31          1           0        5.228838    2.305502    1.223656
     32          7           0        2.129952   -0.674933   -0.467811
     33          8           0        1.254047    0.178713   -0.346492
     34          8           0        1.955966   -1.810403   -0.904930
 ---------------------------------------------------------------------

 SCF Done:  E(RHF) =  -669.536150952     A.U. after   15 cycles
 E2 =    -0.2090657265D+01 EUMP2 =    -0.67162680821772D+03

 The electronic state is 1-A.
 Alpha  occ. eigenvalues --  -20.60944 -20.60931 -15.85976 -11.31290 -11.27853
 Alpha  occ. eigenvalues --  -11.27848 -11.27591 -11.26860 -11.26850 -11.20909
 Alpha  occ. eigenvalues --  -11.20589 -11.20509 -11.20499 -11.20349 -11.19538
 Alpha  occ. eigenvalues --   -1.60003  -1.39559  -1.19458  -1.08864  -1.07522
 Alpha  occ. eigenvalues --   -1.04854  -1.02579  -0.95709  -0.95007  -0.86255
 Alpha  occ. eigenvalues --   -0.86020  -0.82541  -0.78666  -0.77593  -0.77308
 Alpha  occ. eigenvalues --   -0.72202  -0.71317  -0.70567  -0.65115  -0.64857
 Alpha  occ. eigenvalues --   -0.64155  -0.62200  -0.59969  -0.58432  -0.56624
 Alpha  occ. eigenvalues --   -0.55360  -0.54277  -0.53186  -0.52945  -0.51719
 Alpha  occ. eigenvalues --   -0.51425  -0.49138  -0.48950  -0.48740  -0.46953
 Alpha  occ. eigenvalues --   -0.45690  -0.44974  -0.44846  -0.44748  -0.42849
 Alpha  occ. eigenvalues --   -0.37438  -0.36455
 Alpha virt. eigenvalues --    0.04940   0.11201   0.16442   0.21329   0.23740
 Alpha virt. eigenvalues --    0.25302   0.27254   0.27549   0.28151   0.28406
 Alpha virt. eigenvalues --    0.29069   0.30907   0.32288   0.32499   0.32679

 Mulliken charges:
               1
     1  C   -0.298745
     2  C   -0.298489
     3  C   -0.485564
     4  H    0.155624
     5  H    0.147949
     6  H    0.148793
     7  H    0.145836
     8  H    0.149610
     9  H    0.185960
    10  H    0.151737
    11  C   -0.297549
    12  C   -0.299256
    13  C   -0.475198
    14  H    0.147903
    15  H    0.147046
    16  H    0.153065
    17  H    0.151227
    18  H    0.153758
    19  H    0.154112
    20  H    0.158616
    21  C   -0.170582
    22  C   -0.218634
    23  C   -0.170433
    24  C    0.157500
    25  C   -0.170860
    26  C   -0.218569
    27  H    0.225971
    28  H    0.223778
    29  H    0.275840
    30  H    0.276133
    31  H    0.223855
    32  N    0.492976
    33  O   -0.464083
    34  O   -0.459328
 Sum of Mulliken charges =  -0.00000

 Dipole moment (field-independent basis, Debye):
    X=              5.1814    Y=              1.1776    Z=              1.4496  Tot=              5.5078
 Quadrupole moment (field-independent basis, Debye-Ang):
   XX=            -62.7148   YY=            -91.8314   ZZ=            -95.2715
   XY=              1.3414   XZ=              5.4592   YZ=              0.8202

 Normal termination of Gaussian 16 at Wed May  5 15:30:32 2021.
