 Gaussian 16, Revision A.03,
 Gaussian 16:  EM64L-G16RevA.03 25-Dec-2016

 -------------
 #p 6-31g* mp2
 -------------

 ------------------------------------------------------
 Input file generated by CHIRIPA (05-May-2021 14:57:24)
 ------------------------------------------------------
 Symbolic Z-matrix:
 Charge =  0 Multiplicity = 1

                         Standard orientation:
 ---------------------------------------------------------------------
 Center     Atomic      Atomic             Coordinates (Angstroms)
 Number     Number       Type             X           Y           Z
 ---------------------------------------------------------------------
      1          6           0        1.887728   -0.583456    0.650211
      2          6           0        2.394215   -0.966491   -0.596094
      3          6           0        3.737569   -0.746377   -0.914678
      4          6           0        4.549846   -0.138072    0.041074
      5          6           0        4.074840    0.254865    1.291377
      6          6           0        2.728176    0.024927    1.588315
      7          1           0        0.842892   -0.758262    0.889287
      8          1           0        1.743832   -1.439169   -1.326590
      9          1           0        4.155808   -1.032931   -1.871956
     10          1           0        4.747617    0.723950    1.999012
     11          1           0        2.337571    0.323443    2.557006
     12          7           0        5.973748    0.100153   -0.284739
     13          8           0        6.668728    0.637846    0.574636
     14          8           0        6.367860   -0.255330   -1.393317
     15          6           0       -6.408220   -1.201608    0.194342
     16          6           0       -6.500319    0.184234    0.028564
     17          6           0       -5.347258    0.958226   -0.132477
     18          6           0       -4.112822    0.310645   -0.122722
     19          6           0       -3.988339   -1.068195    0.040351
     20          6           0       -5.154733   -1.822305    0.199696
     21          1           0       -7.309123   -1.795142    0.318784
     22          1           0       -7.472457    0.668972    0.023997
     23          1           0       -5.389686    2.032782   -0.262664
     24          1           0       -3.005188   -1.522983    0.040597
     25          1           0       -5.080181   -2.898391    0.328247
     26          7           0       -2.885071    1.119512   -0.292311
     27          8           0       -1.809414    0.524996   -0.280080
     28          8           0       -3.021663    2.332703   -0.434255
 ---------------------------------------------------------------------

 SCF Done:  E(RHF) =  -868.339227908     A.U. after   16 cycles
 E2 =    -0.2598347441D+01 EUMP2 =    -0.87093757534985D+03

 The electronic state is 1-A.
 Alpha  occ. eigenvalues --  -20.61744 -20.61669 -20.60094 -20.60089 -15.86757
 Alpha  occ. eigenvalues --  -15.85144 -11.31952 -11.30335 -11.28542 -11.28461
 Alpha  occ. eigenvalues --  -11.28180 -11.27480 -11.27437 -11.26919 -11.26908
 Alpha  occ. eigenvalues --  -11.26486 -11.25843 -11.25818  -1.60771  -1.59174
 Alpha  occ. eigenvalues --   -1.40336  -1.38733  -1.20101  -1.18489  -1.09520
 Alpha  occ. eigenvalues --   -1.07884  -1.05481  -1.03882  -0.96388  -0.94752
 Alpha  occ. eigenvalues --   -0.86885  -0.85272  -0.83234  -0.81606  -0.78307
 Alpha  occ. eigenvalues --   -0.76704  -0.72992  -0.72082  -0.71366  -0.71205
 Alpha  occ. eigenvalues --   -0.70496  -0.69516  -0.65757  -0.65476  -0.64133
 Alpha  occ. eigenvalues --   -0.63880  -0.62837  -0.61251  -0.55970  -0.54276
 Alpha  occ. eigenvalues --   -0.53813  -0.53570  -0.52198  -0.51972  -0.49745
 Alpha  occ. eigenvalues --   -0.49697  -0.48131  -0.48108  -0.45778  -0.44178
 Alpha  occ. eigenvalues --   -0.38059  -0.37076  -0.36393  -0.35497
 Alpha virt. eigenvalues --    0.04217   0.05851   0.10581   0.12176   0.15744
 Alpha virt. eigenvalues --    0.17402   0.20608   0.22308   0.26496   0.27259
 Alpha virt. eigenvalues --    0.28159   0.29126   0.30505   0.31393   0.32952

 Mulliken charges:
               1
     1  C   -0.166035
     2  C   -0.218131
     3  C   -0.171797
     4  C    0.157289
     5  C   -0.171453
     6  C   -0.219604
     7  H    0.235869
     8  H    0.222483
     9  H    0.272738
    10  H    0.272853
    11  H    0.221503
    12  N    0.488332
    13  O   -0.462717
    14  O   -0.462740
    15  C   -0.170104
    16  C   -0.218220
    17  C   -0.170406
    18  C    0.158493
    19  C   -0.170612
    20  C   -0.218084
    21  H    0.228113
    22  H    0.226048
    23  H    0.277345
    24  H    0.269552
    25  H    0.224716
    26  N    0.491578
    27  O   -0.472701
    28  O   -0.454309
 Sum of Mulliken charges =  -0.00000

 Dipole moment (field-independent basis, Debye):
    X=             -9.9001    Y=             -3.6285    Z=              1.7486  Tot=             10.6881
 Quadrupole moment (field-independent basis, Debye-Ang):
   XX=           -114.1919   YY=           -102.7964   ZZ=           -101.9191
   XY=              5.0373   XZ=              4.0024   YZ=              2.0781

 Normal termination of Gaussian 16 at Wed May  5 21:03:35 2021.
