 Gaussian 16, Revision A.03,
 Gaussian 16:  EM64L-G16RevA.03 25-Dec-2016

 -------------
 #p 6-31g* mp2
 -------------

 ------------------------------------------------------
 Input file generated by CHIRIPA (05-May-2021 14:51:08)
 ------------------------------------------------------
 Symbolic Z-matrix:
 Charge =  0 Multiplicity = 1

                         Standard orientation:
 ---------------------------------------------------------------------
 Center     Atomic      Atomic             Coordinates (Angstroms)
 Number     Number       Type             X           Y           Z
 ---------------------------------------------------------------------
      1          6           0        2.434146    1.072189   -0.564322
      2          6           0        2.247335    2.007892    0.630478
      3          6           0        1.683015    3.371566    0.230815
      4          1           0        3.103797    1.548281   -1.293601
      5          1           0        1.467801    0.936408   -1.069432
      6          1           0        3.213473    2.140768    1.134003
      7          1           0        1.578203    1.529436    1.357085
      8          1           0        0.707053    3.258090   -0.252115
      9          1           0        2.351614    3.872896   -0.476465
     10          1           0        1.557500    4.024539    1.100144
     11          6           0        2.997575   -0.294996   -0.180811
     12          6           0        3.184386   -1.230700   -1.375610
     13          6           0        3.748705   -2.594374   -0.975948
     14          1           0        3.963919   -0.159215    0.324300
     15          1           0        2.327924   -0.771089    0.548469
     16          1           0        3.853517   -0.752243   -2.102218
     17          1           0        2.218248   -1.363575   -1.879135
     18          1           0        3.080107   -3.095703   -0.268668
     19          1           0        4.724668   -2.480898   -0.493018
     20          1           0        3.874220   -3.247346   -1.845277
     21          6           0       -3.363139   -0.540089   -0.003614
     22          6           0       -3.674833    0.472365   -1.106234
     23          6           0       -4.972820    0.155812   -1.849752
     24          1           0       -3.299416   -1.544468   -0.444191
     25          1           0       -4.198792   -0.564017    0.709482
     26          1           0       -2.838228    0.495382   -1.816288
     27          1           0       -3.737632    1.474475   -0.663011
     28          1           0       -5.821792    0.152564   -1.158495
     29          1           0       -4.917277   -0.832093   -2.318324
     30          1           0       -5.176324    0.892100   -2.633542
     31          6           0       -2.068581   -0.237103    0.748747
     32          6           0       -1.756887   -1.249557    1.851367
     33          6           0       -0.458900   -0.933005    2.594885
     34          1           0       -1.232929   -0.213175    0.035650
     35          1           0       -2.132305    0.767275    1.189324
     36          1           0       -1.694088   -2.251668    1.408144
     37          1           0       -2.593493   -1.272574    2.561420
     38          1           0       -0.514443    0.054900    3.063456
     39          1           0        0.390071   -0.929756    1.903628
     40          1           0       -0.255396   -1.669293    3.378675
 ---------------------------------------------------------------------

 SCF Done:  E(RHF) =  -470.733231762     A.U. after   11 cycles
 E2 =    -0.1583808856D+01 EUMP2 =    -0.47231704061788D+03

 The electronic state is 1-A.
 Alpha  occ. eigenvalues --  -11.21681 -11.21653 -11.21623 -11.21523 -11.21483
 Alpha  occ. eigenvalues --  -11.21418 -11.21401 -11.21339 -11.21145 -11.21107
 Alpha  occ. eigenvalues --  -11.21088 -11.21018  -1.08507  -1.08418  -1.03598
 Alpha  occ. eigenvalues --   -1.03509  -0.96051  -0.95964  -0.87067  -0.86980
 Alpha  occ. eigenvalues --   -0.79669  -0.79572  -0.78331  -0.78221  -0.65239
 Alpha  occ. eigenvalues --   -0.64973  -0.60999  -0.60905  -0.59414  -0.59329
 Alpha  occ. eigenvalues --   -0.57673  -0.57568  -0.55416  -0.55191  -0.52736
 Alpha  occ. eigenvalues --   -0.52670  -0.52477  -0.52388  -0.50082  -0.49838
 Alpha  occ. eigenvalues --   -0.48043  -0.47877  -0.46778  -0.46573  -0.46010
 Alpha  occ. eigenvalues --   -0.45807  -0.45677  -0.45424  -0.43851  -0.43769
 Alpha virt. eigenvalues --    0.19694   0.23220   0.23979   0.24288   0.25471
 Alpha virt. eigenvalues --    0.25882   0.26743   0.27944   0.28774   0.29329
 Alpha virt. eigenvalues --    0.31031   0.31543   0.31792   0.31939   0.32308

 Mulliken charges:
               1
     1  C   -0.298972
     2  C   -0.303699
     3  C   -0.475875
     4  H    0.149725
     5  H    0.149859
     6  H    0.151487
     7  H    0.157175
     8  H    0.155655
     9  H    0.154784
    10  H    0.159857
    11  C   -0.306689
    12  C   -0.299022
    13  C   -0.475728
    14  H    0.150125
    15  H    0.156453
    16  H    0.152235
    17  H    0.151047
    18  H    0.154996
    19  H    0.155462
    20  H    0.160257
    21  C   -0.298309
    22  C   -0.299735
    23  C   -0.475753
    24  H    0.149803
    25  H    0.149940
    26  H    0.151647
    27  H    0.152145
    28  H    0.155323
    29  H    0.155269
    30  H    0.160496
    31  C   -0.300283
    32  C   -0.299325
    33  C   -0.485420
    34  H    0.150038
    35  H    0.150149
    36  H    0.151953
    37  H    0.152472
    38  H    0.156164
    39  H    0.163326
    40  H    0.160967
 Sum of Mulliken charges =  -0.00000

 Dipole moment (field-independent basis, Debye):
    X=             -0.0254    Y=             -0.0122    Z=              0.0234  Tot=              0.0367
 Quadrupole moment (field-independent basis, Debye-Ang):
   XX=            -84.5119   YY=            -85.4467   ZZ=            -84.6992
   XY=              0.3408   XZ=             -1.1025   YZ=              0.4047

 Normal termination of Gaussian 16 at Wed May  5 18:05:58 2021.
