 Gaussian 16, Revision A.03,
 Gaussian 16:  EM64L-G16RevA.03 25-Dec-2016

 -------------
 #p 6-31g* mp2
 -------------

 ------------------------------------------------------
 Input file generated by CHIRIPA (05-May-2021 14:51:08)
 ------------------------------------------------------
 Symbolic Z-matrix:
 Charge =  0 Multiplicity = 1

                         Standard orientation:
 ---------------------------------------------------------------------
 Center     Atomic      Atomic             Coordinates (Angstroms)
 Number     Number       Type             X           Y           Z
 ---------------------------------------------------------------------
      1          6           0       -3.064634   -0.410820   -0.445034
      2          6           0       -4.467380    0.033179   -0.028918
      3          6           0       -5.225365    0.732294   -1.157851
      4          1           0       -2.494899    0.465432   -0.783453
      5          1           0       -3.142337   -1.085728   -1.308665
      6          1           0       -4.387144    0.705954    0.834535
      7          1           0       -5.033780   -0.844204    0.308730
      8          1           0       -5.334902    0.065316   -2.019096
      9          1           0       -4.684592    1.624282   -1.490303
     10          1           0       -6.225618    1.041272   -0.838654
     11          6           0       -2.294375   -1.111318    0.672880
     12          6           0       -0.891629   -1.555318    0.256763
     13          6           0       -0.133644   -2.254433    1.385697
     14          1           0       -2.216673   -0.436410    1.536510
     15          1           0       -2.864111   -1.987571    1.011298
     16          1           0       -0.325230   -0.677935   -0.080885
     17          1           0       -0.971866   -2.228093   -0.606690
     18          1           0       -0.674418   -3.146420    1.718148
     19          1           0       -0.024107   -1.587454    2.246941
     20          1           0        0.866608   -2.563410    1.066499
     21          6           0        1.994240    1.058136    0.046066
     22          6           0        2.040042    2.553963    0.359735
     23          6           0        0.661464    3.133763    0.677776
     24          1           0        1.318700    0.888653   -0.803561
     25          1           0        1.559525    0.524167    0.902391
     26          1           0        2.475817    3.084798   -0.496380
     27          1           0        2.715700    2.719926    1.208591
     28          1           0        0.222660    2.630428    1.545362
     29          1           0       -0.018586    2.997373   -0.169296
     30          1           0        0.717425    4.204183    0.898976
     31          6           0        3.364769    0.464003   -0.273911
     32          6           0        3.318968   -1.031825   -0.587580
     33          6           0        4.697546   -1.611625   -0.905621
     34          1           0        3.799484    0.997971   -1.130236
     35          1           0        4.040310    0.633485    0.575716
     36          1           0        2.643309   -1.197787   -1.436436
     37          1           0        2.883192   -1.562659    0.268535
     38          1           0        5.377595   -1.475234   -0.058549
     39          1           0        5.136349   -1.108290   -1.773207
     40          1           0        4.641585   -2.682044   -1.126822
 ---------------------------------------------------------------------

 SCF Done:  E(RHF) =  -470.731820393     A.U. after   11 cycles
 E2 =    -0.1585110104D+01 EUMP2 =    -0.47231693049676D+03

 The electronic state is 1-A.
 Alpha  occ. eigenvalues --  -11.21669 -11.21613 -11.21554 -11.21451 -11.21392
 Alpha  occ. eigenvalues --  -11.21381 -11.21333 -11.21261 -11.21171 -11.21092
 Alpha  occ. eigenvalues --  -11.21037 -11.20994  -1.08515  -1.08329  -1.03588
 Alpha  occ. eigenvalues --   -1.03453  -0.96048  -0.95914  -0.87069  -0.86926
 Alpha  occ. eigenvalues --   -0.79703  -0.79494  -0.78457  -0.78041  -0.65145
 Alpha  occ. eigenvalues --   -0.64972  -0.61003  -0.60880  -0.59477  -0.59228
 Alpha  occ. eigenvalues --   -0.57668  -0.57520  -0.55354  -0.55191  -0.52764
 Alpha  occ. eigenvalues --   -0.52623  -0.52509  -0.52291  -0.49996  -0.49851
 Alpha  occ. eigenvalues --   -0.48153  -0.47712  -0.46730  -0.46666  -0.46074
 Alpha  occ. eigenvalues --   -0.45745  -0.45664  -0.45090  -0.43835  -0.43677
 Alpha virt. eigenvalues --    0.20907   0.22669   0.23712   0.24241   0.25052
 Alpha virt. eigenvalues --    0.26593   0.27020   0.27667   0.29040   0.29322
 Alpha virt. eigenvalues --    0.30277   0.31110   0.31546   0.31767   0.32178

 Mulliken charges:
               1
     1  C   -0.298346
     2  C   -0.299557
     3  C   -0.475664
     4  H    0.149249
     5  H    0.149185
     6  H    0.152078
     7  H    0.151842
     8  H    0.154978
     9  H    0.155037
    10  H    0.160136
    11  C   -0.297268
    12  C   -0.308866
    13  C   -0.480543
    14  H    0.148635
    15  H    0.148976
    16  H    0.164187
    17  H    0.150361
    18  H    0.154944
    19  H    0.152880
    20  H    0.164671
    21  C   -0.305602
    22  C   -0.298658
    23  C   -0.476604
    24  H    0.151640
    25  H    0.155635
    26  H    0.152139
    27  H    0.152192
    28  H    0.154805
    29  H    0.154788
    30  H    0.161088
    31  C   -0.297124
    32  C   -0.306284
    33  C   -0.475283
    34  H    0.149506
    35  H    0.149595
    36  H    0.152605
    37  H    0.157976
    38  H    0.155183
    39  H    0.155230
    40  H    0.160255
 Sum of Mulliken charges =  -0.00000

 Dipole moment (field-independent basis, Debye):
    X=              0.0718    Y=              0.0358    Z=             -0.0111  Tot=              0.0809
 Quadrupole moment (field-independent basis, Debye-Ang):
   XX=            -86.0206   YY=            -84.5784   ZZ=            -84.3287
   XY=              1.1523   XZ=              0.0369   YZ=              0.3440

 Normal termination of Gaussian 16 at Thu May  6 02:06:20 2021.
