 Gaussian 16, Revision A.03,
 Gaussian 16:  EM64L-G16RevA.03 25-Dec-2016

 -------------
 #p 6-31g* mp2
 -------------

 ------------------------------------------------------
 Input file generated by CHIRIPA (05-May-2021 14:57:21)
 ------------------------------------------------------
 Symbolic Z-matrix:
 Charge =  0 Multiplicity = 1

                         Standard orientation:
 ---------------------------------------------------------------------
 Center     Atomic      Atomic             Coordinates (Angstroms)
 Number     Number       Type             X           Y           Z
 ---------------------------------------------------------------------
      1          6           0        2.273921   -2.198181    0.765304
      2          6           0        2.982814   -1.940442   -0.412645
      3          6           0        3.294357   -0.628312   -0.781161
      4          6           0        2.879647    0.406729    0.055496
      5          6           0        2.172034    0.182150    1.235385
      6          6           0        1.871503   -1.137932    1.584115
      7          1           0        2.036184   -3.220564    1.043891
      8          1           0        3.296610   -2.761874   -1.050473
      9          1           0        3.841989   -0.400355   -1.687557
     10          1           0        1.872647    1.021764    1.850880
     11          1           0        1.320845   -1.335117    2.499505
     12          7           0        3.203634    1.800031   -0.324163
     13          8           0        2.826943    2.694369    0.430092
     14          8           0        3.828132    1.971381   -1.368806
     15          6           0       -4.256660    1.850569    0.338471
     16          6           0       -4.172088    1.330982   -0.957445
     17          6           0       -3.382614    0.207908   -1.221993
     18          6           0       -2.687963   -0.373123   -0.162205
     19          6           0       -2.751864    0.121125    1.139688
     20          6           0       -3.547527    1.245049    1.381064
     21          1           0       -4.872346    2.723329    0.534977
     22          1           0       -4.721712    1.799177   -1.769081
     23          1           0       -3.299179   -0.215012   -2.215771
     24          1           0       -2.192401   -0.367290    1.928275
     25          1           0       -3.611323    1.646401    2.388482
     26          7           0       -1.848906   -1.562520   -0.430003
     27          8           0       -1.246687   -2.056094    0.520973
     28          8           0       -1.809360   -1.978676   -1.585810
 ---------------------------------------------------------------------

 SCF Done:  E(RHF) =  -868.339118463     A.U. after   16 cycles
 E2 =    -0.2600160078D+01 EUMP2 =    -0.87093927854090D+03

 The electronic state is 1-A.
 Alpha  occ. eigenvalues --  -20.61282 -20.61273 -20.60221 -20.60210 -15.86300
 Alpha  occ. eigenvalues --  -15.85264 -11.31491 -11.30352 -11.28079 -11.28004
 Alpha  occ. eigenvalues --  -11.27717 -11.27019 -11.26977 -11.26914 -11.26887
 Alpha  occ. eigenvalues --  -11.26459 -11.25807 -11.25784  -1.60332  -1.59301
 Alpha  occ. eigenvalues --   -1.39899  -1.38863  -1.19636  -1.18483  -1.09061
 Alpha  occ. eigenvalues --   -1.07889  -1.05019  -1.03863  -0.95936  -0.94785
 Alpha  occ. eigenvalues --   -0.86425  -0.85254  -0.82784  -0.81651  -0.77859
 Alpha  occ. eigenvalues --   -0.76761  -0.72566  -0.71634  -0.71488  -0.70748
 Alpha  occ. eigenvalues --   -0.70623  -0.69537  -0.65300  -0.65023  -0.64127
 Alpha  occ. eigenvalues --   -0.63855  -0.62382  -0.61243  -0.55514  -0.54277
 Alpha  occ. eigenvalues --   -0.53345  -0.53115  -0.52179  -0.51959  -0.49324
 Alpha  occ. eigenvalues --   -0.49270  -0.48260  -0.48217  -0.45346  -0.44333
 Alpha  occ. eigenvalues --   -0.37596  -0.36612  -0.36290  -0.35438
 Alpha virt. eigenvalues --    0.04663   0.05791   0.11047   0.12234   0.16241
 Alpha virt. eigenvalues --    0.17384   0.21024   0.22315   0.26708   0.27570
 Alpha virt. eigenvalues --    0.28673   0.29252   0.30672   0.31619   0.32747

 Mulliken charges:
               1
     1  C   -0.155814
     2  C   -0.218452
     3  C   -0.172013
     4  C    0.156557
     5  C   -0.178063
     6  C   -0.207301
     7  H    0.229821
     8  H    0.222822
     9  H    0.272590
    10  H    0.268294
    11  H    0.219968
    12  N    0.488316
    13  O   -0.465515
    14  O   -0.462478
    15  C   -0.169399
    16  C   -0.217684
    17  C   -0.169979
    18  C    0.159703
    19  C   -0.170255
    20  C   -0.217354
    21  H    0.227697
    22  H    0.225423
    23  H    0.276316
    24  H    0.269119
    25  H    0.223962
    26  N    0.490332
    27  O   -0.467781
    28  O   -0.458835
 Sum of Mulliken charges =  -0.00000

 Dipole moment (field-independent basis, Debye):
    X=             -4.3752    Y=             -0.9438    Z=              2.2118  Tot=              4.9925
 Quadrupole moment (field-independent basis, Debye-Ang):
   XX=            -95.5870   YY=           -112.3455   ZZ=            -97.2601
   XY=            -27.0759   XZ=              1.1657   YZ=              0.5062

 Normal termination of Gaussian 16 at Thu May  6 08:03:31 2021.
