 Gaussian 16, Revision A.03,
 Gaussian 16:  EM64L-G16RevA.03 25-Dec-2016

 -------------
 #p 6-31g* mp2
 -------------

 ------------------------------------------------------
 Input file generated by CHIRIPA (05-May-2021 14:57:24)
 ------------------------------------------------------
 Symbolic Z-matrix:
 Charge =  0 Multiplicity = 1

                         Standard orientation:
 ---------------------------------------------------------------------
 Center     Atomic      Atomic             Coordinates (Angstroms)
 Number     Number       Type             X           Y           Z
 ---------------------------------------------------------------------
      1          6           0       -1.903321   -2.100402   -0.153060
      2          6           0       -3.089278   -2.123724   -0.894332
      3          6           0       -4.005988   -1.072347   -0.800538
      4          6           0       -3.703396   -0.008622    0.048118
      5          6           0       -2.530367    0.043610    0.799493
      6          6           0       -1.628136   -1.018716    0.690000
      7          1           0       -1.196822   -2.921390   -0.232019
      8          1           0       -3.305618   -2.962481   -1.549868
      9          1           0       -4.931677   -1.064817   -1.363087
     10          1           0       -2.342403    0.893355    1.444490
     11          1           0       -0.707899   -0.997922    1.266868
     12          7           0       -4.666212    1.110220    0.155723
     13          8           0       -4.376247    2.035857    0.910544
     14          8           0       -5.692602    1.040346   -0.516794
     15          6           0        3.614165   -2.297784    0.365840
     16          6           0        4.801586   -1.589086    0.155365
     17          6           0        4.775060   -0.208794   -0.065173
     18          6           0        3.537998    0.433822   -0.068688
     19          6           0        2.337767   -0.244448    0.137914
     20          6           0        2.388206   -1.624391    0.356460
     21          1           0        3.644059   -3.369893    0.536384
     22          1           0        5.755125   -2.109435    0.162111
     23          1           0        5.679167    0.364408   -0.230849
     24          1           0        1.402445    0.301845    0.125508
     25          1           0        1.464451   -2.172201    0.519631
     26          7           0        3.497258    1.894891   -0.301107
     27          8           0        2.394562    2.437748   -0.299407
     28          8           0        4.568795    2.469554   -0.480576
 ---------------------------------------------------------------------

 SCF Done:  E(RHF) =  -868.335963782     A.U. after   16 cycles
 E2 =    -0.2600919628D+01 EUMP2 =    -0.87093688340932D+03

 The electronic state is 1-A.
 Alpha  occ. eigenvalues --  -20.61236 -20.61231 -20.60983 -20.60972 -15.86299
 Alpha  occ. eigenvalues --  -15.86043 -11.31842 -11.31613 -11.28504 -11.28412
 Alpha  occ. eigenvalues --  -11.28252 -11.28251 -11.28220 -11.28150 -11.27641
 Alpha  occ. eigenvalues --  -11.27439 -11.27418 -11.27279  -1.60309  -1.60051
 Alpha  occ. eigenvalues --   -1.39858  -1.39598  -1.20053  -1.19843  -1.09413
 Alpha  occ. eigenvalues --   -1.09225  -1.05517  -1.05274  -0.96211  -0.96011
 Alpha  occ. eigenvalues --   -0.86896  -0.86696  -0.83065  -0.82836  -0.78114
 Alpha  occ. eigenvalues --   -0.77791  -0.72512  -0.72262  -0.71637  -0.71375
 Alpha  occ. eigenvalues --   -0.71160  -0.71007  -0.65763  -0.65646  -0.65474
 Alpha  occ. eigenvalues --   -0.65272  -0.62989  -0.62440  -0.55985  -0.55866
 Alpha  occ. eigenvalues --   -0.53801  -0.53632  -0.53569  -0.53378  -0.49287
 Alpha  occ. eigenvalues --   -0.49257  -0.49039  -0.48997  -0.45224  -0.44957
 Alpha  occ. eigenvalues --   -0.38031  -0.37867  -0.37105  -0.36871
 Alpha virt. eigenvalues --    0.04477   0.04720   0.10542   0.10657   0.15855
 Alpha virt. eigenvalues --    0.16078   0.17933   0.22214   0.24864   0.25676
 Alpha virt. eigenvalues --    0.28055   0.29012   0.30309   0.30996   0.32113

 Mulliken charges:
               1
     1  C   -0.171047
     2  C   -0.217989
     3  C   -0.168718
     4  C    0.159344
     5  C   -0.167850
     6  C   -0.225773
     7  H    0.219229
     8  H    0.225001
     9  H    0.278112
    10  H    0.280941
    11  H    0.218382
    12  N    0.488017
    13  O   -0.456814
    14  O   -0.459195
    15  C   -0.170397
    16  C   -0.218375
    17  C   -0.169035
    18  C    0.159579
    19  C   -0.173077
    20  C   -0.221604
    21  H    0.226343
    22  H    0.226043
    23  H    0.278347
    24  H    0.275504
    25  H    0.213572
    26  N    0.488052
    27  O   -0.458502
    28  O   -0.458091
 Sum of Mulliken charges =  -0.00000

 Dipole moment (field-independent basis, Debye):
    X=              3.4936    Y=             -8.8874    Z=              0.3584  Tot=              9.5561
 Quadrupole moment (field-independent basis, Debye-Ang):
   XX=           -120.3530   YY=           -109.3810   ZZ=           -104.1426
   XY=             -2.0620   XZ=              6.2805   YZ=              2.4293

 Normal termination of Gaussian 16 at Thu May  6 21:15:30 2021.
