 Gaussian 16, Revision A.03,
 Gaussian 16:  EM64L-G16RevA.03 25-Dec-2016

 -------------
 #p 6-31g* mp2
 -------------

 ------------------------------------------------------
 Input file generated by CHIRIPA (05-May-2021 14:55:19)
 ------------------------------------------------------
 Symbolic Z-matrix:
 Charge =  0 Multiplicity = 1

                         Standard orientation:
 ---------------------------------------------------------------------
 Center     Atomic      Atomic             Coordinates (Angstroms)
 Number     Number       Type             X           Y           Z
 ---------------------------------------------------------------------
      1          6           0        2.461030    2.195699   -0.113683
      2          6           0        3.796331    1.997587    0.252708
      3          6           0        4.338047    0.709366    0.292464
      4          6           0        3.512251   -0.362828   -0.041826
      5          6           0        2.178131   -0.197831   -0.410863
      6          6           0        1.657608    1.099290   -0.443718
      7          1           0        2.048444    3.199877   -0.141886
      8          1           0        4.422622    2.847205    0.509524
      9          1           0        5.368504    0.527417    0.572590
     10          1           0        1.578495   -1.064444   -0.661540
     11          1           0        0.620251    1.250152   -0.728632
     12          7           0        4.074523   -1.731321   -0.003391
     13          8           0        3.326157   -2.659318   -0.302401
     14          8           0        5.252951   -1.850036    0.325015
     15          6           0       -4.970070   -0.219079   -0.213868
     16          6           0       -5.177655   -1.565259    0.480893
     17          6           0       -6.367724   -2.343361   -0.081324
     18          1           0       -5.883728    0.382722   -0.113819
     19          1           0       -4.823488   -0.388296   -1.289635
     20          1           0       -5.322424   -1.393658    1.555236
     21          1           0       -4.263329   -2.163851    0.379344
     22          1           0       -6.227549   -2.543672   -1.148483
     23          1           0       -7.292661   -1.769104    0.034091
     24          1           0       -6.497848   -3.302436    0.429657
     25          6           0       -3.784060    0.570526    0.337159
     26          6           0       -3.576474    1.916706   -0.357602
     27          6           0       -2.386406    2.694808    0.204615
     28          1           0       -3.930642    0.739744    1.412926
     29          1           0       -2.870402   -0.031274    0.237110
     30          1           0       -4.490801    2.515298   -0.256052
     31          1           0       -3.431706    1.745106   -1.431945
     32          1           0       -1.461468    2.120551    0.089200
     33          1           0       -2.526581    2.895119    1.271774
     34          1           0       -2.256281    3.653884   -0.306365
 ---------------------------------------------------------------------

 SCF Done:  E(RHF) =  -669.535495336     A.U. after   15 cycles
 E2 =    -0.2090820416D+01 EUMP2 =    -0.67162631575212D+03

 The electronic state is 1-A.
 Alpha  occ. eigenvalues --  -20.60752 -20.60747 -15.85806 -11.31168 -11.27743
 Alpha  occ. eigenvalues --  -11.27739 -11.27474 -11.26749 -11.26733 -11.22365
 Alpha  occ. eigenvalues --  -11.22101 -11.22000 -11.21922 -11.21813 -11.21307
 Alpha  occ. eigenvalues --   -1.59827  -1.39381  -1.19342  -1.08986  -1.08735
 Alpha  occ. eigenvalues --   -1.04748  -1.04104  -0.96570  -0.95570  -0.87592
 Alpha  occ. eigenvalues --   -0.86145  -0.82405  -0.80175  -0.78758  -0.77455
 Alpha  occ. eigenvalues --   -0.72024  -0.71150  -0.70444  -0.65637  -0.64994
 Alpha  occ. eigenvalues --   -0.64768  -0.62145  -0.61469  -0.59952  -0.58153
 Alpha  occ. eigenvalues --   -0.55889  -0.55231  -0.53272  -0.53102  -0.53039
 Alpha  occ. eigenvalues --   -0.52763  -0.50505  -0.48786  -0.48779  -0.48474
 Alpha  occ. eigenvalues --   -0.47199  -0.46308  -0.46210  -0.44787  -0.44344
 Alpha  occ. eigenvalues --   -0.37317  -0.36349
 Alpha virt. eigenvalues --    0.05086   0.11248   0.16563   0.19699   0.22602
 Alpha virt. eigenvalues --    0.23759   0.25487   0.26527   0.27151   0.28223
 Alpha virt. eigenvalues --    0.28731   0.30053   0.31046   0.31612   0.32003

 Mulliken charges:
               1
     1  C   -0.172259
     2  C   -0.218657
     3  C   -0.170978
     4  C    0.158770
     5  C   -0.171943
     6  C   -0.223573
     7  H    0.226431
     8  H    0.223421
     9  H    0.275569
    10  H    0.275479
    11  H    0.230899
    12  N    0.488038
    13  O   -0.460574
    14  O   -0.460477
    15  C   -0.298827
    16  C   -0.300256
    17  C   -0.476091
    18  H    0.150794
    19  H    0.149909
    20  H    0.152801
    21  H    0.153074
    22  H    0.155739
    23  H    0.155370
    24  H    0.162164
    25  C   -0.297849
    26  C   -0.300082
    27  C   -0.480328
    28  H    0.151795
    29  H    0.146428
    30  H    0.155652
    31  H    0.151821
    32  H    0.146837
    33  H    0.160354
    34  H    0.160546
 Sum of Mulliken charges =  -0.00000

 Dipole moment (field-independent basis, Debye):
    X=             -2.1527    Y=              4.8266    Z=             -0.0984  Tot=              5.2858
 Quadrupole moment (field-independent basis, Debye-Ang):
   XX=           -104.3730   YY=            -98.2539   ZZ=            -94.7750
   XY=             18.8972   XZ=              0.3229   YZ=              0.6409

 Normal termination of Gaussian 16 at Thu May  6 14:04:48 2021.
