 Gaussian 16, Revision A.03,
 Gaussian 16:  EM64L-G16RevA.03 25-Dec-2016

 -------------
 #p 6-31g* mp2
 -------------

 ------------------------------------------------------
 Input file generated by CHIRIPA (05-May-2021 14:55:24)
 ------------------------------------------------------
 Symbolic Z-matrix:
 Charge =  0 Multiplicity = 1

                         Standard orientation:
 ---------------------------------------------------------------------
 Center     Atomic      Atomic             Coordinates (Angstroms)
 Number     Number       Type             X           Y           Z
 ---------------------------------------------------------------------
      1          6           0        5.908769    0.649692    0.367246
      2          6           0        5.523548   -0.648758    0.017742
      3          6           0        4.187777   -0.938152   -0.276397
      4          6           0        3.259347    0.099646   -0.210943
      5          6           0        3.612061    1.403421    0.134097
      6          6           0        4.953480    1.669839    0.424208
      7          1           0        6.948621    0.865575    0.594175
      8          1           0        6.263278   -1.442997   -0.027301
      9          1           0        3.862118   -1.934458   -0.549777
     10          1           0        2.851907    2.174302    0.170518
     11          1           0        5.249772    2.679166    0.695343
     12          7           0        1.842237   -0.194560   -0.520203
     13          8           0        1.043498    0.737347   -0.455379
     14          8           0        1.557077   -1.351496   -0.821568
     15          6           0       -3.923862   -0.688046    0.015754
     16          6           0       -2.775861   -0.739784    1.024417
     17          6           0       -1.689253   -1.741506    0.632459
     18          1           0       -4.364265   -1.689895   -0.080622
     19          1           0       -3.522355   -0.426660   -0.973118
     20          1           0       -3.179601   -0.999639    2.011375
     21          1           0       -2.338262    0.262345    1.118545
     22          1           0       -1.259115   -1.482276   -0.340364
     23          1           0       -2.105235   -2.751431    0.557539
     24          1           0       -0.878393   -1.762231    1.367262
     25          6           0       -5.017973    0.308822    0.393779
     26          6           0       -6.165973    0.360560   -0.614885
     27          6           0       -7.252580    1.362283   -0.222926
     28          1           0       -5.419478    0.047436    1.382650
     29          1           0       -4.577568    1.310671    0.490154
     30          1           0       -6.603571   -0.641569   -0.709012
     31          1           0       -5.762232    0.620416   -1.601842
     32          1           0       -6.836598    2.372207   -0.148007
     33          1           0       -7.682718    1.103052    0.749895
     34          1           0       -8.063440    1.383007   -0.957730
 ---------------------------------------------------------------------

 SCF Done:  E(RHF) =  -669.536284601     A.U. after   15 cycles
 E2 =    -0.2091532167D+01 EUMP2 =    -0.67162781676837D+03

 The electronic state is 1-A.
 Alpha  occ. eigenvalues --  -20.61007 -20.60994 -15.86009 -11.31326 -11.27883
 Alpha  occ. eigenvalues --  -11.27879 -11.27618 -11.26886 -11.26877 -11.20798
 Alpha  occ. eigenvalues --  -11.20421 -11.20399 -11.20131 -11.20038 -11.19044
 Alpha  occ. eigenvalues --   -1.60045  -1.39602  -1.19489  -1.08896  -1.07290
 Alpha  occ. eigenvalues --   -1.04882  -1.02299  -0.95743  -0.94731  -0.86284
 Alpha  occ. eigenvalues --   -0.85749  -0.82573  -0.78421  -0.77629  -0.77050
 Alpha  occ. eigenvalues --   -0.72222  -0.71354  -0.70597  -0.65143  -0.64887
 Alpha  occ. eigenvalues --   -0.63922  -0.62229  -0.59687  -0.58204  -0.56346
 Alpha  occ. eigenvalues --   -0.55396  -0.54023  -0.53214  -0.52974  -0.51445
 Alpha  occ. eigenvalues --   -0.51179  -0.49253  -0.48986  -0.48375  -0.46697
 Alpha  occ. eigenvalues --   -0.45441  -0.45014  -0.44588  -0.44434  -0.42565
 Alpha  occ. eigenvalues --   -0.37466  -0.36482
 Alpha virt. eigenvalues --    0.04894   0.11173   0.16397   0.21312   0.23934
 Alpha virt. eigenvalues --    0.25595   0.27231   0.27761   0.28206   0.28573
 Alpha virt. eigenvalues --    0.29313   0.30898   0.32415   0.32669   0.32781

 Mulliken charges:
               1
     1  C   -0.170529
     2  C   -0.218574
     3  C   -0.170781
     4  C    0.159075
     5  C   -0.170807
     6  C   -0.218587
     7  H    0.226102
     8  H    0.223968
     9  H    0.276082
    10  H    0.275777
    11  H    0.223911
    12  N    0.488591
    13  O   -0.460452
    14  O   -0.457534
    15  C   -0.298021
    16  C   -0.299953
    17  C   -0.474895
    18  H    0.145732
    19  H    0.152899
    20  H    0.142708
    21  H    0.155709
    22  H    0.181637
    23  H    0.143262
    24  H    0.152360
    25  C   -0.297379
    26  C   -0.298889
    27  C   -0.475038
    28  H    0.146433
    29  H    0.149196
    30  H    0.150364
    31  H    0.151939
    32  H    0.154238
    33  H    0.153630
    34  H    0.157824
 Sum of Mulliken charges =  -0.00000

 Dipole moment (field-independent basis, Debye):
    X=              5.4228    Y=              1.0847    Z=              0.9411  Tot=              5.6097
 Quadrupole moment (field-independent basis, Debye-Ang):
   XX=            -64.4181   YY=            -90.1949   ZZ=            -95.9686
   XY=              3.4411   XZ=              2.5905   YZ=              0.6245

 Normal termination of Gaussian 16 at Wed May  5 22:25:51 2021.
