 Gaussian 16, Revision A.03,
 Gaussian 16:  EM64L-G16RevA.03 25-Dec-2016

 -------------
 #p 6-31g* mp2
 -------------

 ------------------------------------------------------
 Input file generated by CHIRIPA (05-May-2021 14:51:12)
 ------------------------------------------------------
 Symbolic Z-matrix:
 Charge =  0 Multiplicity = 1

                         Standard orientation:
 ---------------------------------------------------------------------
 Center     Atomic      Atomic             Coordinates (Angstroms)
 Number     Number       Type             X           Y           Z
 ---------------------------------------------------------------------
      1          6           0       -2.586259    0.602031    0.041984
      2          6           0       -3.858545    1.067928    0.750654
      3          6           0       -3.639929    2.326123    1.591456
      4          1           0       -1.805173    0.413038    0.791071
      5          1           0       -2.214390    1.412873   -0.599611
      6          1           0       -4.228672    0.255960    1.389660
      7          1           0       -4.636752    1.255650   -0.000193
      8          1           0       -3.292896    3.153357    0.963878
      9          1           0       -2.882497    2.147987    2.361628
     10          1           0       -4.562200    2.641629    2.089183
     11          6           0       -2.788804   -0.654755   -0.802524
     12          6           0       -1.516519   -1.120653   -1.511194
     13          6           0       -1.735135   -2.378848   -2.351996
     14          1           0       -3.160674   -1.465597   -0.160929
     15          1           0       -3.569890   -0.465763   -1.551611
     16          1           0       -0.738312   -1.308375   -0.760347
     17          1           0       -1.146391   -0.308685   -2.150200
     18          1           0       -2.492566   -2.200712   -3.122168
     19          1           0       -2.082168   -3.206082   -1.724418
     20          1           0       -0.812864   -2.694353   -2.849723
     21          6           0        2.539637   -0.199518    1.094789
     22          6           0        2.067408   -1.650928    1.186420
     23          6           0        1.775550   -2.088097    2.622211
     24          1           0        3.442476   -0.074934    1.708227
     25          1           0        1.773007    0.456357    1.530105
     26          1           0        2.834093   -2.303752    0.749808
     27          1           0        1.165699   -1.772117    0.572540
     28          1           0        0.994760   -1.461040    3.064664
     29          1           0        2.672634   -1.995696    3.242939
     30          1           0        1.439428   -3.128815    2.664531
     31          6           0        2.835427    0.252243   -0.334249
     32          6           0        3.307656    1.703653   -0.425880
     33          6           0        3.599514    2.140822   -1.861671
     34          1           0        3.602056   -0.403633   -0.769564
     35          1           0        1.932588    0.127659   -0.947686
     36          1           0        4.209365    1.824842    0.188000
     37          1           0        2.540971    2.356477    0.010733
     38          1           0        2.702429    2.048420   -2.482398
     39          1           0        4.380304    1.513765   -2.304124
     40          1           0        3.935635    3.181539   -1.903991
 ---------------------------------------------------------------------

 SCF Done:  E(RHF) =  -470.733389838     A.U. after   11 cycles
 E2 =    -0.1583379540D+01 EUMP2 =    -0.47231676937839D+03

 The electronic state is 1-A.
 Alpha  occ. eigenvalues --  -11.21666 -11.21653 -11.21608 -11.21575 -11.21473
 Alpha  occ. eigenvalues --  -11.21413 -11.21388 -11.21318 -11.21116 -11.21115
 Alpha  occ. eigenvalues --  -11.21103 -11.21054  -1.08499  -1.08415  -1.03590
 Alpha  occ. eigenvalues --   -1.03525  -0.96031  -0.95975  -0.87048  -0.86992
 Alpha  occ. eigenvalues --   -0.79686  -0.79569  -0.78356  -0.78183  -0.65221
 Alpha  occ. eigenvalues --   -0.64969  -0.61084  -0.60839  -0.59411  -0.59332
 Alpha  occ. eigenvalues --   -0.57643  -0.57585  -0.55321  -0.55260  -0.52726
 Alpha  occ. eigenvalues --   -0.52673  -0.52456  -0.52401  -0.50009  -0.49898
 Alpha  occ. eigenvalues --   -0.48068  -0.47885  -0.46909  -0.46470  -0.46073
 Alpha  occ. eigenvalues --   -0.45783  -0.45721  -0.45334  -0.43840  -0.43775
 Alpha virt. eigenvalues --    0.20159   0.23417   0.23828   0.24005   0.25654
 Alpha virt. eigenvalues --    0.26684   0.26965   0.27907   0.28110   0.29682
 Alpha virt. eigenvalues --    0.30317   0.31599   0.31799   0.31877   0.31936

 Mulliken charges:
               1
     1  C   -0.298620
     2  C   -0.299711
     3  C   -0.475752
     4  H    0.148944
     5  H    0.149465
     6  H    0.152197
     7  H    0.152227
     8  H    0.155222
     9  H    0.155049
    10  H    0.160548
    11  C   -0.297578
    12  C   -0.310832
    13  C   -0.475245
    14  H    0.149779
    15  H    0.150053
    16  H    0.161356
    17  H    0.151943
    18  H    0.155445
    19  H    0.155285
    20  H    0.160811
    21  C   -0.297740
    22  C   -0.308712
    23  C   -0.475133
    24  H    0.149679
    25  H    0.149422
    26  H    0.152285
    27  H    0.159475
    28  H    0.154422
    29  H    0.155549
    30  H    0.160128
    31  C   -0.300936
    32  C   -0.299654
    33  C   -0.475640
    34  H    0.149163
    35  H    0.152879
    36  H    0.151761
    37  H    0.152190
    38  H    0.155045
    39  H    0.155093
    40  H    0.160138
 Sum of Mulliken charges =  -0.00000

 Dipole moment (field-independent basis, Debye):
    X=             -0.0240    Y=             -0.0093    Z=             -0.0132  Tot=              0.0289
 Quadrupole moment (field-independent basis, Debye-Ang):
   XX=            -83.7999   YY=            -85.3681   ZZ=            -85.5171
   XY=             -0.5704   XZ=              0.5546   YZ=             -0.6105

 Normal termination of Gaussian 16 at Wed May  5 21:30:44 2021.
