 Gaussian 16, Revision A.03,
 Gaussian 16:  EM64L-G16RevA.03 25-Dec-2016

 -------------
 #p 6-31g* mp2
 -------------

 ------------------------------------------------------
 Input file generated by CHIRIPA (05-May-2021 14:51:12)
 ------------------------------------------------------
 Symbolic Z-matrix:
 Charge =  0 Multiplicity = 1

                         Standard orientation:
 ---------------------------------------------------------------------
 Center     Atomic      Atomic             Coordinates (Angstroms)
 Number     Number       Type             X           Y           Z
 ---------------------------------------------------------------------
      1          6           0       -5.062389   -0.071720   -0.195799
      2          6           0       -5.480312   -1.436824    0.351756
      3          6           0       -6.997227   -1.586511    0.471574
      4          1           0       -5.459427    0.716063    0.458956
      5          1           0       -5.525477    0.077812   -1.180981
      6          1           0       -5.015460   -1.584321    1.335003
      7          1           0       -5.082071   -2.221455   -0.304272
      8          1           0       -7.474689   -1.465621   -0.506188
      9          1           0       -7.407700   -0.824866    1.142402
     10          1           0       -7.273797   -2.569685    0.864941
     11          6           0       -3.548854    0.093117   -0.321367
     12          6           0       -3.130931    1.458221   -0.868921
     13          6           0       -1.614016    1.607909   -0.988739
     14          1           0       -3.085766   -0.056415    0.663816
     15          1           0       -3.151816   -0.694665   -0.976122
     16          1           0       -3.529172    2.242853   -0.212893
     17          1           0       -3.595783    1.605718   -1.852168
     18          1           0       -1.203543    0.846264   -1.659567
     19          1           0       -1.136554    1.487018   -0.010978
     20          1           0       -1.337446    2.591083   -1.382106
     21          6           0        4.976227   -0.047565   -0.105231
     22          6           0        5.606984   -1.440113   -0.074531
     23          6           0        6.948129   -1.497873   -0.806506
     24          1           0        4.838974    0.262880   -1.150090
     25          1           0        5.672584    0.672782    0.345970
     26          1           0        4.909070   -2.157849   -0.524403
     27          1           0        5.742576   -1.747358    0.970376
     28          1           0        7.664044   -0.803953   -0.354244
     29          1           0        6.825803   -1.216777   -1.857517
     30          1           0        7.381292   -2.502389   -0.772186
     31          6           0        3.635015    0.026168    0.622396
     32          6           0        3.004259    1.418715    0.591696
     33          6           0        1.663114    1.476476    1.323672
     34          1           0        2.938658   -0.694179    0.171195
     35          1           0        3.772268   -0.284277    1.667255
     36          1           0        2.868667    1.725961   -0.453212
     37          1           0        3.702173    2.136452    1.041568
     38          1           0        1.785440    1.195379    2.374682
     39          1           0        0.947199    0.782555    0.871409
     40          1           0        1.229951    2.480991    1.289351
 ---------------------------------------------------------------------

 SCF Done:  E(RHF) =  -470.732974840     A.U. after   11 cycles
 E2 =    -0.1582370554D+01 EUMP2 =    -0.47231534539315D+03

 The electronic state is 1-A.
 Alpha  occ. eigenvalues --  -11.21590 -11.21586 -11.21563 -11.21562 -11.21388
 Alpha  occ. eigenvalues --  -11.21380 -11.21329 -11.21321 -11.21062 -11.21059
 Alpha  occ. eigenvalues --  -11.21009 -11.20981  -1.08413  -1.08400  -1.03528
 Alpha  occ. eigenvalues --   -1.03478  -0.96010  -0.95902  -0.87059  -0.86891
 Alpha  occ. eigenvalues --   -0.79644  -0.79497  -0.78236  -0.78203  -0.65065
 Alpha  occ. eigenvalues --   -0.65012  -0.61011  -0.60811  -0.59339  -0.59306
 Alpha  occ. eigenvalues --   -0.57615  -0.57527  -0.55446  -0.55073  -0.52725
 Alpha  occ. eigenvalues --   -0.52615  -0.52457  -0.52268  -0.50104  -0.49679
 Alpha  occ. eigenvalues --   -0.47971  -0.47789  -0.46715  -0.46454  -0.45800
 Alpha  occ. eigenvalues --   -0.45735  -0.45707  -0.45605  -0.43775  -0.43737
 Alpha virt. eigenvalues --    0.22463   0.22966   0.23663   0.24730   0.26292
 Alpha virt. eigenvalues --    0.26698   0.27120   0.27553   0.27678   0.29100
 Alpha virt. eigenvalues --    0.30875   0.31520   0.31702   0.31985   0.32079

 Mulliken charges:
               1
     1  C   -0.298229
     2  C   -0.299655
     3  C   -0.475696
     4  H    0.149688
     5  H    0.149488
     6  H    0.151984
     7  H    0.151830
     8  H    0.155144
     9  H    0.155192
    10  H    0.160209
    11  C   -0.298380
    12  C   -0.299382
    13  C   -0.481342
    14  H    0.149528
    15  H    0.149271
    16  H    0.151808
    17  H    0.151480
    18  H    0.153601
    19  H    0.163393
    20  H    0.159662
    21  C   -0.298309
    22  C   -0.299630
    23  C   -0.475690
    24  H    0.149697
    25  H    0.149464
    26  H    0.151897
    27  H    0.151884
    28  H    0.155157
    29  H    0.155165
    30  H    0.160186
    31  C   -0.298645
    32  C   -0.299475
    33  C   -0.479506
    34  H    0.149824
    35  H    0.149455
    36  H    0.152640
    37  H    0.151610
    38  H    0.154330
    39  H    0.159656
    40  H    0.160696
 Sum of Mulliken charges =  -0.00000

 Dipole moment (field-independent basis, Debye):
    X=              0.0098    Y=              0.0057    Z=              0.0116  Tot=              0.0162
 Quadrupole moment (field-independent basis, Debye-Ang):
   XX=            -86.8094   YY=            -84.7244   ZZ=            -83.4161
   XY=              0.0600   XZ=              1.0309   YZ=              0.5309

 Normal termination of Gaussian 16 at Thu May  6 00:43:02 2021.
