 Gaussian 16, Revision A.03,
 Gaussian 16:  EM64L-G16RevA.03 25-Dec-2016

 -------------
 #p 6-31g* mp2
 -------------

 ------------------------------------------------------
 Input file generated by CHIRIPA (05-May-2021 14:53:15)
 ------------------------------------------------------
 Symbolic Z-matrix:
 Charge =  0 Multiplicity = 1

                         Standard orientation:
 ---------------------------------------------------------------------
 Center     Atomic      Atomic             Coordinates (Angstroms)
 Number     Number       Type             X           Y           Z
 ---------------------------------------------------------------------
      1          6           0       -3.195652    0.526725   -0.350865
      2          6           0       -3.929819    1.806941   -0.750905
      3          6           0       -2.978383    2.925666   -1.176367
      4          1           0       -2.501009    0.751256    0.470112
      5          1           0       -2.581342    0.185420   -1.195571
      6          1           0       -4.543634    2.144966    0.093834
      7          1           0       -4.622934    1.579296   -1.570896
      8          1           0       -2.374741    2.612500   -2.034355
      9          1           0       -2.294991    3.181384   -0.360165
     10          1           0       -3.524279    3.831457   -1.458148
     11          6           0       -4.133316   -0.600876    0.076956
     12          6           0       -3.399149   -1.881091    0.476997
     13          6           0       -4.350585   -2.999817    0.902458
     14          1           0       -4.747626   -0.259571    0.921663
     15          1           0       -4.827959   -0.825407   -0.744020
     16          1           0       -2.706034   -1.653446    1.296988
     17          1           0       -2.785334   -2.219117   -0.367743
     18          1           0       -5.033977   -3.255534    0.086257
     19          1           0       -4.954227   -2.686650    1.760447
     20          1           0       -3.804689   -3.905608    1.184239
     21          6           0        1.701005    1.970772    1.222952
     22          6           0        3.094716    1.963236    1.104483
     23          6           0        3.749108    0.892574    0.488042
     24          6           0        2.975204   -0.158762   -0.000891
     25          6           0        1.585152   -0.180347    0.101972
     26          6           0        0.951992    0.900842    0.722201
     27          1           0        1.200903    2.806578    1.703289
     28          1           0        3.678965    2.792802    1.492449
     29          1           0        4.826782    0.861068    0.382943
     30          1           0        1.029684   -1.021589   -0.294495
     31          1           0       -0.130518    0.904004    0.812803
     32          7           0        3.656741   -1.297797   -0.655495
     33          8           0        2.952185   -2.211961   -1.078036
     34          8           0        4.882582   -1.254841   -0.733636
 ---------------------------------------------------------------------

 SCF Done:  E(RHF) =  -669.535637855     A.U. after   15 cycles
 E2 =    -0.2091429432D+01 EUMP2 =    -0.67162706728737D+03

 The electronic state is 1-A.
 Alpha  occ. eigenvalues --  -20.60708 -20.60703 -15.85760 -11.31107 -11.27677
 Alpha  occ. eigenvalues --  -11.27655 -11.27413 -11.26696 -11.26631 -11.22394
 Alpha  occ. eigenvalues --  -11.22334 -11.22207 -11.22054 -11.21855 -11.21481
 Alpha  occ. eigenvalues --   -1.59784  -1.39338  -1.19275  -1.09191  -1.08676
 Alpha  occ. eigenvalues --   -1.04672  -1.04198  -0.96656  -0.95515  -0.87666
 Alpha  occ. eigenvalues --   -0.86076  -0.82347  -0.80277  -0.79041  -0.77387
 Alpha  occ. eigenvalues --   -0.71979  -0.71107  -0.70390  -0.65843  -0.64926
 Alpha  occ. eigenvalues --   -0.64667  -0.62034  -0.61579  -0.60022  -0.58267
 Alpha  occ. eigenvalues --   -0.55953  -0.55184  -0.53311  -0.53117  -0.53008
 Alpha  occ. eigenvalues --   -0.52741  -0.50592  -0.48749  -0.48735  -0.48571
 Alpha  occ. eigenvalues --   -0.47312  -0.46538  -0.46459  -0.44747  -0.44482
 Alpha  occ. eigenvalues --   -0.37261  -0.36273
 Alpha virt. eigenvalues --    0.05134   0.11361   0.16625   0.19467   0.22745
 Alpha virt. eigenvalues --    0.23592   0.24704   0.25752   0.27130   0.28517
 Alpha virt. eigenvalues --    0.29591   0.30654   0.31022   0.31252   0.31745

 Mulliken charges:
               1
     1  C   -0.304777
     2  C   -0.299639
     3  C   -0.475759
     4  H    0.142089
     5  H    0.152014
     6  H    0.153352
     7  H    0.156449
     8  H    0.158625
     9  H    0.147721
    10  H    0.163927
    11  C   -0.297586
    12  C   -0.301383
    13  C   -0.476133
    14  H    0.151000
    15  H    0.153685
    16  H    0.148246
    17  H    0.153845
    18  H    0.157248
    19  H    0.155675
    20  H    0.163681
    21  C   -0.173129
    22  C   -0.218443
    23  C   -0.171411
    24  C    0.158843
    25  C   -0.174526
    26  C   -0.225082
    27  H    0.225368
    28  H    0.223013
    29  H    0.275238
    30  H    0.276138
    31  H    0.235033
    32  N    0.488108
    33  O   -0.460652
    34  O   -0.460780
 Sum of Mulliken charges =  -0.00000

 Dipole moment (field-independent basis, Debye):
    X=             -2.6451    Y=              3.9653    Z=              2.2236  Tot=              5.2597
 Quadrupole moment (field-independent basis, Debye-Ang):
   XX=           -104.7005   YY=            -96.0562   ZZ=            -94.5430
   XY=             14.3199   XZ=              8.2171   YZ=              0.5627

 Normal termination of Gaussian 16 at Thu May  6 20:25:45 2021.
