 Gaussian 16, Revision A.03,
 Gaussian 16:  EM64L-G16RevA.03 25-Dec-2016

 -------------
 #p 6-31g* mp2
 -------------

 ------------------------------------------------------
 Input file generated by CHIRIPA (05-May-2021 14:53:11)
 ------------------------------------------------------
 Symbolic Z-matrix:
 Charge =  0 Multiplicity = 1

                         Standard orientation:
 ---------------------------------------------------------------------
 Center     Atomic      Atomic             Coordinates (Angstroms)
 Number     Number       Type             X           Y           Z
 ---------------------------------------------------------------------
      1          6           0       -3.028602    1.322948   -0.056249
      2          6           0       -1.658606    1.376796   -0.733151
      3          6           0       -0.924440    2.693467   -0.477861
      4          1           0       -3.641030    2.161457   -0.415108
      5          1           0       -2.901433    1.469194    1.025340
      6          1           0       -1.788184    1.229112   -1.812972
      7          1           0       -1.049434    0.537951   -0.372783
      8          1           0       -0.765960    2.844469    0.594838
      9          1           0       -1.508908    3.539557   -0.853534
     10          1           0        0.052562    2.710486   -0.970850
     11          6           0       -3.774789    0.012823   -0.302231
     12          6           0       -5.144785   -0.041025    0.374670
     13          6           0       -5.878951   -1.357696    0.119381
     14          1           0       -3.901958   -0.133423   -1.383820
     15          1           0       -3.162360   -0.825685    0.056627
     16          1           0       -5.753956    0.797820    0.014303
     17          1           0       -5.015206    0.106660    1.454492
     18          1           0       -5.294483   -2.203786    0.495054
     19          1           0       -6.037430   -1.508698   -0.953319
     20          1           0       -6.855952   -1.374714    0.612370
     21          6           0        0.682225   -2.090390    0.198349
     22          6           0        1.711964   -2.295562   -0.725807
     23          6           0        2.811249   -1.432766   -0.767117
     24          6           0        2.848544   -0.370139    0.134393
     25          6           0        1.838302   -0.139349    1.066830
     26          6           0        0.748564   -1.014834    1.090146
     27          1           0       -0.168017   -2.765559    0.223451
     28          1           0        1.663108   -3.130022   -1.419588
     29          1           0        3.622303   -1.568334   -1.472263
     30          1           0        1.915071    0.701229    1.745765
     31          1           0       -0.049692   -0.853056    1.808937
     32          7           0        4.007254    0.549981    0.100186
     33          8           0        4.016415    1.478773    0.905106
     34          8           0        4.884350    0.324955   -0.730901
 ---------------------------------------------------------------------

 SCF Done:  E(RHF) =  -669.534938754     A.U. after   15 cycles
 E2 =    -0.2093091294D+01 EUMP2 =    -0.67162803004781D+03

 The electronic state is 1-A.
 Alpha  occ. eigenvalues --  -20.60818 -20.60813 -15.85873 -11.31272 -11.27841
 Alpha  occ. eigenvalues --  -11.27832 -11.27590 -11.26867 -11.26852 -11.22146
 Alpha  occ. eigenvalues --  -11.22002 -11.21839 -11.21761 -11.21618 -11.21253
 Alpha  occ. eigenvalues --   -1.59893  -1.39445  -1.19455  -1.08922  -1.08832
 Alpha  occ. eigenvalues --   -1.04868  -1.03931  -0.96399  -0.95666  -0.87409
 Alpha  occ. eigenvalues --   -0.86258  -0.82499  -0.80004  -0.78727  -0.77539
 Alpha  occ. eigenvalues --   -0.72090  -0.71217  -0.70547  -0.65593  -0.65104
 Alpha  occ. eigenvalues --   -0.64845  -0.62214  -0.61350  -0.59766  -0.58005
 Alpha  occ. eigenvalues --   -0.55724  -0.55349  -0.53242  -0.53008  -0.52949
 Alpha  occ. eigenvalues --   -0.52812  -0.50351  -0.48853  -0.48842  -0.48312
 Alpha  occ. eigenvalues --   -0.47056  -0.46261  -0.46204  -0.44843  -0.44206
 Alpha  occ. eigenvalues --   -0.37388  -0.36391
 Alpha virt. eigenvalues --    0.04983   0.11095   0.16435   0.20003   0.22899
 Alpha virt. eigenvalues --    0.23790   0.25649   0.26487   0.27278   0.27948
 Alpha virt. eigenvalues --    0.29215   0.30670   0.31181   0.31528   0.31927

 Mulliken charges:
               1
     1  C   -0.298109
     2  C   -0.309195
     3  C   -0.475286
     4  H    0.152270
     5  H    0.145514
     6  H    0.151970
     7  H    0.157991
     8  H    0.151168
     9  H    0.156650
    10  H    0.164866
    11  C   -0.295873
    12  C   -0.299797
    13  C   -0.475424
    14  H    0.151537
    15  H    0.139069
    16  H    0.154755
    17  H    0.151209
    18  H    0.151767
    19  H    0.156240
    20  H    0.162282
    21  C   -0.169606
    22  C   -0.217898
    23  C   -0.170731
    24  C    0.158376
    25  C   -0.168686
    26  C   -0.221057
    27  H    0.226674
    28  H    0.224075
    29  H    0.276011
    30  H    0.276437
    31  H    0.224914
    32  N    0.487987
    33  O   -0.459897
    34  O   -0.460205
 Sum of Mulliken charges =  -0.00000

 Dipole moment (field-independent basis, Debye):
    X=             -4.0304    Y=             -3.2326    Z=              0.0718  Tot=              5.1671
 Quadrupole moment (field-independent basis, Debye-Ang):
   XX=           -117.9048   YY=            -92.0049   ZZ=            -91.5631
   XY=             -9.8477   XZ=             -1.5201   YZ=              1.3565

 Normal termination of Gaussian 16 at Thu May  6 04:04:18 2021.
