 Gaussian 16, Revision A.03,
 Gaussian 16:  EM64L-G16RevA.03 25-Dec-2016

 -------------
 #p 6-31g* mp2
 -------------

 ------------------------------------------------------
 Input file generated by CHIRIPA (05-May-2021 14:57:23)
 ------------------------------------------------------
 Symbolic Z-matrix:
 Charge =  0 Multiplicity = 1

                         Standard orientation:
 ---------------------------------------------------------------------
 Center     Atomic      Atomic             Coordinates (Angstroms)
 Number     Number       Type             X           Y           Z
 ---------------------------------------------------------------------
      1          6           0        3.403247   -1.759415    0.936829
      2          6           0        2.493312   -1.123944    1.788131
      3          6           0        1.917745    0.097994    1.427385
      4          6           0        2.276307    0.658647    0.202481
      5          6           0        3.179808    0.050031   -0.667325
      6          6           0        3.742992   -1.171436   -0.286027
      7          1           0        3.845552   -2.708464    1.225048
      8          1           0        2.227606   -1.578249    2.738422
      9          1           0        1.210578    0.611591    2.067347
     10          1           0        3.425121    0.527430   -1.608245
     11          1           0        4.449373   -1.662684   -0.949160
     12          7           0        1.673535    1.952010   -0.190304
     13          8           0        2.005938    2.425240   -1.274830
     14          8           0        0.880092    2.468026    0.593795
     15          6           0       -0.776179   -2.081894   -1.330128
     16          6           0       -0.649506   -0.712587   -1.586009
     17          6           0       -1.530097    0.203192   -1.002523
     18          6           0       -2.530282   -0.287284   -0.164458
     19          6           0       -2.682259   -1.645555    0.109940
     20          6           0       -1.790363   -2.543194   -0.484460
     21          1           0       -0.087723   -2.786247   -1.787632
     22          1           0        0.137173   -0.351481   -2.242350
     23          1           0       -1.454771    1.268560   -1.183450
     24          1           0       -3.476471   -1.975438    0.768593
     25          1           0       -1.891122   -3.606060   -0.283940
     26          7           0       -3.468509    0.672609    0.459030
     27          8           0       -4.341221    0.215098    1.193669
     28          8           0       -3.313414    1.864307    0.201274
 ---------------------------------------------------------------------

 SCF Done:  E(RHF) =  -868.337475055     A.U. after   16 cycles
 E2 =    -0.2603228482D+01 EUMP2 =    -0.87094070353706D+03

 The electronic state is 1-A.
 Alpha  occ. eigenvalues --  -20.61427 -20.61366 -20.60358 -20.60294 -15.86404
 Alpha  occ. eigenvalues --  -15.85386 -11.31741 -11.30891 -11.28358 -11.28248
 Alpha  occ. eigenvalues --  -11.28064 -11.27556 -11.27377 -11.27371 -11.27329
 Alpha  occ. eigenvalues --  -11.27286 -11.26610 -11.26499  -1.60472  -1.59406
 Alpha  occ. eigenvalues --   -1.40018  -1.38950  -1.19928  -1.19105  -1.09334
 Alpha  occ. eigenvalues --   -1.08481  -1.05322  -1.04530  -0.96166  -0.95282
 Alpha  occ. eigenvalues --   -0.86724  -0.85911  -0.82990  -0.82114  -0.78045
 Alpha  occ. eigenvalues --   -0.77123  -0.72614  -0.71851  -0.71588  -0.71033
 Alpha  occ. eigenvalues --   -0.70736  -0.70188  -0.65578  -0.65321  -0.64752
 Alpha  occ. eigenvalues --   -0.64535  -0.62663  -0.61827  -0.55828  -0.55047
 Alpha  occ. eigenvalues --   -0.53829  -0.53408  -0.52745  -0.52569  -0.49405
 Alpha  occ. eigenvalues --   -0.49375  -0.48387  -0.48336  -0.45414  -0.44320
 Alpha  occ. eigenvalues --   -0.38029  -0.37088  -0.36924  -0.36022
 Alpha virt. eigenvalues --    0.04419   0.05412   0.10618   0.11547   0.15949
 Alpha virt. eigenvalues --    0.16836   0.20834   0.21628   0.26674   0.27230
 Alpha virt. eigenvalues --    0.27972   0.28539   0.30428   0.31017   0.32131

 Mulliken charges:
               1
     1  C   -0.172104
     2  C   -0.217782
     3  C   -0.167439
     4  C    0.161225
     5  C   -0.178601
     6  C   -0.220439
     7  H    0.226257
     8  H    0.225930
     9  H    0.279859
    10  H    0.274262
    11  H    0.223376
    12  N    0.484319
    13  O   -0.464042
    14  O   -0.451526
    15  C   -0.169457
    16  C   -0.225057
    17  C   -0.174491
    18  C    0.156452
    19  C   -0.172681
    20  C   -0.220459
    21  H    0.221556
    22  H    0.225825
    23  H    0.290331
    24  H    0.274050
    25  H    0.219951
    26  N    0.487377
    27  O   -0.465012
    28  O   -0.451682
 Sum of Mulliken charges =  -0.00000

 Dipole moment (field-independent basis, Debye):
    X=              5.4470    Y=             -7.6834    Z=             -0.6511  Tot=              9.4408
 Quadrupole moment (field-independent basis, Debye-Ang):
   XX=           -110.9758   YY=           -106.9605   ZZ=            -99.5787
   XY=             -0.0086   XZ=              5.3082   YZ=             -0.7501

 Normal termination of Gaussian 16 at Thu May  6 09:44:43 2021.
