 Gaussian 16, Revision A.03,
 Gaussian 16:  EM64L-G16RevA.03 25-Dec-2016

 -------------
 #p 6-31g* mp2
 -------------

 ------------------------------------------------------
 Input file generated by CHIRIPA (05-May-2021 14:57:22)
 ------------------------------------------------------
 Symbolic Z-matrix:
 Charge =  0 Multiplicity = 1

                         Standard orientation:
 ---------------------------------------------------------------------
 Center     Atomic      Atomic             Coordinates (Angstroms)
 Number     Number       Type             X           Y           Z
 ---------------------------------------------------------------------
      1          6           0        3.129821    2.338595    0.913570
      2          6           0        3.996758    1.390427    1.466668
      3          6           0        4.047542    0.090606    0.954383
      4          6           0        3.213750   -0.228222   -0.116331
      5          6           0        2.339373    0.694151   -0.689030
      6          6           0        2.305349    1.988049   -0.160620
      7          1           0        3.096880    3.346027    1.317788
      8          1           0        4.638196    1.659851    2.300942
      9          1           0        4.709320   -0.663121    1.363484
     10          1           0        1.711992    0.395919   -1.520216
     11          1           0        1.631091    2.722346   -0.592165
     12          7           0        3.258641   -1.601149   -0.667199
     13          8           0        2.513907   -1.856999   -1.610888
     14          8           0        4.037711   -2.395402   -0.144851
     15          6           0       -2.741637    2.346035   -0.783911
     16          6           0       -4.037178    1.980770   -0.403550
     17          6           0       -4.306229    0.684770    0.046498
     18          6           0       -3.251278   -0.224671    0.103796
     19          6           0       -1.949886    0.108969   -0.268162
     20          6           0       -1.703955    1.410618   -0.715124
     21          1           0       -2.541612    3.354994   -1.132319
     22          1           0       -4.845006    2.705142   -0.455933
     23          1           0       -5.299831    0.375272    0.347139
     24          1           0       -1.165150   -0.635087   -0.204995
     25          1           0       -0.696838    1.691488   -1.009868
     26          7           0       -3.523872   -1.599678    0.578608
     27          8           0       -2.577111   -2.382353    0.619843
     28          8           0       -4.679131   -1.868700    0.900541
 ---------------------------------------------------------------------

 SCF Done:  E(RHF) =  -868.335930682     A.U. after   16 cycles
 E2 =    -0.2601012012D+01 EUMP2 =    -0.87093694269392D+03

 The electronic state is 1-A.
 Alpha  occ. eigenvalues --  -20.61160 -20.61145 -20.60757 -20.60733 -15.86218
 Alpha  occ. eigenvalues --  -15.85809 -11.31806 -11.31342 -11.28499 -11.28326
 Alpha  occ. eigenvalues --  -11.28148 -11.27949 -11.27945 -11.27799 -11.27573
 Alpha  occ. eigenvalues --  -11.27371 -11.27106 -11.26995  -1.60223  -1.59822
 Alpha  occ. eigenvalues --   -1.39773  -1.39369  -1.19996  -1.19558  -1.09336
 Alpha  occ. eigenvalues --   -1.08935  -1.05464  -1.04990  -0.96138  -0.95728
 Alpha  occ. eigenvalues --   -0.86830  -0.86399  -0.83003  -0.82556  -0.78035
 Alpha  occ. eigenvalues --   -0.77547  -0.72428  -0.72023  -0.71549  -0.71150
 Alpha  occ. eigenvalues --   -0.71090  -0.70678  -0.65675  -0.65514  -0.65217
 Alpha  occ. eigenvalues --   -0.65020  -0.62914  -0.62215  -0.55906  -0.55523
 Alpha  occ. eigenvalues --   -0.53746  -0.53581  -0.53300  -0.53067  -0.49203
 Alpha  occ. eigenvalues --   -0.49174  -0.48802  -0.48764  -0.45130  -0.44737
 Alpha  occ. eigenvalues --   -0.37948  -0.37570  -0.37074  -0.36567
 Alpha virt. eigenvalues --    0.04520   0.04987   0.10516   0.11076   0.15845
 Alpha virt. eigenvalues --    0.16421   0.18609   0.22134   0.24868   0.26745
 Alpha virt. eigenvalues --    0.27968   0.29180   0.29947   0.31290   0.32520

 Mulliken charges:
               1
     1  C   -0.170136
     2  C   -0.217523
     3  C   -0.168906
     4  C    0.160580
     5  C   -0.176869
     6  C   -0.218106
     7  H    0.227226
     8  H    0.226694
     9  H    0.279118
    10  H    0.271965
    11  H    0.215880
    12  N    0.488646
    13  O   -0.459914
    14  O   -0.456053
    15  C   -0.171960
    16  C   -0.218580
    17  C   -0.170003
    18  C    0.158643
    19  C   -0.171359
    20  C   -0.219504
    21  H    0.222822
    22  H    0.223779
    23  H    0.276774
    24  H    0.281356
    25  H    0.214254
    26  N    0.487708
    27  O   -0.455725
    28  O   -0.460807
 Sum of Mulliken charges =  -0.00000

 Dipole moment (field-independent basis, Debye):
    X=              0.9783    Y=              9.4510    Z=              0.4505  Tot=              9.5122
 Quadrupole moment (field-independent basis, Debye-Ang):
   XX=           -103.9800   YY=           -109.8511   ZZ=           -104.5368
   XY=             -2.6637   XZ=             14.2810   YZ=             -0.6432

 Normal termination of Gaussian 16 at Fri May  7 00:12:02 2021.
