 Gaussian 16, Revision A.03,
 Gaussian 16:  EM64L-G16RevA.03 25-Dec-2016

 -------------
 #p 6-31g* mp2
 -------------

 ------------------------------------------------------
 Input file generated by CHIRIPA (05-May-2021 14:57:25)
 ------------------------------------------------------
 Symbolic Z-matrix:
 Charge =  0 Multiplicity = 1

                         Standard orientation:
 ---------------------------------------------------------------------
 Center     Atomic      Atomic             Coordinates (Angstroms)
 Number     Number       Type             X           Y           Z
 ---------------------------------------------------------------------
      1          6           0       -4.251360    1.516349    1.144324
      2          6           0       -3.682389    0.474485    1.884129
      3          6           0       -2.962008   -0.539068    1.245137
      4          6           0       -2.829647   -0.479200   -0.141292
      5          6           0       -3.384764    0.545629   -0.906054
      6          6           0       -4.100997    1.548540   -0.245955
      7          1           0       -4.809358    2.299568    1.648906
      8          1           0       -3.797549    0.446914    2.963954
      9          1           0       -2.511150   -1.357298    1.793449
     10          1           0       -3.252962    0.546023   -1.981250
     11          1           0       -4.541779    2.356444   -0.823057
     12          7           0       -2.069208   -1.546569   -0.828936
     13          8           0       -1.966956   -1.470954   -2.051419
     14          8           0       -1.589828   -2.438579   -0.132408
     15          6           0        3.648336   -2.042115    0.647860
     16          6           0        4.571098   -0.994231    0.731339
     17          6           0        4.197968    0.309255    0.390392
     18          6           0        2.887946    0.530029   -0.031970
     19          6           0        1.945614   -0.492974   -0.125596
     20          6           0        2.340844   -1.788590    0.220414
     21          1           0        3.946776   -3.051638    0.914683
     22          1           0        5.587192   -1.188179    1.062975
     23          1           0        4.892080    1.139049    0.445794
     24          1           0        0.939871   -0.268626   -0.459612
     25          1           0        1.622091   -2.600446    0.154616
     26          7           0        2.481231    1.905805   -0.395594
     27          8           0        1.321063    2.074124   -0.764805
     28          8           0        3.330318    2.789769   -0.304508
 ---------------------------------------------------------------------

 SCF Done:  E(RHF) =  -868.340295762     A.U. after   16 cycles
 E2 =    -0.2599146555D+01 EUMP2 =    -0.87093944231677D+03

 The electronic state is 1-A.
 Alpha  occ. eigenvalues --  -20.61384 -20.61320 -20.60382 -20.60377 -15.86363
 Alpha  occ. eigenvalues --  -15.85423 -11.31315 -11.30583 -11.27884 -11.27802
 Alpha  occ. eigenvalues --  -11.27514 -11.27151 -11.27036 -11.26790 -11.26788
 Alpha  occ. eigenvalues --  -11.26722 -11.26157 -11.25881  -1.60433  -1.59459
 Alpha  occ. eigenvalues --   -1.39987  -1.39018  -1.19451  -1.18715  -1.08932
 Alpha  occ. eigenvalues --   -1.08153  -1.04790  -1.04057  -0.95831  -0.95029
 Alpha  occ. eigenvalues --   -0.86216  -0.85475  -0.82678  -0.81844  -0.77769
 Alpha  occ. eigenvalues --   -0.76922  -0.72588  -0.71784  -0.71632  -0.70775
 Alpha  occ. eigenvalues --   -0.70566  -0.69826  -0.65112  -0.64800  -0.64353
 Alpha  occ. eigenvalues --   -0.64025  -0.62151  -0.61385  -0.55320  -0.54592
 Alpha  occ. eigenvalues --   -0.53130  -0.52888  -0.52436  -0.52116  -0.49369
 Alpha  occ. eigenvalues --   -0.49309  -0.48415  -0.48385  -0.45466  -0.44468
 Alpha  occ. eigenvalues --   -0.37404  -0.36707  -0.36356  -0.35655
 Alpha virt. eigenvalues --    0.04698   0.05567   0.11296   0.11987   0.16261
 Alpha virt. eigenvalues --    0.17122   0.21390   0.22136   0.27355   0.27565
 Alpha virt. eigenvalues --    0.28460   0.28752   0.31101   0.31737   0.32482

 Mulliken charges:
               1
     1  C   -0.168186
     2  C   -0.217877
     3  C   -0.170968
     4  C    0.154643
     5  C   -0.165488
     6  C   -0.216617
     7  H    0.227377
     8  H    0.223625
     9  H    0.272551
    10  H    0.277865
    11  H    0.226304
    12  N    0.486069
    13  O   -0.454830
    14  O   -0.470790
    15  C   -0.171984
    16  C   -0.218703
    17  C   -0.172864
    18  C    0.157730
    19  C   -0.171224
    20  C   -0.223194
    21  H    0.224754
    22  H    0.220673
    23  H    0.272654
    24  H    0.273596
    25  H    0.242837
    26  N    0.488119
    27  O   -0.463191
    28  O   -0.462881
 Sum of Mulliken charges =  -0.00000

 Dipole moment (field-independent basis, Debye):
    X=             -1.6076    Y=             -1.0607    Z=              3.6286  Tot=              4.1081
 Quadrupole moment (field-independent basis, Debye-Ang):
   XX=            -77.7163   YY=           -113.1459   ZZ=           -102.2810
   XY=            -22.5769   XZ=             -0.8627   YZ=             -2.6104

 Normal termination of Gaussian 16 at Thu May  6 03:32:20 2021.
