 Gaussian 16, Revision A.03,
 Gaussian 16:  EM64L-G16RevA.03 25-Dec-2016

 -------------
 #p 6-31g* mp2
 -------------

 ------------------------------------------------------
 Input file generated by CHIRIPA (05-May-2021 14:53:11)
 ------------------------------------------------------
 Symbolic Z-matrix:
 Charge =  0 Multiplicity = 1

                         Standard orientation:
 ---------------------------------------------------------------------
 Center     Atomic      Atomic             Coordinates (Angstroms)
 Number     Number       Type             X           Y           Z
 ---------------------------------------------------------------------
      1          6           0        3.900746   -0.683022    0.745413
      2          6           0        2.382841   -0.557974    0.880739
      3          6           0        1.827992   -1.347859    2.066495
      4          1           0        4.166787   -1.743518    0.638095
      5          1           0        4.374578   -0.334266    1.673448
      6          1           0        1.912075   -0.905567   -0.047795
      7          1           0        2.120368    0.502362    0.987556
      8          1           0        2.270503   -0.996634    3.004272
      9          1           0        2.061027   -2.412562    1.963039
     10          1           0        0.741217   -1.244454    2.144517
     11          6           0        4.470324    0.101095   -0.435463
     12          6           0        5.988229   -0.023953   -0.570789
     13          6           0        6.543079    0.765932   -1.756545
     14          1           0        3.996493   -0.247661   -1.363497
     15          1           0        4.204284    1.161590   -0.328144
     16          1           0        6.250703   -1.084290   -0.677605
     17          1           0        6.458995    0.323639    0.357745
     18          1           0        6.310044    1.830635   -1.653089
     19          1           0        6.100568    0.414706   -2.694322
     20          1           0        7.629854    0.662527   -1.834567
     21          6           0       -1.817899    2.093454    0.759266
     22          6           0       -3.138611    2.353938    0.379287
     23          6           0       -3.952267    1.327650   -0.109842
     24          6           0       -3.410328    0.046904   -0.206183
     25          6           0       -2.098361   -0.244221    0.164326
     26          6           0       -1.302895    0.797490    0.650764
     27          1           0       -1.192897    2.896689    1.138188
     28          1           0       -3.541235    3.359433    0.462462
     29          1           0       -4.978153    1.501429   -0.411134
     30          1           0       -1.725101   -1.256736    0.069948
     31          1           0       -0.277572    0.592272    0.945114
     32          7           0       -4.262080   -1.047745   -0.722577
     33          8           0       -3.760912   -2.167483   -0.797775
     34          8           0       -5.414724   -0.765265   -1.042351
 ---------------------------------------------------------------------

 SCF Done:  E(RHF) =  -669.534988454     A.U. after   15 cycles
 E2 =    -0.2092021312D+01 EUMP2 =    -0.67162700976575D+03

 The electronic state is 1-A.
 Alpha  occ. eigenvalues --  -20.60711 -20.60705 -15.85762 -11.31114 -11.27681
 Alpha  occ. eigenvalues --  -11.27661 -11.27405 -11.26700 -11.26591 -11.22723
 Alpha  occ. eigenvalues --  -11.22178 -11.22098 -11.22098 -11.21995 -11.21478
 Alpha  occ. eigenvalues --   -1.59786  -1.39340  -1.19278  -1.09193  -1.08675
 Alpha  occ. eigenvalues --   -1.04692  -1.04296  -0.96726  -0.95516  -0.87730
 Alpha  occ. eigenvalues --   -0.86080  -0.82354  -0.80409  -0.78973  -0.77396
 Alpha  occ. eigenvalues --   -0.71981  -0.71109  -0.70394  -0.65825  -0.64930
 Alpha  occ. eigenvalues --   -0.64735  -0.62175  -0.61669  -0.60035  -0.58315
 Alpha  occ. eigenvalues --   -0.55972  -0.55170  -0.53456  -0.53201  -0.52993
 Alpha  occ. eigenvalues --   -0.52650  -0.50638  -0.48767  -0.48737  -0.48674
 Alpha  occ. eigenvalues --   -0.47423  -0.46500  -0.46396  -0.44749  -0.44542
 Alpha  occ. eigenvalues --   -0.37260  -0.36272
 Alpha virt. eigenvalues --    0.05117   0.11360   0.16564   0.19891   0.22485
 Alpha virt. eigenvalues --    0.23829   0.25585   0.26029   0.26790   0.27873
 Alpha virt. eigenvalues --    0.29170   0.30457   0.30744   0.31039   0.31821

 Mulliken charges:
               1
     1  C   -0.297123
     2  C   -0.308342
     3  C   -0.481289
     4  H    0.153884
     5  H    0.151478
     6  H    0.155098
     7  H    0.143802
     8  H    0.159742
     9  H    0.163390
    10  H    0.155756
    11  C   -0.299146
    12  C   -0.300399
    13  C   -0.476128
    14  H    0.151652
    15  H    0.148366
    16  H    0.153732
    17  H    0.152424
    18  H    0.154932
    19  H    0.156485
    20  H    0.162016
    21  C   -0.173943
    22  C   -0.218349
    23  C   -0.171446
    24  C    0.159039
    25  C   -0.176394
    26  C   -0.228398
    27  H    0.225377
    28  H    0.222987
    29  H    0.275276
    30  H    0.275452
    31  H    0.243328
    32  N    0.488125
    33  O   -0.460606
    34  O   -0.460777
 Sum of Mulliken charges =  -0.00000

 Dipole moment (field-independent basis, Debye):
    X=              3.2726    Y=              3.7807    Z=              1.8162  Tot=              5.3200
 Quadrupole moment (field-independent basis, Debye-Ang):
   XX=           -112.0969   YY=            -92.1566   ZZ=            -96.4977
   XY=            -16.3836   XZ=             -5.8226   YZ=             -0.2791

 Normal termination of Gaussian 16 at Thu May  6 05:41:50 2021.
