 Gaussian 16, Revision A.03,
 Gaussian 16:  EM64L-G16RevA.03 25-Dec-2016

 -------------
 #p 6-31g* mp2
 -------------

 ------------------------------------------------------
 Input file generated by CHIRIPA (05-May-2021 14:55:20)
 ------------------------------------------------------
 Symbolic Z-matrix:
 Charge =  0 Multiplicity = 1

                         Standard orientation:
 ---------------------------------------------------------------------
 Center     Atomic      Atomic             Coordinates (Angstroms)
 Number     Number       Type             X           Y           Z
 ---------------------------------------------------------------------
      1          6           0       -5.184553    1.915322   -0.060430
      2          6           0       -4.269419    1.855253    0.995715
      3          6           0       -3.321213    0.829677    1.056114
      4          6           0       -3.316490   -0.123493    0.038895
      5          6           0       -4.215082   -0.090781   -1.026353
      6          6           0       -5.154517    0.943826   -1.066320
      7          1           0       -5.917736    2.715521   -0.099413
      8          1           0       -4.290414    2.608365    1.778292
      9          1           0       -2.601116    0.759229    1.862288
     10          1           0       -4.169589   -0.855901   -1.791821
     11          1           0       -5.864004    0.987966   -1.887736
     12          7           0       -2.317310   -1.214004    0.092022
     13          8           0       -2.333887   -2.041607   -0.816513
     14          8           0       -1.536494   -1.220495    1.041191
     15          6           0        3.770088   -0.338612   -0.243543
     16          6           0        3.360149   -1.602691    0.512790
     17          6           0        1.985841   -2.124008    0.091719
     18          1           0        3.014131    0.441248   -0.078341
     19          1           0        3.771426   -0.549186   -1.321993
     20          1           0        3.360925   -1.390182    1.589570
     21          1           0        4.117267   -2.379571    0.345924
     22          1           0        1.975402   -2.363545   -0.976510
     23          1           0        1.214763   -1.368535    0.274203
     24          1           0        1.712666   -3.028067    0.644813
     25          6           0        5.141701    0.194646    0.166387
     26          6           0        5.551640    1.458725   -0.589947
     27          6           0        6.925948    1.980041   -0.168876
     28          1           0        5.140363    0.405221    1.244836
     29          1           0        5.897658   -0.585214    0.001185
     30          1           0        4.794521    2.235605   -0.423080
     31          1           0        5.550864    1.246217   -1.666726
     32          1           0        7.697026    1.224568   -0.351359
     33          1           0        6.936387    2.219579    0.899354
     34          1           0        7.199122    2.884101   -0.721970
 ---------------------------------------------------------------------

 SCF Done:  E(RHF) =  -669.535930018     A.U. after   15 cycles
 E2 =    -0.2090873648D+01 EUMP2 =    -0.67162680366657D+03

 The electronic state is 1-A.
 Alpha  occ. eigenvalues --  -20.60910 -20.60905 -15.85939 -11.31282 -11.27848
 Alpha  occ. eigenvalues --  -11.27842 -11.27586 -11.26857 -11.26847 -11.21125
 Alpha  occ. eigenvalues --  -11.20749 -11.20692 -11.20544 -11.20438 -11.19346
 Alpha  occ. eigenvalues --   -1.59967  -1.39524  -1.19451  -1.08851  -1.07657
 Alpha  occ. eigenvalues --   -1.04850  -1.02646  -0.95691  -0.95058  -0.86250
 Alpha  occ. eigenvalues --   -0.86065  -0.82523  -0.78745  -0.77574  -0.77428
 Alpha  occ. eigenvalues --   -0.72157  -0.71284  -0.70559  -0.65106  -0.64853
 Alpha  occ. eigenvalues --   -0.64299  -0.62197  -0.60046  -0.58516  -0.56670
 Alpha  occ. eigenvalues --   -0.55354  -0.54349  -0.53180  -0.52942  -0.51723
 Alpha  occ. eigenvalues --   -0.51492  -0.49188  -0.48912  -0.48735  -0.47030
 Alpha  occ. eigenvalues --   -0.45819  -0.45055  -0.44930  -0.44715  -0.42900
 Alpha  occ. eigenvalues --   -0.37430  -0.36452
 Alpha virt. eigenvalues --    0.04928   0.11203   0.16412   0.21339   0.23572
 Alpha virt. eigenvalues --    0.25266   0.27254   0.27382   0.28164   0.28247
 Alpha virt. eigenvalues --    0.29057   0.30891   0.32280   0.32433   0.32552

 Mulliken charges:
               1
     1  C   -0.170637
     2  C   -0.218525
     3  C   -0.170955
     4  C    0.158351
     5  C   -0.170759
     6  C   -0.218552
     7  H    0.225944
     8  H    0.223733
     9  H    0.275549
    10  H    0.275929
    11  H    0.223802
    12  N    0.488164
    13  O   -0.458224
    14  O   -0.459443
    15  C   -0.297063
    16  C   -0.300595
    17  C   -0.475890
    18  H    0.147696
    19  H    0.147989
    20  H    0.149175
    21  H    0.147103
    22  H    0.150028
    23  H    0.170877
    24  H    0.162167
    25  C   -0.297388
    26  C   -0.298830
    27  C   -0.475193
    28  H    0.148135
    29  H    0.148679
    30  H    0.150167
    31  H    0.151188
    32  H    0.154843
    33  H    0.154290
    34  H    0.158245
 Sum of Mulliken charges =  -0.00000

 Dipole moment (field-independent basis, Debye):
    X=             -3.8597    Y=              3.7954    Z=             -0.1717  Tot=              5.4159
 Quadrupole moment (field-independent basis, Debye-Ang):
   XX=            -73.2458   YY=            -95.6012   ZZ=            -90.9530
   XY=            -12.5979   XZ=              1.9038   YZ=              2.3976

 Normal termination of Gaussian 16 at Thu May  6 19:06:02 2021.
