 Gaussian 16, Revision A.03,
 Gaussian 16:  EM64L-G16RevA.03 25-Dec-2016

 -------------
 #p 6-31g* mp2
 -------------

 ------------------------------------------------------
 Input file generated by CHIRIPA (05-May-2021 14:57:26)
 ------------------------------------------------------
 Symbolic Z-matrix:
 Charge =  0 Multiplicity = 1

                         Standard orientation:
 ---------------------------------------------------------------------
 Center     Atomic      Atomic             Coordinates (Angstroms)
 Number     Number       Type             X           Y           Z
 ---------------------------------------------------------------------
      1          6           0        3.082974    2.463740    0.458513
      2          6           0        3.814508    1.829631   -0.551084
      3          6           0        3.676232    0.456135   -0.772301
      4          6           0        2.793507   -0.255817    0.038384
      5          6           0        2.050756    0.347289    1.052225
      6          6           0        2.204980    1.721853    1.255540
      7          1           0        3.196585    3.531119    0.623406
      8          1           0        4.497105    2.403273   -1.171600
      9          1           0        4.230291   -0.060070   -1.546877
     10          1           0        1.378065   -0.251062    1.654621
     11          1           0        1.635575    2.211658    2.040341
     12          7           0        2.638678   -1.710441   -0.186332
     13          8           0        1.854449   -2.315286    0.541531
     14          8           0        3.304485   -2.218188   -1.086072
     15          6           0       -3.164531    2.490020   -0.430610
     16          6           0       -4.267179    1.632330   -0.359523
     17          6           0       -4.087616    0.259857   -0.162990
     18          6           0       -2.785623   -0.223094   -0.041082
     19          6           0       -1.666853    0.605898   -0.107533
     20          6           0       -1.870168    1.974975   -0.304611
     21          1           0       -3.313245    3.554870   -0.583493
     22          1           0       -5.273544    2.029527   -0.457041
     23          1           0       -4.923449   -0.426680   -0.104096
     24          1           0       -0.675731    0.180518   -0.006786
     25          1           0       -1.011971    2.638706   -0.359412
     26          7           0       -2.582954   -1.674271    0.167267
     27          8           0       -1.425704   -2.074903    0.271682
     28          8           0       -3.585191   -2.383595    0.222211
 ---------------------------------------------------------------------

 SCF Done:  E(RHF) =  -868.335310951     A.U. after   16 cycles
 E2 =    -0.2603234589D+01 EUMP2 =    -0.87093854554010D+03

 The electronic state is 1-A.
 Alpha  occ. eigenvalues --  -20.60552 -20.60418 -20.60384 -20.60318 -15.85538
 Alpha  occ. eigenvalues --  -15.85398 -11.31450 -11.31083 -11.28033 -11.28021
 Alpha  occ. eigenvalues --  -11.27884 -11.27680 -11.27667 -11.27505 -11.27221
 Alpha  occ. eigenvalues --  -11.27143 -11.26796 -11.26763  -1.59552  -1.59434
 Alpha  occ. eigenvalues --   -1.39086  -1.38970  -1.19668  -1.19291  -1.08953
 Alpha  occ. eigenvalues --   -1.08632  -1.05140  -1.04732  -0.95701  -0.95402
 Alpha  occ. eigenvalues --   -0.86500  -0.86118  -0.82533  -0.82202  -0.77529
 Alpha  occ. eigenvalues --   -0.77167  -0.71828  -0.71522  -0.70866  -0.70782
 Alpha  occ. eigenvalues --   -0.70753  -0.70375  -0.65282  -0.65131  -0.64923
 Alpha  occ. eigenvalues --   -0.64725  -0.62500  -0.62030  -0.55594  -0.55250
 Alpha  occ. eigenvalues --   -0.53460  -0.53214  -0.53057  -0.52772  -0.48571
 Alpha  occ. eigenvalues --   -0.48532  -0.48396  -0.48294  -0.44350  -0.44297
 Alpha  occ. eigenvalues --   -0.37670  -0.37298  -0.36792  -0.36336
 Alpha virt. eigenvalues --    0.04991   0.05326   0.10703   0.11285   0.16401
 Alpha virt. eigenvalues --    0.16757   0.20775   0.21680   0.26467   0.27654
 Alpha virt. eigenvalues --    0.27711   0.28646   0.29898   0.31168   0.31848

 Mulliken charges:
               1
     1  C   -0.174521
     2  C   -0.217623
     3  C   -0.170804
     4  C    0.161295
     5  C   -0.187317
     6  C   -0.223049
     7  H    0.224877
     8  H    0.224564
     9  H    0.278103
    10  H    0.284909
    11  H    0.223957
    12  N    0.486894
    13  O   -0.442942
    14  O   -0.462452
    15  C   -0.171457
    16  C   -0.218622
    17  C   -0.170280
    18  C    0.159219
    19  C   -0.178880
    20  C   -0.223241
    21  H    0.223489
    22  H    0.223045
    23  H    0.276396
    24  H    0.280500
    25  H    0.219776
    26  N    0.486624
    27  O   -0.450065
    28  O   -0.462398
 Sum of Mulliken charges =  -0.00000

 Dipole moment (field-independent basis, Debye):
    X=             -0.0132    Y=              9.8366    Z=              0.0874  Tot=              9.8369
 Quadrupole moment (field-independent basis, Debye-Ang):
   XX=            -91.1011   YY=           -110.7900   ZZ=           -103.1243
   XY=              0.9857   XZ=              1.6477   YZ=             -0.4360

 Normal termination of Gaussian 16 at Thu May  6 08:21:49 2021.
