 Gaussian 16, Revision A.03,
 Gaussian 16:  EM64L-G16RevA.03 25-Dec-2016

 -------------
 #p 6-31g* mp2
 -------------

 ------------------------------------------------------
 Input file generated by CHIRIPA (05-May-2021 14:51:13)
 ------------------------------------------------------
 Symbolic Z-matrix:
 Charge =  0 Multiplicity = 1

                         Standard orientation:
 ---------------------------------------------------------------------
 Center     Atomic      Atomic             Coordinates (Angstroms)
 Number     Number       Type             X           Y           Z
 ---------------------------------------------------------------------
      1          6           0       -3.940406    0.544199    0.092566
      2          6           0       -2.602758    0.511314   -0.647437
      3          6           0       -1.694009    1.684239   -0.278363
      4          1           0       -4.452142    1.490532   -0.129977
      5          1           0       -3.752825    0.537373    1.175230
      6          1           0       -2.792844    0.516804   -1.728387
      7          1           0       -2.094234   -0.435133   -0.423259
      8          1           0       -1.475140    1.679310    0.794331
      9          1           0       -2.177719    2.636656   -0.518213
     10          1           0       -0.743263    1.641020   -0.818802
     11          6           0       -4.859846   -0.621949   -0.265842
     12          6           0       -6.197493   -0.589064    0.474160
     13          6           0       -7.106243   -1.761989    0.105086
     14          1           0       -5.047427   -0.615122   -1.348507
     15          1           0       -4.348110   -1.568282   -0.043299
     16          1           0       -6.706018    0.357383    0.249982
     17          1           0       -6.007408   -0.594553    1.555110
     18          1           0       -6.622533   -2.714406    0.344936
     19          1           0       -7.325112   -1.757060   -0.967608
     20          1           0       -8.056988   -1.718769    0.645526
     21          6           0        3.847992    0.375205    0.493410
     22          6           0        2.980880    1.326699   -0.331673
     23          6           0        1.880758    1.991855    0.496029
     24          1           0        3.208455   -0.396425    0.943436
     25          1           0        4.300029    0.931346    1.326334
     26          1           0        2.531715    0.769233   -1.163598
     27          1           0        3.622582    2.096041   -0.779945
     28          1           0        2.313971    2.572215    1.317071
     29          1           0        1.216907    1.237868    0.931238
     30          1           0        1.272935    2.667828   -0.113457
     31          6           0        4.952259   -0.297454   -0.320133
     32          6           0        5.819372   -1.248949    0.504949
     33          6           0        6.919494   -1.914106   -0.322752
     34          1           0        4.500223   -0.853597   -1.153057
     35          1           0        5.591797    0.474175   -0.770160
     36          1           0        5.177670   -2.018291    0.953221
     37          1           0        6.268537   -0.691483    1.336875
     38          1           0        7.583345   -1.160118   -0.757961
     39          1           0        6.486281   -2.494465   -1.143795
     40          1           0        7.527317   -2.590078    0.286733
 ---------------------------------------------------------------------

 SCF Done:  E(RHF) =  -470.732058940     A.U. after   11 cycles
 E2 =    -0.1582747285D+01 EUMP2 =    -0.47231480622525D+03

 The electronic state is 1-A.
 Alpha  occ. eigenvalues --  -11.21595 -11.21588 -11.21572 -11.21554 -11.21391
 Alpha  occ. eigenvalues --  -11.21381 -11.21331 -11.21321 -11.21066 -11.21063
 Alpha  occ. eigenvalues --  -11.20939 -11.20931  -1.08420  -1.08396  -1.03548
 Alpha  occ. eigenvalues --   -1.03456  -0.96057  -0.95846  -0.87131  -0.86807
 Alpha  occ. eigenvalues --   -0.79676  -0.79457  -0.78235  -0.78208  -0.65069
 Alpha  occ. eigenvalues --   -0.65015  -0.61020  -0.60821  -0.59609  -0.59083
 Alpha  occ. eigenvalues --   -0.57672  -0.57440  -0.55416  -0.55077  -0.53025
 Alpha  occ. eigenvalues --   -0.52438  -0.52346  -0.52169  -0.50051  -0.49687
 Alpha  occ. eigenvalues --   -0.47934  -0.47822  -0.46690  -0.46496  -0.45779
 Alpha  occ. eigenvalues --   -0.45749  -0.45705  -0.45662  -0.43956  -0.43493
 Alpha virt. eigenvalues --    0.22068   0.23040   0.23597   0.25010   0.26461
 Alpha virt. eigenvalues --    0.26725   0.27206   0.27244   0.27626   0.29004
 Alpha virt. eigenvalues --    0.30112   0.31092   0.31466   0.31841   0.32184

 Mulliken charges:
               1
     1  C   -0.298494
     2  C   -0.300189
     3  C   -0.477945
     4  H    0.149626
     5  H    0.149400
     6  H    0.151454
     7  H    0.151002
     8  H    0.156004
     9  H    0.153764
    10  H    0.165826
    11  C   -0.298178
    12  C   -0.299594
    13  C   -0.475674
    14  H    0.149433
    15  H    0.149412
    16  H    0.151933
    17  H    0.151884
    18  H    0.155098
    19  H    0.155145
    20  H    0.160211
    21  C   -0.298253
    22  C   -0.301397
    23  C   -0.477768
    24  H    0.149469
    25  H    0.149641
    26  H    0.151416
    27  H    0.151854
    28  H    0.154337
    29  H    0.157590
    30  H    0.163169
    31  C   -0.298245
    32  C   -0.299628
    33  C   -0.475691
    34  H    0.149430
    35  H    0.149651
    36  H    0.151840
    37  H    0.151918
    38  H    0.155182
    39  H    0.155155
    40  H    0.160209
 Sum of Mulliken charges =  -0.00000

 Dipole moment (field-independent basis, Debye):
    X=              0.0085    Y=              0.0218    Z=              0.0060  Tot=              0.0242
 Quadrupole moment (field-independent basis, Debye-Ang):
   XX=            -85.7696   YY=            -84.7998   ZZ=            -84.4240
   XY=              0.1249   XZ=              0.7057   YZ=             -0.6532

 Normal termination of Gaussian 16 at Wed May  5 15:20:30 2021.
