 Gaussian 16, Revision A.03,
 Gaussian 16:  EM64L-G16RevA.03 25-Dec-2016

 -------------
 #p 6-31g* mp2
 -------------

 ------------------------------------------------------
 Input file generated by CHIRIPA (05-May-2021 14:53:16)
 ------------------------------------------------------
 Symbolic Z-matrix:
 Charge =  0 Multiplicity = 1

                         Standard orientation:
 ---------------------------------------------------------------------
 Center     Atomic      Atomic             Coordinates (Angstroms)
 Number     Number       Type             X           Y           Z
 ---------------------------------------------------------------------
      1          6           0        2.741442    0.529202   -0.484616
      2          6           0        2.960401    2.033152   -0.316759
      3          6           0        1.753090    2.859518   -0.760961
      4          1           0        2.515022    0.313365   -1.537752
      5          1           0        1.856902    0.227742    0.093404
      6          1           0        3.845075    2.331442   -0.893812
      7          1           0        3.186514    2.245409    0.736064
      8          1           0        0.866480    2.590473   -0.177747
      9          1           0        1.528783    2.676995   -1.816884
     10          1           0        1.931234    3.931709   -0.632386
     11          6           0        3.939611   -0.310249   -0.044799
     12          6           0        3.720652   -1.814200   -0.212656
     13          6           0        4.927962   -2.640565    0.231546
     14          1           0        4.824150   -0.008790   -0.622819
     15          1           0        4.166030   -0.094413    1.008337
     16          1           0        3.494539   -2.026457   -1.265479
     17          1           0        2.835977   -2.112489    0.364397
     18          1           0        5.152269   -2.458042    1.287469
     19          1           0        5.814572   -2.371521   -0.351668
     20          1           0        4.749819   -3.712756    0.102971
     21          6           0       -3.911551   -2.041942   -0.711768
     22          6           0       -2.986627   -2.238561    0.318947
     23          6           0       -2.259751   -1.161868    0.835602
     24          6           0       -2.483936    0.103610    0.295607
     25          6           0       -3.398454    0.331594   -0.731511
     26          6           0       -4.114157   -0.759754   -1.232789
     27          1           0       -4.471866   -2.884035   -1.107145
     28          1           0       -2.827216   -3.233217    0.725511
     29          1           0       -1.537520   -1.285771    1.633380
     30          1           0       -3.535605    1.334809   -1.116436
     31          1           0       -4.831817   -0.604089   -2.033274
     32          7           0       -1.720340    1.251214    0.834427
     33          8           0       -1.936216    2.356230    0.341503
     34          8           0       -0.920416    1.023960    1.739476
 ---------------------------------------------------------------------

 SCF Done:  E(RHF) =  -669.536792484     A.U. after   15 cycles
 E2 =    -0.2092003089D+01 EUMP2 =    -0.67162879557395D+03

 The electronic state is 1-A.
 Alpha  occ. eigenvalues --  -20.61081 -20.61070 -15.86064 -11.31338 -11.27894
 Alpha  occ. eigenvalues --  -11.27887 -11.27622 -11.26886 -11.26876 -11.21251
 Alpha  occ. eigenvalues --  -11.20807 -11.20796 -11.20577 -11.20516 -11.19639
 Alpha  occ. eigenvalues --   -1.60115  -1.39669  -1.19498  -1.08914  -1.07727
 Alpha  occ. eigenvalues --   -1.04885  -1.02769  -0.95764  -0.95201  -0.86289
 Alpha  occ. eigenvalues --   -0.86220  -0.82601  -0.78884  -0.77665  -0.77505
 Alpha  occ. eigenvalues --   -0.72279  -0.71428  -0.70609  -0.65154  -0.64890
 Alpha  occ. eigenvalues --   -0.64350  -0.62233  -0.60151  -0.58650  -0.56816
 Alpha  occ. eigenvalues --   -0.55399  -0.54474  -0.53217  -0.52977  -0.51908
 Alpha  occ. eigenvalues --   -0.51640  -0.49334  -0.49057  -0.48866  -0.47164
 Alpha  occ. eigenvalues --   -0.45913  -0.45125  -0.45045  -0.44837  -0.43031
 Alpha  occ. eigenvalues --   -0.37470  -0.36481
 Alpha virt. eigenvalues --    0.04806   0.11168   0.16300   0.21277   0.23507
 Alpha virt. eigenvalues --    0.25130   0.26961   0.27358   0.27899   0.28495
 Alpha virt. eigenvalues --    0.28863   0.30899   0.32198   0.32326   0.32425

 Mulliken charges:
               1
     1  C   -0.300941
     2  C   -0.297500
     3  C   -0.484893
     4  H    0.144330
     5  H    0.154680
     6  H    0.145883
     7  H    0.154239
     8  H    0.179443
     9  H    0.146006
    10  H    0.157755
    11  C   -0.297597
    12  C   -0.298361
    13  C   -0.475223
    14  H    0.147781
    15  H    0.150975
    16  H    0.149669
    17  H    0.148823
    18  H    0.155498
    19  H    0.155052
    20  H    0.157096
    21  C   -0.170293
    22  C   -0.218497
    23  C   -0.170641
    24  C    0.160450
    25  C   -0.170466
    26  C   -0.218645
    27  H    0.226231
    28  H    0.224064
    29  H    0.275621
    30  H    0.276209
    31  H    0.224047
    32  N    0.487112
    33  O   -0.457212
    34  O   -0.460697
 Sum of Mulliken charges =  -0.00000

 Dipole moment (field-independent basis, Debye):
    X=             -3.0038    Y=             -3.9876    Z=             -1.7778  Tot=              5.2995
 Quadrupole moment (field-independent basis, Debye-Ang):
   XX=            -81.8566   YY=            -94.7797   ZZ=            -93.6738
   XY=              8.9707   XZ=              5.6089   YZ=             -3.2353

 Normal termination of Gaussian 16 at Thu May  6 13:52:45 2021.
