 Gaussian 16, Revision A.03,
 Gaussian 16:  EM64L-G16RevA.03 25-Dec-2016

 -------------
 #p 6-31g* mp2
 -------------

 ------------------------------------------------------
 Input file generated by CHIRIPA (05-May-2021 14:51:08)
 ------------------------------------------------------
 Symbolic Z-matrix:
 Charge =  0 Multiplicity = 1

                         Standard orientation:
 ---------------------------------------------------------------------
 Center     Atomic      Atomic             Coordinates (Angstroms)
 Number     Number       Type             X           Y           Z
 ---------------------------------------------------------------------
      1          6           0        2.729348   -1.087372    0.623475
      2          6           0        1.288763   -1.411118    1.020829
      3          6           0        1.203404   -2.447203    2.142004
      4          1           0        3.232952   -2.011880    0.309448
      5          1           0        3.271906   -0.720011    1.505558
      6          1           0        0.748704   -1.776450    0.137945
      7          1           0        0.788473   -0.485701    1.333764
      8          1           0        1.717647   -2.087369    3.039041
      9          1           0        1.677653   -3.385453    1.836427
     10          1           0        0.164662   -2.663757    2.410294
     11          6           0        2.831090   -0.053147   -0.496237
     12          6           0        4.271674    0.270598   -0.893592
     13          6           0        4.357033    1.306684   -2.014767
     14          1           0        2.288531   -0.420508   -1.378321
     15          1           0        2.327485    0.871361   -0.182210
     16          1           0        4.771965   -0.654819   -1.206527
     17          1           0        4.811734    0.635931   -0.010708
     18          1           0        3.882785    2.244934   -1.709190
     19          1           0        3.842790    0.946850   -2.911803
     20          1           0        5.395776    1.523238   -2.283056
     21          6           0       -2.707789    0.979274    0.577391
     22          6           0       -1.465474    1.870598    0.590828
     23          6           0       -1.334428    2.682627    1.879714
     24          1           0       -3.601252    1.604420    0.711034
     25          1           0       -2.671169    0.298150    1.438858
     26          1           0       -1.503743    2.548895   -0.271184
     27          1           0       -0.574877    1.243278    0.456945
     28          1           0       -1.270971    2.019155    2.748265
     29          1           0       -2.205114    3.332191    2.015998
     30          1           0       -0.439603    3.312715    1.868015
     31          6           0       -2.852649    0.161245   -0.704628
     32          6           0       -4.094964   -0.730078   -0.718065
     33          6           0       -4.226010   -1.542108   -2.006951
     34          1           0       -2.889269    0.842368   -1.566095
     35          1           0       -1.959185   -0.463901   -0.838271
     36          1           0       -4.985560   -0.102759   -0.584183
     37          1           0       -4.056694   -1.408376    0.143946
     38          1           0       -3.355323   -2.191672   -2.143235
     39          1           0       -4.289466   -0.878636   -2.875502
     40          1           0       -5.120835   -2.172196   -1.995252
 ---------------------------------------------------------------------

 SCF Done:  E(RHF) =  -470.733280026     A.U. after   11 cycles
 E2 =    -0.1583443827D+01 EUMP2 =    -0.47231672385279D+03

 The electronic state is 1-A.
 Alpha  occ. eigenvalues --  -11.21681 -11.21630 -11.21581 -11.21539 -11.21456
 Alpha  occ. eigenvalues --  -11.21394 -11.21371 -11.21311 -11.21146 -11.21085
 Alpha  occ. eigenvalues --  -11.21080 -11.21062  -1.08493  -1.08395  -1.03589
 Alpha  occ. eigenvalues --   -1.03507  -0.96026  -0.95964  -0.87044  -0.86979
 Alpha  occ. eigenvalues --   -0.79684  -0.79552  -0.78367  -0.78143  -0.65189
 Alpha  occ. eigenvalues --   -0.64975  -0.61092  -0.60813  -0.59402  -0.59322
 Alpha  occ. eigenvalues --   -0.57641  -0.57570  -0.55313  -0.55250  -0.52728
 Alpha  occ. eigenvalues --   -0.52658  -0.52452  -0.52389  -0.49996  -0.49889
 Alpha  occ. eigenvalues --   -0.48065  -0.47866  -0.46863  -0.46518  -0.46079
 Alpha  occ. eigenvalues --   -0.45751  -0.45711  -0.45274  -0.43834  -0.43760
 Alpha virt. eigenvalues --    0.20498   0.23120   0.23625   0.24527   0.25206
 Alpha virt. eigenvalues --    0.26387   0.26884   0.27892   0.28254   0.29457
 Alpha virt. eigenvalues --    0.30628   0.31539   0.31649   0.31846   0.32052

 Mulliken charges:
               1
     1  C   -0.298010
     2  C   -0.307112
     3  C   -0.475269
     4  H    0.149910
     5  H    0.149718
     6  H    0.152145
     7  H    0.158616
     8  H    0.155540
     9  H    0.155539
    10  H    0.159897
    11  C   -0.300483
    12  C   -0.299707
    13  C   -0.475742
    14  H    0.149663
    15  H    0.151625
    16  H    0.152094
    17  H    0.151998
    18  H    0.155371
    19  H    0.155345
    20  H    0.160311
    21  C   -0.297663
    22  C   -0.308387
    23  C   -0.475996
    24  H    0.149520
    25  H    0.149231
    26  H    0.151963
    27  H    0.160248
    28  H    0.154865
    29  H    0.155546
    30  H    0.159505
    31  C   -0.300008
    32  C   -0.299594
    33  C   -0.475615
    34  H    0.149377
    35  H    0.151680
    36  H    0.151864
    37  H    0.151786
    38  H    0.154880
    39  H    0.155165
    40  H    0.160187
 Sum of Mulliken charges =  -0.00000

 Dipole moment (field-independent basis, Debye):
    X=              0.0373    Y=             -0.0115    Z=             -0.0028  Tot=              0.0391
 Quadrupole moment (field-independent basis, Debye-Ang):
   XX=            -84.5963   YY=            -84.6532   ZZ=            -85.5364
   XY=             -0.7173   XZ=              0.2340   YZ=              0.1946

 Normal termination of Gaussian 16 at Thu May  6 10:00:33 2021.
