 Gaussian 16, Revision A.03,
 Gaussian 16:  EM64L-G16RevA.03 25-Dec-2016

 -------------
 #p 6-31g* mp2
 -------------

 ------------------------------------------------------
 Input file generated by CHIRIPA (05-May-2021 14:51:11)
 ------------------------------------------------------
 Symbolic Z-matrix:
 Charge =  0 Multiplicity = 1

                         Standard orientation:
 ---------------------------------------------------------------------
 Center     Atomic      Atomic             Coordinates (Angstroms)
 Number     Number       Type             X           Y           Z
 ---------------------------------------------------------------------
      1          6           0        4.269963   -0.543654    0.230454
      2          6           0        5.096132   -0.025186   -0.947094
      3          6           0        6.501047   -0.626701   -0.993859
      4          1           0        4.797808   -0.319293    1.167463
      5          1           0        4.199200   -1.638289    0.165945
      6          1           0        5.164150    1.068267   -0.881146
      7          1           0        4.566166   -0.250638   -1.881398
      8          1           0        6.450651   -1.716645   -1.083768
      9          1           0        7.052033   -0.390246   -0.077833
     10          1           0        7.074246   -0.242358   -1.843320
     11          6           0        2.863042    0.048519    0.290736
     12          6           0        2.036873   -0.469949    1.468285
     13          6           0        0.631958    0.131566    1.515049
     14          1           0        2.933805    1.143154    0.355245
     15          1           0        2.335196   -0.175842   -0.646273
     16          1           0        2.566839   -0.244497    2.402589
     17          1           0        1.968855   -1.563402    1.402336
     18          1           0        0.080972   -0.104889    0.599023
     19          1           0        0.682354    1.221510    1.604959
     20          1           0        0.058759   -0.252776    2.364510
     21          6           0       -3.161641    0.776871    0.112710
     22          6           0       -2.773920    1.970937   -0.760138
     23          6           0       -1.964319    3.021305    0.000828
     24          1           0       -3.740661    1.134035    0.975331
     25          1           0       -2.249923    0.316028    0.517417
     26          1           0       -3.686030    2.428553   -1.164194
     27          1           0       -2.195920    1.610869   -1.620883
     28          1           0       -1.038416    2.586074    0.390543
     29          1           0       -2.536993    3.408404    0.849828
     30          1           0       -1.697812    3.866027   -0.642038
     31          6           0       -3.971364   -0.281737   -0.633900
     32          6           0       -4.359085   -1.475802    0.238948
     33          6           0       -5.168685   -2.526170   -0.522018
     34          1           0       -4.883083    0.179108   -1.038607
     35          1           0       -3.392344   -0.638899   -1.496522
     36          1           0       -4.937085   -1.115734    1.099693
     37          1           0       -3.446975   -1.933418    0.643002
     38          1           0       -4.596012   -2.913268   -1.371019
     39          1           0       -6.094589   -2.090939   -0.911734
     40          1           0       -5.435192   -3.370892    0.120848
 ---------------------------------------------------------------------

 SCF Done:  E(RHF) =  -470.732593408     A.U. after   11 cycles
 E2 =    -0.1583461929D+01 EUMP2 =    -0.47231605533758D+03

 The electronic state is 1-A.
 Alpha  occ. eigenvalues --  -11.21676 -11.21636 -11.21556 -11.21504 -11.21462
 Alpha  occ. eigenvalues --  -11.21399 -11.21314 -11.21204 -11.21183 -11.21098
 Alpha  occ. eigenvalues --  -11.21040 -11.20925  -1.08492  -1.08343  -1.03605
 Alpha  occ. eigenvalues --   -1.03445  -0.96057  -0.95896  -0.87082  -0.86916
 Alpha  occ. eigenvalues --   -0.79720  -0.79480  -0.78322  -0.78123  -0.65140
 Alpha  occ. eigenvalues --   -0.64976  -0.61006  -0.60867  -0.59417  -0.59270
 Alpha  occ. eigenvalues --   -0.57681  -0.57492  -0.55484  -0.55070  -0.52763
 Alpha  occ. eigenvalues --   -0.52597  -0.52518  -0.52305  -0.50153  -0.49681
 Alpha  occ. eigenvalues --   -0.48134  -0.47737  -0.46702  -0.46532  -0.45948
 Alpha  occ. eigenvalues --   -0.45761  -0.45679  -0.45374  -0.43830  -0.43697
 Alpha virt. eigenvalues --    0.21500   0.22989   0.23813   0.24727   0.25939
 Alpha virt. eigenvalues --    0.26157   0.27235   0.27452   0.27876   0.29349
 Alpha virt. eigenvalues --    0.30637   0.31446   0.31609   0.31843   0.32094

 Mulliken charges:
               1
     1  C   -0.298313
     2  C   -0.299698
     3  C   -0.475748
     4  H    0.149850
     5  H    0.149595
     6  H    0.152106
     7  H    0.151948
     8  H    0.155210
     9  H    0.155262
    10  H    0.160396
    11  C   -0.298611
    12  C   -0.300170
    13  C   -0.480749
    14  H    0.149757
    15  H    0.149558
    16  H    0.152372
    17  H    0.152105
    18  H    0.156757
    19  H    0.158602
    20  H    0.161578
    21  C   -0.307574
    22  C   -0.298591
    23  C   -0.481681
    24  H    0.148961
    25  H    0.160592
    26  H    0.151452
    27  H    0.150664
    28  H    0.162104
    29  H    0.154431
    30  H    0.159197
    31  C   -0.297710
    32  C   -0.299539
    33  C   -0.475597
    34  H    0.149261
    35  H    0.148608
    36  H    0.151917
    37  H    0.151614
    38  H    0.154893
    39  H    0.155169
    40  H    0.160022
 Sum of Mulliken charges =  -0.00000

 Dipole moment (field-independent basis, Debye):
    X=              0.0738    Y=             -0.0167    Z=              0.0429  Tot=              0.0870
 Quadrupole moment (field-independent basis, Debye-Ang):
   XX=            -85.5260   YY=            -84.9479   ZZ=            -84.5603
   XY=             -0.2163   XZ=             -0.1493   YZ=              0.2151

 Normal termination of Gaussian 16 at Wed May  5 23:05:41 2021.
