 Gaussian 16, Revision A.03,
 Gaussian 16:  EM64L-G16RevA.03 25-Dec-2016

 -------------
 #p 6-31g* mp2
 -------------

 ------------------------------------------------------
 Input file generated by CHIRIPA (05-May-2021 14:51:12)
 ------------------------------------------------------
 Symbolic Z-matrix:
 Charge =  0 Multiplicity = 1

                         Standard orientation:
 ---------------------------------------------------------------------
 Center     Atomic      Atomic             Coordinates (Angstroms)
 Number     Number       Type             X           Y           Z
 ---------------------------------------------------------------------
      1          6           0        3.714364   -0.470483    0.188256
      2          6           0        4.189529   -1.765397   -0.471594
      3          6           0        4.816042   -2.741296    0.524848
      4          1           0        4.564626    0.011208    0.690227
      5          1           0        2.984745   -0.713404    0.973139
      6          1           0        4.916999   -1.520009   -1.255933
      7          1           0        3.338077   -2.243964   -0.972214
      8          1           0        4.094602   -3.014999    1.301516
      9          1           0        5.682495   -2.286931    1.016186
     10          1           0        5.148727   -3.660071    0.031865
     11          6           0        3.085708    0.515241   -0.795038
     12          6           0        2.610544    1.810155   -0.135188
     13          6           0        1.984031    2.786054   -1.131630
     14          1           0        3.815327    0.758161   -1.579921
     15          1           0        2.235447    0.033550   -1.297008
     16          1           0        3.461995    2.288722    0.365433
     17          1           0        1.883074    1.564767    0.649151
     18          1           0        1.117578    2.331689   -1.622967
     19          1           0        2.705470    3.059757   -1.908297
     20          1           0        1.651346    3.704829   -0.638647
     21          6           0       -3.827354   -0.646929    0.199620
     22          6           0       -5.059438   -0.400738   -0.671783
     23          6           0       -5.904268   -1.659580   -0.870214
     24          1           0       -3.213123   -1.433949   -0.258928
     25          1           0       -4.149255   -1.031485    1.177317
     26          1           0       -4.735389   -0.015454   -1.647060
     27          1           0       -5.670709    0.385921   -0.211207
     28          1           0       -6.255683   -2.043473    0.092975
     29          1           0       -5.315050   -2.447128   -1.351037
     30          1           0       -6.779853   -1.460918   -1.496108
     31          6           0       -2.972719    0.602172    0.407161
     32          6           0       -1.740635    0.355981    1.278564
     33          6           0       -0.895805    1.614822    1.476996
     34          1           0       -2.650818    0.986727   -0.570536
     35          1           0       -3.586949    1.389191    0.865710
     36          1           0       -1.129364   -0.430679    0.817987
     37          1           0       -2.064683   -0.029304    2.253841
     38          1           0       -1.485023    2.402371    1.957818
     39          1           0       -0.544389    1.998715    0.513806
     40          1           0       -0.020218    1.416160    2.102889
 ---------------------------------------------------------------------

 SCF Done:  E(RHF) =  -470.732311142     A.U. after   11 cycles
 E2 =    -0.1583560329D+01 EUMP2 =    -0.47231587147118D+03

 The electronic state is 1-A.
 Alpha  occ. eigenvalues --  -11.21663 -11.21630 -11.21591 -11.21449 -11.21442
 Alpha  occ. eigenvalues --  -11.21389 -11.21373 -11.21308 -11.21094 -11.21085
 Alpha  occ. eigenvalues --  -11.21063 -11.21051  -1.08480  -1.08387  -1.03608
 Alpha  occ. eigenvalues --   -1.03464  -0.96064  -0.95922  -0.87051  -0.86971
 Alpha  occ. eigenvalues --   -0.79686  -0.79517  -0.78291  -0.78199  -0.65207
 Alpha  occ. eigenvalues --   -0.64959  -0.61243  -0.60680  -0.59450  -0.59266
 Alpha  occ. eigenvalues --   -0.57642  -0.57565  -0.55512  -0.55039  -0.52761
 Alpha  occ. eigenvalues --   -0.52633  -0.52455  -0.52359  -0.49960  -0.49894
 Alpha  occ. eigenvalues --   -0.47962  -0.47853  -0.46733  -0.46501  -0.45833
 Alpha  occ. eigenvalues --   -0.45773  -0.45729  -0.45620  -0.43799  -0.43723
 Alpha virt. eigenvalues --    0.20915   0.23231   0.23681   0.24811   0.26282
 Alpha virt. eigenvalues --    0.26396   0.27007   0.27413   0.28061   0.29267
 Alpha virt. eigenvalues --    0.30800   0.31236   0.31821   0.32013   0.32580

 Mulliken charges:
               1
     1  C   -0.298265
     2  C   -0.299529
     3  C   -0.475704
     4  H    0.149704
     5  H    0.148993
     6  H    0.151971
     7  H    0.151633
     8  H    0.155140
     9  H    0.155186
    10  H    0.160182
    11  C   -0.297401
    12  C   -0.308278
    13  C   -0.476810
    14  H    0.149134
    15  H    0.148392
    16  H    0.151131
    17  H    0.163058
    18  H    0.153246
    19  H    0.155555
    20  H    0.160862
    21  C   -0.298323
    22  C   -0.299706
    23  C   -0.475732
    24  H    0.149512
    25  H    0.149670
    26  H    0.151996
    27  H    0.152062
    28  H    0.155229
    29  H    0.155181
    30  H    0.160385
    31  C   -0.298575
    32  C   -0.300087
    33  C   -0.483311
    34  H    0.149517
    35  H    0.150056
    36  H    0.151298
    37  H    0.152245
    38  H    0.155847
    39  H    0.163253
    40  H    0.161283
 Sum of Mulliken charges =  -0.00000

 Dipole moment (field-independent basis, Debye):
    X=             -0.0383    Y=              0.0216    Z=              0.0268  Tot=              0.0515
 Quadrupole moment (field-independent basis, Debye-Ang):
   XX=            -84.4569   YY=            -85.8834   ZZ=            -84.5040
   XY=              0.0437   XZ=             -1.0192   YZ=              0.4713

 Normal termination of Gaussian 16 at Thu May  6 07:05:46 2021.
