 Gaussian 16, Revision A.03,
 Gaussian 16:  EM64L-G16RevA.03 25-Dec-2016

 -------------
 #p 6-31g* mp2
 -------------

 ------------------------------------------------------
 Input file generated by CHIRIPA (05-May-2021 14:55:25)
 ------------------------------------------------------
 Symbolic Z-matrix:
 Charge =  0 Multiplicity = 1

                         Standard orientation:
 ---------------------------------------------------------------------
 Center     Atomic      Atomic             Coordinates (Angstroms)
 Number     Number       Type             X           Y           Z
 ---------------------------------------------------------------------
      1          6           0        3.892516    2.471964   -0.261751
      2          6           0        3.607812    1.998646    1.023330
      3          6           0        3.139494    0.694980    1.212229
      4          6           0        2.966584   -0.111860    0.088664
      5          6           0        3.241414    0.330724   -1.204348
      6          6           0        3.708732    1.637963   -1.369536
      7          1           0        4.255928    3.486071   -0.399283
      8          1           0        3.749598    2.644114    1.885486
      9          1           0        2.911297    0.302969    2.195932
     10          1           0        3.090136   -0.336194   -2.044440
     11          1           0        3.929020    2.002867   -2.368717
     12          7           0        2.471326   -1.493884    0.276092
     13          8           0        2.327383   -2.184886   -0.730106
     14          8           0        2.236463   -1.859944    1.425647
     15          6           0       -4.360453    0.309597    0.330093
     16          6           0       -5.587765    0.780540   -0.450870
     17          6           0       -6.495852    1.695954    0.370828
     18          1           0       -4.690138   -0.216307    1.236558
     19          1           0       -3.790411    1.186382    0.667280
     20          1           0       -6.154578   -0.096903   -0.787667
     21          1           0       -5.255120    1.305216   -1.355679
     22          1           0       -5.951315    2.588771    0.694804
     23          1           0       -6.855884    1.178684    1.266043
     24          1           0       -7.366941    2.020794   -0.206703
     25          6           0       -3.442960   -0.606337   -0.477992
     26          6           0       -2.215649   -1.077280    0.302971
     27          6           0       -1.307562   -1.992694   -0.518727
     28          1           0       -4.013003   -1.483122   -0.815179
     29          1           0       -3.113276   -0.080433   -1.384457
     30          1           0       -2.548293   -1.601957    1.207779
     31          1           0       -1.648835   -0.199838    0.639767
     32          1           0       -0.947530   -1.475424   -1.413942
     33          1           0       -1.852098   -2.885511   -0.842703
     34          1           0       -0.436472   -2.317535    0.058804
 ---------------------------------------------------------------------

 SCF Done:  E(RHF) =  -669.536140140     A.U. after   15 cycles
 E2 =    -0.2091599267D+01 EUMP2 =    -0.67162773940705D+03

 The electronic state is 1-A.
 Alpha  occ. eigenvalues --  -20.60937 -20.60924 -15.85938 -11.31280 -11.27842
 Alpha  occ. eigenvalues --  -11.27838 -11.27583 -11.26851 -11.26841 -11.21319
 Alpha  occ. eigenvalues --  -11.20999 -11.20865 -11.20856 -11.20797 -11.19855
 Alpha  occ. eigenvalues --   -1.59985  -1.39537  -1.19447  -1.08850  -1.07935
 Alpha  occ. eigenvalues --   -1.04844  -1.02954  -0.95693  -0.95375  -0.86388
 Alpha  occ. eigenvalues --   -0.86243  -0.82525  -0.79038  -0.77732  -0.77578
 Alpha  occ. eigenvalues --   -0.72161  -0.71316  -0.70556  -0.65101  -0.64847
 Alpha  occ. eigenvalues --   -0.64580  -0.62190  -0.60368  -0.58771  -0.56971
 Alpha  occ. eigenvalues --   -0.55349  -0.54689  -0.53184  -0.52936  -0.52009
 Alpha  occ. eigenvalues --   -0.51803  -0.49353  -0.48930  -0.48911  -0.47324
 Alpha  occ. eigenvalues --   -0.46117  -0.45271  -0.45225  -0.44909  -0.43156
 Alpha  occ. eigenvalues --   -0.37423  -0.36445
 Alpha virt. eigenvalues --    0.04910   0.11207   0.16405   0.21341   0.23294
 Alpha virt. eigenvalues --    0.24898   0.27083   0.27257   0.27938   0.28148
 Alpha virt. eigenvalues --    0.28728   0.30926   0.31912   0.32188   0.32503

 Mulliken charges:
               1
     1  C   -0.170582
     2  C   -0.218672
     3  C   -0.170945
     4  C    0.160038
     5  C   -0.170874
     6  C   -0.218694
     7  H    0.225944
     8  H    0.223804
     9  H    0.275932
    10  H    0.276004
    11  H    0.223777
    12  N    0.487587
    13  O   -0.457835
    14  O   -0.461037
    15  C   -0.297381
    16  C   -0.299076
    17  C   -0.475290
    18  H    0.149669
    19  H    0.146992
    20  H    0.152078
    21  H    0.150479
    22  H    0.153723
    23  H    0.155220
    24  H    0.159130
    25  C   -0.297209
    26  C   -0.298923
    27  C   -0.483664
    28  H    0.149363
    29  H    0.146682
    30  H    0.152262
    31  H    0.145787
    32  H    0.149467
    33  H    0.152846
    34  H    0.183397
 Sum of Mulliken charges =  -0.00000

 Dipole moment (field-independent basis, Debye):
    X=              1.9849    Y=              4.7735    Z=             -0.6420  Tot=              5.2095
 Quadrupole moment (field-independent basis, Debye-Ang):
   XX=            -86.0911   YY=            -95.9103   ZZ=            -90.1556
   XY=             15.5941   XZ=             -2.0053   YZ=              0.7280

 Normal termination of Gaussian 16 at Thu May  6 03:14:27 2021.
