 Gaussian 16, Revision A.03,
 Gaussian 16:  EM64L-G16RevA.03 25-Dec-2016

 -------------
 #p 6-31g* mp2
 -------------

 ------------------------------------------------------
 Input file generated by CHIRIPA (05-May-2021 14:53:18)
 ------------------------------------------------------
 Symbolic Z-matrix:
 Charge =  0 Multiplicity = 1

                         Standard orientation:
 ---------------------------------------------------------------------
 Center     Atomic      Atomic             Coordinates (Angstroms)
 Number     Number       Type             X           Y           Z
 ---------------------------------------------------------------------
      1          6           0        3.601046    0.950869   -0.391180
      2          6           0        3.104575    1.795650    0.782636
      3          6           0        2.696550    3.208303    0.363443
      4          1           0        4.455056    1.455971   -0.862864
      5          1           0        2.811399    0.894528   -1.153202
      6          1           0        3.894417    1.849232    1.542830
      7          1           0        2.251769    1.288384    1.251699
      8          1           0        1.891862    3.172806   -0.378055
      9          1           0        3.543843    3.736840   -0.085269
     10          1           0        2.344852    3.794812    1.217946
     11          6           0        4.012654   -0.463964    0.012000
     12          6           0        4.509126   -1.308745   -1.161816
     13          6           0        4.917151   -2.721397   -0.742623
     14          1           0        4.802302   -0.407623    0.774022
     15          1           0        3.158645   -0.969066    0.483684
     16          1           0        5.361932   -0.801479   -1.630879
     17          1           0        3.719284   -1.362327   -1.922010
     18          1           0        4.069858   -3.249935   -0.293911
     19          1           0        5.721839   -2.685901   -0.001125
     20          1           0        5.268849   -3.307907   -1.597126
     21          6           0       -1.100134   -0.701064    1.758454
     22          6           0       -0.993696    0.383849    0.882009
     23          6           0       -2.025826    0.676258   -0.014512
     24          6           0       -3.155270   -0.140808   -0.007564
     25          6           0       -3.290941   -1.228790    0.853354
     26          6           0       -2.246397   -1.502507    1.741360
     27          1           0       -0.293529   -0.920954    2.451586
     28          1           0       -0.104659    1.007978    0.893066
     29          1           0       -1.969562    1.509934   -0.703887
     30          1           0       -4.189460   -1.832857    0.818960
     31          1           0       -2.331798   -2.345717    2.420881
     32          7           0       -4.254511    0.158858   -0.952164
     33          8           0       -5.239181   -0.576257   -0.926312
     34          8           0       -4.110613    1.123177   -1.700508
 ---------------------------------------------------------------------

 SCF Done:  E(RHF) =  -669.535503337     A.U. after   15 cycles
 E2 =    -0.2091319142D+01 EUMP2 =    -0.67162682247890D+03

 The electronic state is 1-A.
 Alpha  occ. eigenvalues --  -20.60761 -20.60756 -15.85815 -11.31183 -11.27752
 Alpha  occ. eigenvalues --  -11.27746 -11.27495 -11.26770 -11.26737 -11.22668
 Alpha  occ. eigenvalues --  -11.22207 -11.22167 -11.22098 -11.21998 -11.21567
 Alpha  occ. eigenvalues --   -1.59837  -1.39390  -1.19355  -1.09226  -1.08750
 Alpha  occ. eigenvalues --   -1.04760  -1.04303  -0.96726  -0.95585  -0.87742
 Alpha  occ. eigenvalues --   -0.86160  -0.82417  -0.80381  -0.79017  -0.77464
 Alpha  occ. eigenvalues --   -0.72033  -0.71160  -0.70466  -0.65933  -0.65007
 Alpha  occ. eigenvalues --   -0.64742  -0.62200  -0.61604  -0.60103  -0.58332
 Alpha  occ. eigenvalues --   -0.56018  -0.55256  -0.53420  -0.53143  -0.53088
 Alpha  occ. eigenvalues --   -0.52850  -0.50676  -0.48810  -0.48788  -0.48660
 Alpha  occ. eigenvalues --   -0.47428  -0.46557  -0.46465  -0.44795  -0.44545
 Alpha  occ. eigenvalues --   -0.37339  -0.36361
 Alpha virt. eigenvalues --    0.05069   0.11266   0.16555   0.18696   0.22837
 Alpha virt. eigenvalues --    0.23440   0.25289   0.26122   0.27065   0.28356
 Alpha virt. eigenvalues --    0.29038   0.30489   0.30968   0.31096   0.31957

 Mulliken charges:
               1
     1  C   -0.299160
     2  C   -0.303089
     3  C   -0.477675
     4  H    0.153959
     5  H    0.150504
     6  H    0.156973
     7  H    0.139998
     8  H    0.153245
     9  H    0.161262
    10  H    0.162167
    11  C   -0.297650
    12  C   -0.300447
    13  C   -0.476029
    14  H    0.150760
    15  H    0.144933
    16  H    0.153841
    17  H    0.154119
    18  H    0.154355
    19  H    0.155530
    20  H    0.162813
    21  C   -0.173182
    22  C   -0.226459
    23  C   -0.172407
    24  C    0.159024
    25  C   -0.171282
    26  C   -0.218482
    27  H    0.225517
    28  H    0.234868
    29  H    0.275862
    30  H    0.275598
    31  H    0.223427
    32  N    0.487961
    33  O   -0.460463
    34  O   -0.460390
 Sum of Mulliken charges =  -0.00000

 Dipole moment (field-independent basis, Debye):
    X=              4.0799    Y=             -1.0286    Z=              3.2598  Tot=              5.3226
 Quadrupole moment (field-independent basis, Debye-Ang):
   XX=           -116.7225   YY=            -92.3995   ZZ=            -94.8299
   XY=              6.0366   XZ=            -11.7562   YZ=             -1.9032

 Normal termination of Gaussian 16 at Thu May  6 18:59:49 2021.
