 Gaussian 16, Revision A.03,
 Gaussian 16:  EM64L-G16RevA.03 25-Dec-2016

 -------------
 #p 6-31g* mp2
 -------------

 ------------------------------------------------------
 Input file generated by CHIRIPA (05-May-2021 14:55:24)
 ------------------------------------------------------
 Symbolic Z-matrix:
 Charge =  0 Multiplicity = 1

                         Standard orientation:
 ---------------------------------------------------------------------
 Center     Atomic      Atomic             Coordinates (Angstroms)
 Number     Number       Type             X           Y           Z
 ---------------------------------------------------------------------
      1          6           0        5.340859    0.327399   -0.796042
      2          6           0        5.155114   -0.732211    0.097963
      3          6           0        3.883392   -1.021845    0.601335
      4          6           0        2.814906   -0.227833    0.187606
      5          6           0        2.967860    0.834665   -0.701772
      6          6           0        4.248565    1.106083   -1.192357
      7          1           0        6.332253    0.545318   -1.182107
      8          1           0        6.001574   -1.338629    0.407492
      9          1           0        3.711263   -1.836176    1.294628
     10          1           0        2.104777    1.421445   -0.991936
     11          1           0        4.389847    1.929617   -1.886529
     12          7           0        1.463835   -0.524813    0.713735
     13          8           0        0.538783    0.189679    0.333714
     14          8           0        1.355501   -1.466455    1.496174
     15          6           0       -4.035853    0.910672    0.182129
     16          6           0       -2.917657    1.930992   -0.033678
     17          6           0       -3.227932    3.289859    0.594816
     18          1           0       -4.970526    1.306027   -0.238616
     19          1           0       -4.206388    0.786576    1.260513
     20          1           0       -2.748338    2.052098   -1.111305
     21          1           0       -1.985495    1.533081    0.387459
     22          1           0       -3.376194    3.189907    1.674923
     23          1           0       -4.143370    3.711872    0.167643
     24          1           0       -2.415398    4.004008    0.428560
     25          6           0       -3.740348   -0.452721   -0.440416
     26          6           0       -4.858543   -1.473041   -0.224610
     27          6           0       -4.548269   -2.831907   -0.853104
     28          1           0       -3.569812   -0.328625   -1.518801
     29          1           0       -2.805674   -0.848075   -0.019672
     30          1           0       -5.790705   -1.075129   -0.645747
     31          1           0       -5.027862   -1.594146    0.853017
     32          1           0       -3.632830   -3.253921   -0.425931
     33          1           0       -4.400007   -2.731955   -1.933210
     34          1           0       -5.360802   -3.546057   -0.686848
 ---------------------------------------------------------------------

 SCF Done:  E(RHF) =  -669.536379421     A.U. after   15 cycles
 E2 =    -0.2091001437D+01 EUMP2 =    -0.67162738085872D+03

 The electronic state is 1-A.
 Alpha  occ. eigenvalues --  -20.61009 -20.60999 -15.86039 -11.31327 -11.27887
 Alpha  occ. eigenvalues --  -11.27881 -11.27620 -11.26888 -11.26878 -11.20591
 Alpha  occ. eigenvalues --  -11.20227 -11.20179 -11.20172 -11.20084 -11.20077
 Alpha  occ. eigenvalues --   -1.60066  -1.39623  -1.19493  -1.08903  -1.07239
 Alpha  occ. eigenvalues --   -1.04884  -1.02431  -0.95750  -0.94917  -0.86286
 Alpha  occ. eigenvalues --   -0.85938  -0.82587  -0.78480  -0.77643  -0.77020
 Alpha  occ. eigenvalues --   -0.72262  -0.71376  -0.70601  -0.65150  -0.64888
 Alpha  occ. eigenvalues --   -0.63858  -0.62231  -0.59824  -0.58287  -0.56520
 Alpha  occ. eigenvalues --   -0.55391  -0.54208  -0.53218  -0.52976  -0.51649
 Alpha  occ. eigenvalues --   -0.51342  -0.49050  -0.49017  -0.48846  -0.46803
 Alpha  occ. eigenvalues --   -0.45485  -0.45027  -0.44602  -0.44406  -0.42668
 Alpha  occ. eigenvalues --   -0.37471  -0.36484
 Alpha virt. eigenvalues --    0.04884   0.11172   0.16386   0.21289   0.24044
 Alpha virt. eigenvalues --    0.25318   0.27228   0.27754   0.28076   0.28830
 Alpha virt. eigenvalues --    0.29063   0.30888   0.32288   0.32453   0.32825

 Mulliken charges:
               1
     1  C   -0.170492
     2  C   -0.218629
     3  C   -0.170398
     4  C    0.157286
     5  C   -0.170690
     6  C   -0.218568
     7  H    0.226126
     8  H    0.223909
     9  H    0.275865
    10  H    0.276182
    11  H    0.224009
    12  N    0.494892
    13  O   -0.466455
    14  O   -0.459273
    15  C   -0.296589
    16  C   -0.310799
    17  C   -0.474329
    18  H    0.143208
    19  H    0.148338
    20  H    0.144704
    21  H    0.181386
    22  H    0.153965
    23  H    0.150134
    24  H    0.155093
    25  C   -0.302152
    26  C   -0.298677
    27  C   -0.475532
    28  H    0.144512
    29  H    0.166941
    30  H    0.147600
    31  H    0.151294
    32  H    0.158474
    33  H    0.152273
    34  H    0.156392
 Sum of Mulliken charges =  -0.00000

 Dipole moment (field-independent basis, Debye):
    X=              5.1557    Y=              0.9390    Z=             -1.7673  Tot=              5.5305
 Quadrupole moment (field-independent basis, Debye-Ang):
   XX=            -69.0456   YY=            -94.4578   ZZ=            -94.1709
   XY=              0.5314   XZ=             -3.2451   YZ=             -2.5851

 Normal termination of Gaussian 16 at Wed May  5 17:37:00 2021.
