 Gaussian 16, Revision A.03,
 Gaussian 16:  EM64L-G16RevA.03 25-Dec-2016

 -------------
 #p 6-31g* mp2
 -------------

 ------------------------------------------------------
 Input file generated by CHIRIPA (05-May-2021 14:57:25)
 ------------------------------------------------------
 Symbolic Z-matrix:
 Charge =  0 Multiplicity = 1

                         Standard orientation:
 ---------------------------------------------------------------------
 Center     Atomic      Atomic             Coordinates (Angstroms)
 Number     Number       Type             X           Y           Z
 ---------------------------------------------------------------------
      1          6           0        2.109771    2.665500    0.404840
      2          6           0        1.335862    1.683675   -0.222540
      3          6           0        1.861471    0.410364   -0.461208
      4          6           0        3.170526    0.152077   -0.057536
      5          6           0        3.966647    1.109172    0.569721
      6          6           0        3.420383    2.375626    0.798274
      7          1           0        1.693442    3.651975    0.586315
      8          1           0        0.317722    1.905971   -0.529166
      9          1           0        1.284445   -0.368371   -0.944978
     10          1           0        4.978402    0.857830    0.863995
     11          1           0        4.023728    3.136171    1.285707
     12          7           0        3.737898   -1.192291   -0.304850
     13          8           0        4.893861   -1.394728    0.060399
     14          8           0        3.015899   -2.018113   -0.859260
     15          6           0       -1.601072   -2.363578    0.493932
     16          6           0       -1.449537   -1.649784   -0.699406
     17          6           0       -2.261777   -0.545589   -0.974304
     18          6           0       -3.219706   -0.181266   -0.029354
     19          6           0       -3.394934   -0.872214    1.168635
     20          6           0       -2.571575   -1.973202    1.422507
     21          1           0       -0.965786   -3.220098    0.699313
     22          1           0       -0.696664   -1.950677   -1.422379
     23          1           0       -2.165862    0.024851   -1.890174
     24          1           0       -4.154214   -0.548276    1.870045
     25          1           0       -2.691502   -2.525675    2.350105
     26          7           0       -4.085473    0.985999   -0.309247
     27          8           0       -4.921998    1.286713    0.539538
     28          8           0       -3.911143    1.578084   -1.372111
 ---------------------------------------------------------------------

 SCF Done:  E(RHF) =  -868.338945011     A.U. after   16 cycles
 E2 =    -0.2600420317D+01 EUMP2 =    -0.87093936532792D+03

 The electronic state is 1-A.
 Alpha  occ. eigenvalues --  -20.61319 -20.61295 -20.61275 -20.61274 -15.86344
 Alpha  occ. eigenvalues --  -15.86340 -11.31674 -11.31520 -11.28280 -11.28200
 Alpha  occ. eigenvalues --  -11.28078 -11.28045 -11.27835 -11.27716 -11.27187
 Alpha  occ. eigenvalues --  -11.27144 -11.27014 -11.26986  -1.60370  -1.60368
 Alpha  occ. eigenvalues --   -1.39934  -1.39921  -1.19828  -1.19663  -1.09193
 Alpha  occ. eigenvalues --   -1.09083  -1.05246  -1.05025  -0.96040  -0.95957
 Alpha  occ. eigenvalues --   -0.86623  -0.86423  -0.82895  -0.82788  -0.78018
 Alpha  occ. eigenvalues --   -0.77834  -0.72572  -0.72547  -0.71700  -0.71686
 Alpha  occ. eigenvalues --   -0.70851  -0.70769  -0.65459  -0.65313  -0.65292
 Alpha  occ. eigenvalues --   -0.64935  -0.62697  -0.62276  -0.55625  -0.55510
 Alpha  occ. eigenvalues --   -0.53577  -0.53380  -0.53340  -0.53010  -0.49343
 Alpha  occ. eigenvalues --   -0.49316  -0.49304  -0.49290  -0.45381  -0.45335
 Alpha  occ. eigenvalues --   -0.37760  -0.37606  -0.36941  -0.36530
 Alpha virt. eigenvalues --    0.04541   0.04648   0.10570   0.11145   0.15952
 Alpha virt. eigenvalues --    0.16203   0.19908   0.21981   0.25471   0.26995
 Alpha virt. eigenvalues --    0.28221   0.29364   0.29477   0.31274   0.31940

 Mulliken charges:
               1
     1  C   -0.170384
     2  C   -0.221200
     3  C   -0.170833
     4  C    0.157537
     5  C   -0.170626
     6  C   -0.218699
     7  H    0.229506
     8  H    0.227999
     9  H    0.269092
    10  H    0.275771
    11  H    0.224872
    12  N    0.488445
    13  O   -0.457560
    14  O   -0.468756
    15  C   -0.169743
    16  C   -0.227508
    17  C   -0.179170
    18  C    0.158082
    19  C   -0.170216
    20  C   -0.218380
    21  H    0.235670
    22  H    0.232539
    23  H    0.273808
    24  H    0.276731
    25  H    0.226477
    26  N    0.487677
    27  O   -0.458451
    28  O   -0.462680
 Sum of Mulliken charges =  -0.00000

 Dipole moment (field-independent basis, Debye):
    X=              0.9998    Y=              0.5766    Z=              2.0492  Tot=              2.3519
 Quadrupole moment (field-independent basis, Debye-Ang):
   XX=           -132.9403   YY=           -101.8236   ZZ=           -101.1112
   XY=             29.9374   XZ=             -0.7338   YZ=             -0.2862

 Normal termination of Gaussian 16 at Fri May  7 09:37:10 2021.
