 Gaussian 16, Revision A.03,
 Gaussian 16:  EM64L-G16RevA.03 25-Dec-2016

 -------------
 #p 6-31g* mp2
 -------------

 ------------------------------------------------------
 Input file generated by CHIRIPA (05-May-2021 14:51:12)
 ------------------------------------------------------
 Symbolic Z-matrix:
 Charge =  0 Multiplicity = 1

                         Standard orientation:
 ---------------------------------------------------------------------
 Center     Atomic      Atomic             Coordinates (Angstroms)
 Number     Number       Type             X           Y           Z
 ---------------------------------------------------------------------
      1          6           0       -3.400588   -0.835301    0.124919
      2          6           0       -4.062360    0.520999   -0.121035
      3          6           0       -5.565909    0.504096    0.156179
      4          1           0       -3.883228   -1.591924   -0.508741
      5          1           0       -3.579093   -1.139205    1.165675
      6          1           0       -3.881482    0.822898   -1.160629
      7          1           0       -3.577960    1.274518    0.513143
      8          1           0       -5.762643    0.227573    1.197059
      9          1           0       -6.067889   -0.226613   -0.486223
     10          1           0       -6.018769    1.483679   -0.026012
     11          6           0       -1.897493   -0.834352   -0.147908
     12          6           0       -1.235722   -2.190652    0.098046
     13          6           0        0.267828   -2.173749   -0.179168
     14          1           0       -1.718989   -0.530448   -1.188664
     15          1           0       -1.414853   -0.077729    0.485752
     16          1           0       -1.720121   -2.944172   -0.536133
     17          1           0       -1.416600   -2.492551    1.137640
     18          1           0        0.769808   -1.443040    0.463234
     19          1           0        0.464562   -1.897226   -1.220049
     20          1           0        0.720688   -3.153333    0.003023
     21          6           0        2.127402    1.265568    0.366159
     22          6           0        1.079567    1.851548   -0.580758
     23          6           0        0.042896    2.710862    0.143594
     24          1           0        1.622556    0.663933    1.134345
     25          1           0        2.633771    2.085495    0.894086
     26          1           0        0.576281    1.030823   -1.107759
     27          1           0        1.586982    2.451703   -1.346892
     28          1           0        0.526993    3.548877    0.655433
     29          1           0       -0.489449    2.119924    0.895925
     30          1           0       -0.696470    3.119694   -0.552147
     31          6           0        3.170679    0.404085   -0.343170
     32          6           0        4.218514   -0.181895    0.603748
     33          6           0        5.255185   -1.041208   -0.120604
     34          1           0        2.664310   -0.415842   -0.871097
     35          1           0        3.675525    1.005721   -1.111356
     36          1           0        3.711100   -0.782050    1.369882
     37          1           0        4.721800    0.638830    1.130748
     38          1           0        5.787531   -0.450271   -0.872936
     39          1           0        4.771088   -1.879225   -0.632444
     40          1           0        5.994551   -1.450041    0.575136
 ---------------------------------------------------------------------

 SCF Done:  E(RHF) =  -470.731367734     A.U. after   11 cycles
 E2 =    -0.1586310860D+01 EUMP2 =    -0.47231767859390D+03

 The electronic state is 1-A.
 Alpha  occ. eigenvalues --  -11.21669 -11.21607 -11.21532 -11.21491 -11.21439
 Alpha  occ. eigenvalues --  -11.21379 -11.21334 -11.21225 -11.21143 -11.21077
 Alpha  occ. eigenvalues --  -11.21021 -11.21009  -1.08521  -1.08327  -1.03590
 Alpha  occ. eigenvalues --   -1.03455  -0.96100  -0.95863  -0.87062  -0.86935
 Alpha  occ. eigenvalues --   -0.79665  -0.79527  -0.78338  -0.78155  -0.65320
 Alpha  occ. eigenvalues --   -0.64869  -0.61009  -0.60867  -0.59372  -0.59280
 Alpha  occ. eigenvalues --   -0.57708  -0.57528  -0.55594  -0.54996  -0.52729
 Alpha  occ. eigenvalues --   -0.52621  -0.52477  -0.52231  -0.50082  -0.49765
 Alpha  occ. eigenvalues --   -0.48043  -0.47827  -0.46834  -0.46533  -0.46073
 Alpha  occ. eigenvalues --   -0.45883  -0.45378  -0.45264  -0.43829  -0.43704
 Alpha virt. eigenvalues --    0.20320   0.22456   0.23882   0.23952   0.25125
 Alpha virt. eigenvalues --    0.26047   0.26625   0.27676   0.29668   0.30038
 Alpha virt. eigenvalues --    0.30865   0.31219   0.31421   0.31770   0.32132

 Mulliken charges:
               1
     1  C   -0.297962
     2  C   -0.300600
     3  C   -0.475741
     4  H    0.149693
     5  H    0.149332
     6  H    0.151806
     7  H    0.153452
     8  H    0.155145
     9  H    0.155130
    10  H    0.160431
    11  C   -0.305238
    12  C   -0.299400
    13  C   -0.483330
    14  H    0.149989
    15  H    0.156758
    16  H    0.152111
    17  H    0.151767
    18  H    0.163158
    19  H    0.155385
    20  H    0.160570
    21  C   -0.300929
    22  C   -0.304875
    23  C   -0.477333
    24  H    0.148264
    25  H    0.150286
    26  H    0.158526
    27  H    0.151798
    28  H    0.154835
    29  H    0.155488
    30  H    0.160759
    31  C   -0.304249
    32  C   -0.299537
    33  C   -0.475685
    34  H    0.157481
    35  H    0.149382
    36  H    0.151461
    37  H    0.151531
    38  H    0.154910
    39  H    0.155572
    40  H    0.159860
 Sum of Mulliken charges =  -0.00000

 Dipole moment (field-independent basis, Debye):
    X=             -0.0378    Y=             -0.0253    Z=             -0.0230  Tot=              0.0510
 Quadrupole moment (field-independent basis, Debye-Ang):
   XX=            -86.4381   YY=            -84.5776   ZZ=            -83.9844
   XY=              1.1343   XZ=              0.5294   YZ=             -0.1414

 Normal termination of Gaussian 16 at Wed May  5 21:32:05 2021.
