 Gaussian 16, Revision A.03,
 Gaussian 16:  EM64L-G16RevA.03 25-Dec-2016

 -------------
 #p 6-31g* mp2
 -------------

 ------------------------------------------------------
 Input file generated by CHIRIPA (05-May-2021 14:57:26)
 ------------------------------------------------------
 Symbolic Z-matrix:
 Charge =  0 Multiplicity = 1

                         Standard orientation:
 ---------------------------------------------------------------------
 Center     Atomic      Atomic             Coordinates (Angstroms)
 Number     Number       Type             X           Y           Z
 ---------------------------------------------------------------------
      1          6           0       -4.688693    2.385140   -0.117285
      2          6           0       -3.417875    2.162329    0.422991
      3          6           0       -2.872868    0.875134    0.448397
      4          6           0       -3.629654   -0.170860   -0.077398
      5          6           0       -4.898545    0.019115   -0.622480
      6          6           0       -5.423676    1.314709   -0.637379
      7          1           0       -5.104347    3.388326   -0.132940
      8          1           0       -2.844810    2.991743    0.827607
      9          1           0       -1.891464    0.674390    0.860667
     10          1           0       -5.445924   -0.827667   -1.018403
     11          1           0       -6.410864    1.484786   -1.057592
     12          7           0       -3.063201   -1.538002   -0.056063
     13          8           0       -3.750092   -2.442655   -0.525552
     14          8           0       -1.943049   -1.679027    0.429744
     15          6           0        1.847079   -1.450289    1.028786
     16          6           0        2.545403   -1.890345   -0.100469
     17          6           0        3.586592   -1.125136   -0.634254
     18          6           0        3.904371    0.080483   -0.010722
     19          6           0        3.227333    0.545887    1.115469
     20          6           0        2.189669   -0.235718    1.632087
     21          1           0        1.039627   -2.051090    1.436775
     22          1           0        2.281522   -2.833181   -0.571077
     23          1           0        4.143729   -1.442019   -1.507525
     24          1           0        3.513337    1.490127    1.562718
     25          1           0        1.649073    0.108529    2.509182
     26          7           0        5.004765    0.899254   -0.566730
     27          8           0        5.265351    1.957712    0.001071
     28          8           0        5.585834    0.467045   -1.559802
 ---------------------------------------------------------------------

 SCF Done:  E(RHF) =  -868.339800317     A.U. after   16 cycles
 E2 =    -0.2598435102D+01 EUMP2 =    -0.87093823541913D+03

 The electronic state is 1-A.
 Alpha  occ. eigenvalues --  -20.61618 -20.61566 -20.60422 -20.60411 -15.86642
 Alpha  occ. eigenvalues --  -15.85471 -11.31780 -11.30674 -11.28345 -11.28303
 Alpha  occ. eigenvalues --  -11.28006 -11.27305 -11.27286 -11.27265 -11.27225
 Alpha  occ. eigenvalues --  -11.26772 -11.26220 -11.26081  -1.60659  -1.59500
 Alpha  occ. eigenvalues --   -1.40223  -1.39058  -1.19928  -1.18829  -1.09360
 Alpha  occ. eigenvalues --   -1.08206  -1.05300  -1.04226  -0.96238  -0.95071
 Alpha  occ. eigenvalues --   -0.86707  -0.85604  -0.83086  -0.81927  -0.78158
 Alpha  occ. eigenvalues --   -0.77037  -0.72891  -0.71964  -0.71689  -0.71033
 Alpha  occ. eigenvalues --   -0.70826  -0.69803  -0.65586  -0.65298  -0.64462
 Alpha  occ. eigenvalues --   -0.64209  -0.62655  -0.61589  -0.55798  -0.54550
 Alpha  occ. eigenvalues --   -0.53636  -0.53390  -0.52546  -0.52301  -0.49638
 Alpha  occ. eigenvalues --   -0.49592  -0.48455  -0.48431  -0.45677  -0.44501
 Alpha  occ. eigenvalues --   -0.37886  -0.36892  -0.36720  -0.35861
 Alpha virt. eigenvalues --    0.04369   0.05523   0.10767   0.11785   0.15913
 Alpha virt. eigenvalues --    0.17073   0.20786   0.22107   0.26661   0.27419
 Alpha virt. eigenvalues --    0.28099   0.29144   0.30627   0.31650   0.31968

 Mulliken charges:
               1
     1  C   -0.169867
     2  C   -0.218112
     3  C   -0.169826
     4  C    0.158187
     5  C   -0.170424
     6  C   -0.218380
     7  H    0.228032
     8  H    0.225001
     9  H    0.271427
    10  H    0.276478
    11  H    0.225489
    12  N    0.491871
    13  O   -0.456804
    14  O   -0.472659
    15  C   -0.167444
    16  C   -0.220048
    17  C   -0.171665
    18  C    0.156846
    19  C   -0.172399
    20  C   -0.224820
    21  H    0.243736
    22  H    0.227428
    23  H    0.274176
    24  H    0.271701
    25  H    0.218757
    26  N    0.488279
    27  O   -0.463526
    28  O   -0.461432
 Sum of Mulliken charges =  -0.00000

 Dipole moment (field-independent basis, Debye):
    X=             -6.2740    Y=              1.8069    Z=              1.8273  Tot=              6.7799
 Quadrupole moment (field-independent basis, Debye-Ang):
   XX=           -118.0967   YY=           -104.3980   ZZ=           -102.5254
   XY=            -28.6154   XZ=              9.8038   YZ=              3.4462

 Normal termination of Gaussian 16 at Thu May  6 00:24:12 2021.
