 Gaussian 16, Revision A.03,
 Gaussian 16:  EM64L-G16RevA.03 25-Dec-2016

 -------------
 #p 6-31g* mp2
 -------------

 ------------------------------------------------------
 Input file generated by CHIRIPA (05-May-2021 14:51:14)
 ------------------------------------------------------
 Symbolic Z-matrix:
 Charge =  0 Multiplicity = 1

                         Standard orientation:
 ---------------------------------------------------------------------
 Center     Atomic      Atomic             Coordinates (Angstroms)
 Number     Number       Type             X           Y           Z
 ---------------------------------------------------------------------
      1          6           0       -2.947216    1.191925   -0.279583
      2          6           0       -1.563284    1.800724   -0.051371
      3          6           0       -1.596164    3.326750    0.037841
      4          1           0       -3.374970    1.605503   -1.203123
      5          1           0       -3.614183    1.498047    0.538242
      6          1           0       -0.898749    1.492413   -0.868655
      7          1           0       -1.138695    1.385505    0.871631
      8          1           0       -2.236848    3.650606    0.864425
      9          1           0       -1.995539    3.758122   -0.885749
     10          1           0       -0.596363    3.740989    0.201138
     11          6           0       -2.930701   -0.332903   -0.370979
     12          6           0       -4.314633   -0.941702   -0.599191
     13          6           0       -4.281753   -2.467728   -0.688403
     14          1           0       -2.263733   -0.639025   -1.188804
     15          1           0       -2.502947   -0.746481    0.552561
     16          1           0       -4.739222   -0.526483   -1.522193
     17          1           0       -4.979168   -0.633391    0.218093
     18          1           0       -3.882378   -2.899100    0.235187
     19          1           0       -3.641069   -2.791584   -1.514988
     20          1           0       -5.281553   -2.881967   -0.851701
     21          6           0        2.553031   -0.345835    0.979109
     22          6           0        1.118876   -0.871342    0.908220
     23          6           0        0.359657   -0.696892    2.223875
     24          1           0        3.088248   -0.866737    1.784807
     25          1           0        2.533199    0.717904    1.253812
     26          1           0        1.141348   -1.933426    0.632379
     27          1           0        0.587068   -0.349263    0.102472
     28          1           0        0.307583    0.360909    2.501267
     29          1           0        0.865013   -1.232255    3.034186
     30          1           0       -0.663255   -1.079226    2.150845
     31          6           0        3.324885   -0.513187   -0.328547
     32          6           0        4.759041    0.012320   -0.257658
     33          6           0        5.518260   -0.162130   -1.573312
     34          1           0        3.344717   -1.576926   -0.603250
     35          1           0        2.789669    0.007715   -1.134245
     36          1           0        5.290849   -0.509758    0.548091
     37          1           0        4.736569    1.074405    0.018183
     38          1           0        5.012904    0.373233   -2.383624
     39          1           0        5.570334   -1.219931   -1.850704
     40          1           0        6.541172    0.220204   -1.500283
 ---------------------------------------------------------------------

 SCF Done:  E(RHF) =  -470.731706375     A.U. after   11 cycles
 E2 =    -0.1585023420D+01 EUMP2 =    -0.47231672979437D+03

 The electronic state is 1-A.
 Alpha  occ. eigenvalues --  -11.21608 -11.21587 -11.21555 -11.21478 -11.21405
 Alpha  occ. eigenvalues --  -11.21374 -11.21346 -11.21311 -11.21089 -11.21079
 Alpha  occ. eigenvalues --  -11.21073 -11.21063  -1.08481  -1.08362  -1.03590
 Alpha  occ. eigenvalues --   -1.03461  -0.95997  -0.95971  -0.87009  -0.86992
 Alpha  occ. eigenvalues --   -0.79653  -0.79543  -0.78361  -0.78123  -0.65159
 Alpha  occ. eigenvalues --   -0.64978  -0.61126  -0.60789  -0.59386  -0.59298
 Alpha  occ. eigenvalues --   -0.57711  -0.57480  -0.55340  -0.55229  -0.52733
 Alpha  occ. eigenvalues --   -0.52637  -0.52468  -0.52326  -0.50055  -0.49825
 Alpha  occ. eigenvalues --   -0.48112  -0.47725  -0.46812  -0.46470  -0.45998
 Alpha  occ. eigenvalues --   -0.45719  -0.45632  -0.45337  -0.43789  -0.43740
 Alpha virt. eigenvalues --    0.21133   0.22955   0.23915   0.24175   0.24962
 Alpha virt. eigenvalues --    0.26435   0.26744   0.28028   0.28257   0.29202
 Alpha virt. eigenvalues --    0.30643   0.31422   0.31675   0.31904   0.32361

 Mulliken charges:
               1
     1  C   -0.297181
     2  C   -0.310015
     3  C   -0.474822
     4  H    0.149360
     5  H    0.149247
     6  H    0.151359
     7  H    0.164367
     8  H    0.155173
     9  H    0.155074
    10  H    0.159355
    11  C   -0.304766
    12  C   -0.299345
    13  C   -0.475603
    14  H    0.149832
    15  H    0.155507
    16  H    0.151997
    17  H    0.151870
    18  H    0.154791
    19  H    0.155350
    20  H    0.160318
    21  C   -0.297904
    22  C   -0.305459
    23  C   -0.482436
    24  H    0.149315
    25  H    0.149025
    26  H    0.151396
    27  H    0.160940
    28  H    0.154794
    29  H    0.156429
    30  H    0.162591
    31  C   -0.298136
    32  C   -0.299599
    33  C   -0.475685
    34  H    0.149504
    35  H    0.149142
    36  H    0.151954
    37  H    0.151847
    38  H    0.155052
    39  H    0.155153
    40  H    0.160208
 Sum of Mulliken charges =  -0.00000

 Dipole moment (field-independent basis, Debye):
    X=             -0.0218    Y=             -0.0030    Z=              0.0043  Tot=              0.0224
 Quadrupole moment (field-independent basis, Debye-Ang):
   XX=            -85.2567   YY=            -85.2453   ZZ=            -84.4834
   XY=             -0.3812   XZ=              0.4923   YZ=             -0.4507

 Normal termination of Gaussian 16 at Thu May  6 04:01:10 2021.
