 Gaussian 16, Revision A.03,
 Gaussian 16:  EM64L-G16RevA.03 25-Dec-2016

 -------------
 #p 6-31g* mp2
 -------------

 ------------------------------------------------------
 Input file generated by CHIRIPA (05-May-2021 14:57:26)
 ------------------------------------------------------
 Symbolic Z-matrix:
 Charge =  0 Multiplicity = 1

                         Standard orientation:
 ---------------------------------------------------------------------
 Center     Atomic      Atomic             Coordinates (Angstroms)
 Number     Number       Type             X           Y           Z
 ---------------------------------------------------------------------
      1          6           0        3.089449    2.599092    0.363041
      2          6           0        2.132443    1.635490    0.697902
      3          6           0        2.370159    0.281090    0.445633
      4          6           0        3.581159   -0.075987   -0.145354
      5          6           0        4.554390    0.860488   -0.490503
      6          6           0        4.295243    2.209203   -0.229049
      7          1           0        2.896462    3.649014    0.562577
      8          1           0        1.195117    1.935380    1.157825
      9          1           0        1.646697   -0.485710    0.694706
     10          1           0        5.479370    0.530960   -0.947932
     11          1           0        5.040292    2.955367   -0.490171
     12          7           0        3.844163   -1.506820   -0.417282
     13          8           0        4.918986   -1.795586   -0.938824
     14          8           0        2.970502   -2.312449   -0.103727
     15          6           0       -1.657604   -1.422037    1.213001
     16          6           0       -2.682570   -2.119984    0.565827
     17          6           0       -3.729354   -1.431002   -0.053926
     18          6           0       -3.719585   -0.037806   -0.007012
     19          6           0       -2.712732    0.686036    0.629847
     20          6           0       -1.675923   -0.023719    1.242892
     21          1           0       -0.848311   -1.965323    1.691834
     22          1           0       -2.670935   -3.205938    0.541029
     23          1           0       -4.535508   -1.946218   -0.561948
     24          1           0       -2.751640    1.768551    0.637871
     25          1           0       -0.881248    0.520949    1.744761
     26          7           0       -4.822487    0.702584   -0.659566
     27          8           0       -4.790825    1.930005   -0.604138
     28          8           0       -5.697722    0.041461   -1.214111
 ---------------------------------------------------------------------

 SCF Done:  E(RHF) =  -868.337137172     A.U. after   16 cycles
 E2 =    -0.2600290266D+01 EUMP2 =    -0.87093742743796D+03

 The electronic state is 1-A.
 Alpha  occ. eigenvalues --  -20.61411 -20.61383 -20.61065 -20.61050 -15.86456
 Alpha  occ. eigenvalues --  -15.86119 -11.31832 -11.31551 -11.28492 -11.28361
 Alpha  occ. eigenvalues --  -11.28228 -11.28133 -11.28088 -11.27887 -11.27516
 Alpha  occ. eigenvalues --  -11.27355 -11.27326 -11.27056  -1.60470  -1.60134
 Alpha  occ. eigenvalues --   -1.40027  -1.39686  -1.20009  -1.19743  -1.09392
 Alpha  occ. eigenvalues --   -1.09120  -1.05441  -1.05169  -0.96229  -0.95937
 Alpha  occ. eigenvalues --   -0.86828  -0.86574  -0.83087  -0.82776  -0.78158
 Alpha  occ. eigenvalues --   -0.77805  -0.72679  -0.72337  -0.71789  -0.71457
 Alpha  occ. eigenvalues --   -0.71127  -0.70811  -0.65690  -0.65518  -0.65395
 Alpha  occ. eigenvalues --   -0.65184  -0.62898  -0.62403  -0.55903  -0.55636
 Alpha  occ. eigenvalues --   -0.53735  -0.53605  -0.53449  -0.53223  -0.49440
 Alpha  occ. eigenvalues --   -0.49422  -0.49100  -0.49086  -0.45430  -0.45078
 Alpha  occ. eigenvalues --   -0.37962  -0.37709  -0.37043  -0.36746
 Alpha virt. eigenvalues --    0.04435   0.04724   0.10623   0.10769   0.15907
 Alpha virt. eigenvalues --    0.16169   0.18006   0.22300   0.24611   0.25541
 Alpha virt. eigenvalues --    0.27968   0.29098   0.30282   0.31449   0.33477

 Mulliken charges:
               1
     1  C   -0.169625
     2  C   -0.219592
     3  C   -0.170159
     4  C    0.158796
     5  C   -0.169306
     6  C   -0.218307
     7  H    0.228524
     8  H    0.217157
     9  H    0.268831
    10  H    0.277713
    11  H    0.226362
    12  N    0.488594
    13  O   -0.457126
    14  O   -0.464340
    15  C   -0.172083
    16  C   -0.217504
    17  C   -0.169318
    18  C    0.158732
    19  C   -0.170220
    20  C   -0.223361
    21  H    0.232311
    22  H    0.228915
    23  H    0.277943
    24  H    0.273291
    25  H    0.215098
    26  N    0.488239
    27  O   -0.461266
    28  O   -0.458299
 Sum of Mulliken charges =  -0.00000

 Dipole moment (field-independent basis, Debye):
    X=              2.9846    Y=              2.3251    Z=              3.1130  Tot=              4.8994
 Quadrupole moment (field-independent basis, Debye-Ang):
   XX=           -134.6872   YY=           -101.4916   ZZ=           -105.6272
   XY=             31.9599   XZ=             -6.4886   YZ=             -0.1611

 Normal termination of Gaussian 16 at Thu May  6 16:27:22 2021.
