 Gaussian 16, Revision A.03,
 Gaussian 16:  EM64L-G16RevA.03 25-Dec-2016

 -------------
 #p 6-31g* mp2
 -------------

 ------------------------------------------------------
 Input file generated by CHIRIPA (05-May-2021 14:51:10)
 ------------------------------------------------------
 Symbolic Z-matrix:
 Charge =  0 Multiplicity = 1

                         Standard orientation:
 ---------------------------------------------------------------------
 Center     Atomic      Atomic             Coordinates (Angstroms)
 Number     Number       Type             X           Y           Z
 ---------------------------------------------------------------------
      1          6           0       -2.868636   -0.424232    0.168705
      2          6           0       -3.166503    0.560006   -0.962902
      3          6           0       -4.282860    1.544057   -0.611926
      4          1           0       -3.784580   -0.978960    0.414201
      5          1           0       -2.592479    0.138271    1.071325
      6          1           0       -3.440673   -0.004226   -1.863507
      7          1           0       -2.249696    1.112321   -1.205863
      8          1           0       -4.014275    2.132216    0.271551
      9          1           0       -5.212019    1.009325   -0.389830
     10          1           0       -4.479396    2.238377   -1.434820
     11          6           0       -1.754879   -1.414430   -0.167124
     12          6           0       -1.457012   -2.398668    0.964484
     13          6           0       -0.340655   -3.382719    0.613508
     14          1           0       -2.031036   -1.976933   -1.069744
     15          1           0       -0.838935   -0.859702   -0.412619
     16          1           0       -2.373819   -2.950983    1.207444
     17          1           0       -1.182842   -1.834436    1.865088
     18          1           0        0.588504   -2.847987    0.391411
     19          1           0       -0.609240   -3.970878   -0.269969
     20          1           0       -0.144119   -4.077039    1.436401
     21          6           0        2.219830    1.674368   -0.070794
     22          6           0        1.095791    2.231957    0.803057
     23          6           0        0.924147    3.743750    0.652007
     24          1           0        3.160877    2.179247    0.187028
     25          1           0        2.012488    1.917556   -1.122109
     26          1           0        1.304490    1.986589    1.852272
     27          1           0        0.157346    1.725555    0.543257
     28          1           0        0.691612    4.003267   -0.385866
     29          1           0        1.845273    4.265783    0.930587
     30          1           0        0.115396    4.121249    1.285470
     31          6           0        2.403685    0.164293    0.069212
     32          6           0        3.527724   -0.393296   -0.804638
     33          6           0        3.699369   -1.905088   -0.653589
     34          1           0        2.611026   -0.078894    1.120528
     35          1           0        1.462638   -0.340586   -0.188610
     36          1           0        4.466169    0.113106   -0.544838
     37          1           0        3.319025   -0.147927   -1.853855
     38          1           0        2.778242   -2.427121   -0.932170
     39          1           0        3.931903   -2.164605    0.384285
     40          1           0        4.508119   -2.282587   -1.287052
 ---------------------------------------------------------------------

 SCF Done:  E(RHF) =  -470.732864197     A.U. after   11 cycles
 E2 =    -0.1584861016D+01 EUMP2 =    -0.47231772521293D+03

 The electronic state is 1-A.
 Alpha  occ. eigenvalues --  -11.21686 -11.21642 -11.21637 -11.21584 -11.21469
 Alpha  occ. eigenvalues --  -11.21419 -11.21408 -11.21359 -11.21132 -11.21088
 Alpha  occ. eigenvalues --  -11.21088 -11.21015  -1.08522  -1.08426  -1.03599
 Alpha  occ. eigenvalues --   -1.03523  -0.96043  -0.95974  -0.87066  -0.86983
 Alpha  occ. eigenvalues --   -0.79691  -0.79566  -0.78435  -0.78160  -0.65387
 Alpha  occ. eigenvalues --   -0.64843  -0.61114  -0.60820  -0.59424  -0.59329
 Alpha  occ. eigenvalues --   -0.57708  -0.57546  -0.55414  -0.55188  -0.52725
 Alpha  occ. eigenvalues --   -0.52674  -0.52540  -0.52330  -0.50084  -0.49808
 Alpha  occ. eigenvalues --   -0.48140  -0.47801  -0.46866  -0.46577  -0.46338
 Alpha  occ. eigenvalues --   -0.45810  -0.45746  -0.45022  -0.43840  -0.43788
 Alpha virt. eigenvalues --    0.19311   0.21823   0.23693   0.24978   0.25442
 Alpha virt. eigenvalues --    0.26545   0.26770   0.27449   0.28495   0.29946
 Alpha virt. eigenvalues --    0.31170   0.31547   0.31636   0.31924   0.32413

 Mulliken charges:
               1
     1  C   -0.298255
     2  C   -0.301305
     3  C   -0.475609
     4  H    0.150016
     5  H    0.150392
     6  H    0.152085
     7  H    0.152302
     8  H    0.155403
     9  H    0.155311
    10  H    0.160314
    11  C   -0.307484
    12  C   -0.298762
    13  C   -0.483510
    14  H    0.149491
    15  H    0.156600
    16  H    0.151912
    17  H    0.152426
    18  H    0.162888
    19  H    0.154474
    20  H    0.160418
    21  C   -0.297561
    22  C   -0.304397
    23  C   -0.475576
    24  H    0.150258
    25  H    0.149493
    26  H    0.152158
    27  H    0.154918
    28  H    0.155395
    29  H    0.155610
    30  H    0.160333
    31  C   -0.309561
    32  C   -0.299075
    33  C   -0.479654
    34  H    0.149656
    35  H    0.159400
    36  H    0.152169
    37  H    0.151972
    38  H    0.159272
    39  H    0.155421
    40  H    0.160665
 Sum of Mulliken charges =  -0.00000

 Dipole moment (field-independent basis, Debye):
    X=              0.0249    Y=              0.0080    Z=              0.0020  Tot=              0.0262
 Quadrupole moment (field-independent basis, Debye-Ang):
   XX=            -84.4634   YY=            -86.1296   ZZ=            -84.0490
   XY=              1.4020   XZ=              0.8433   YZ=              0.2960

 Normal termination of Gaussian 16 at Wed May  5 15:11:01 2021.
