 Gaussian 16, Revision A.03,
 Gaussian 16:  EM64L-G16RevA.03 25-Dec-2016

 -------------
 #p 6-31g* mp2
 -------------

 ------------------------------------------------------
 Input file generated by CHIRIPA (05-May-2021 14:57:21)
 ------------------------------------------------------
 Symbolic Z-matrix:
 Charge =  0 Multiplicity = 1

                         Standard orientation:
 ---------------------------------------------------------------------
 Center     Atomic      Atomic             Coordinates (Angstroms)
 Number     Number       Type             X           Y           Z
 ---------------------------------------------------------------------
      1          6           0       -5.462080    1.460618   -0.217883
      2          6           0       -5.441175    0.244726   -0.909036
      3          6           0       -4.373519   -0.643826   -0.750502
      4          6           0       -3.338790   -0.282858    0.111084
      5          6           0       -3.330792    0.921178    0.813595
      6          6           0       -4.408679    1.794375    0.639714
      7          1           0       -6.295435    2.144902   -0.346997
      8          1           0       -6.257891   -0.017104   -1.575718
      9          1           0       -4.331899   -1.591646   -1.273305
     10          1           0       -2.502224    1.154469    1.471218
     11          1           0       -4.422248    2.737969    1.177758
     12          7           0       -2.203095   -1.215401    0.287040
     13          8           0       -1.303676   -0.873990    1.051972
     14          8           0       -2.233860   -2.270081   -0.343310
     15          6           0        3.960883    2.609528   -0.238823
     16          6           0        5.033061    1.712490   -0.191077
     17          6           0        4.803901    0.336088   -0.104187
     18          6           0        3.483921   -0.110629   -0.066930
     19          6           0        2.394579    0.758004   -0.112795
     20          6           0        2.647380    2.130267   -0.199599
     21          1           0        4.148083    3.677142   -0.306288
     22          1           0        6.054191    2.081844   -0.221370
     23          1           0        5.615322   -0.380523   -0.065716
     24          1           0        1.387683    0.359813   -0.080819
     25          1           0        1.812761    2.824595   -0.236522
     26          7           0        3.228805   -1.565572    0.025010
     27          8           0        2.056600   -1.933801    0.056333
     28          8           0        4.205880   -2.310179    0.064010
 ---------------------------------------------------------------------

 SCF Done:  E(RHF) =  -868.336294719     A.U. after   16 cycles
 E2 =    -0.2600140952D+01 EUMP2 =    -0.87093643567089D+03

 The electronic state is 1-A.
 Alpha  occ. eigenvalues --  -20.60653 -20.60602 -20.59671 -20.59563 -15.85679
 Alpha  occ. eigenvalues --  -15.84674 -11.31235 -11.30338 -11.27856 -11.27789
 Alpha  occ. eigenvalues --  -11.27583 -11.27010 -11.26893 -11.26866 -11.26845
 Alpha  occ. eigenvalues --  -11.26836 -11.26090 -11.26067  -1.59678  -1.58706
 Alpha  occ. eigenvalues --   -1.39236  -1.38239  -1.19420  -1.18568  -1.08773
 Alpha  occ. eigenvalues --   -1.07923  -1.04851  -1.04015  -0.95574  -0.94692
 Alpha  occ. eigenvalues --   -0.86239  -0.85399  -0.82407  -0.81514  -0.77434
 Alpha  occ. eigenvalues --   -0.76491  -0.71872  -0.71037  -0.70855  -0.70522
 Alpha  occ. eigenvalues --   -0.70049  -0.69675  -0.65067  -0.64849  -0.64213
 Alpha  occ. eigenvalues --   -0.64036  -0.62198  -0.61337  -0.55332  -0.54541
 Alpha  occ. eigenvalues --   -0.53170  -0.52942  -0.52341  -0.52112  -0.48626
 Alpha  occ. eigenvalues --   -0.48618  -0.47698  -0.47597  -0.44590  -0.43579
 Alpha  occ. eigenvalues --   -0.37407  -0.36596  -0.36466  -0.35636
 Alpha virt. eigenvalues --    0.05069   0.06034   0.11184   0.12013   0.16502
 Alpha virt. eigenvalues --    0.17445   0.21279   0.22102   0.27172   0.27774
 Alpha virt. eigenvalues --    0.28278   0.29097   0.30840   0.31611   0.32390

 Mulliken charges:
               1
     1  C   -0.171382
     2  C   -0.218328
     3  C   -0.170849
     4  C    0.158579
     5  C   -0.173437
     6  C   -0.218457
     7  H    0.225375
     8  H    0.224044
     9  H    0.277474
    10  H    0.272451
    11  H    0.222069
    12  N    0.487393
    13  O   -0.460132
    14  O   -0.451107
    15  C   -0.171556
    16  C   -0.219388
    17  C   -0.171280
    18  C    0.156710
    19  C   -0.174370
    20  C   -0.220166
    21  H    0.221408
    22  H    0.220268
    23  H    0.274066
    24  H    0.289018
    25  H    0.217889
    26  N    0.485512
    27  O   -0.444278
    28  O   -0.467527
 Sum of Mulliken charges =  -0.00000

 Dipole moment (field-independent basis, Debye):
    X=             -3.4339    Y=              8.0822    Z=             -0.9509  Tot=              8.8328
 Quadrupole moment (field-independent basis, Debye-Ang):
   XX=            -67.9682   YY=           -106.8675   ZZ=           -104.3214
   XY=              8.4731   XZ=              2.3450   YZ=              2.6528

 Normal termination of Gaussian 16 at Thu May  6 06:27:42 2021.
