 Gaussian 16, Revision A.03,
 Gaussian 16:  EM64L-G16RevA.03 25-Dec-2016

 -------------
 #p 6-31g* mp2
 -------------

 ------------------------------------------------------
 Input file generated by CHIRIPA (05-May-2021 14:53:18)
 ------------------------------------------------------
 Symbolic Z-matrix:
 Charge =  0 Multiplicity = 1

                         Standard orientation:
 ---------------------------------------------------------------------
 Center     Atomic      Atomic             Coordinates (Angstroms)
 Number     Number       Type             X           Y           Z
 ---------------------------------------------------------------------
      1          6           0        2.989302    0.936352   -0.217545
      2          6           0        3.821310    2.130231    0.251924
      3          6           0        3.039412    3.443837    0.222438
      4          1           0        2.628715    1.127265   -1.237582
      5          1           0        2.097222    0.847482    0.417821
      6          1           0        4.712260    2.215987   -0.383268
      7          1           0        4.180117    1.936370    1.270890
      8          1           0        2.159197    3.382854    0.870591
      9          1           0        2.694364    3.664060   -0.792966
     10          1           0        3.653138    4.284054    0.561903
     11          6           0        3.757207   -0.384058   -0.193710
     12          6           0        2.925200   -1.577937   -0.663180
     13          6           0        3.707097   -2.891543   -0.633693
     14          1           0        4.649287   -0.295187   -0.829077
     15          1           0        4.117794   -0.574970    0.826326
     16          1           0        2.566392   -1.384076   -1.682146
     17          1           0        2.034249   -1.663693   -0.027988
     18          1           0        4.052146   -3.111766    0.381710
     19          1           0        4.587313   -2.830560   -1.281846
     20          1           0        3.093371   -3.731760   -0.973158
     21          6           0       -1.099793   -1.328403    1.824964
     22          6           0       -2.053091   -0.402845    2.262097
     23          6           0       -2.909148    0.219778    1.348831
     24          6           0       -2.783808   -0.108171   -0.000253
     25          6           0       -1.844152   -1.026172   -0.466743
     26          6           0       -0.998544   -1.636569    0.464338
     27          1           0       -0.438846   -1.807323    2.541332
     28          1           0       -2.133985   -0.161585    3.318172
     29          1           0       -3.656106    0.939982    1.659924
     30          1           0       -1.787354   -1.246288   -1.525866
     31          1           0       -0.259137   -2.354985    0.121991
     32          7           0       -3.684545    0.544500   -0.976517
     33          8           0       -3.553992    0.238366   -2.159680
     34          8           0       -4.504042    1.349838   -0.540064
 ---------------------------------------------------------------------

 SCF Done:  E(RHF) =  -669.535416341     A.U. after   15 cycles
 E2 =    -0.2091723214D+01 EUMP2 =    -0.67162713955492D+03

 The electronic state is 1-A.
 Alpha  occ. eigenvalues --  -20.60772 -20.60767 -15.85826 -11.31205 -11.27775
 Alpha  occ. eigenvalues --  -11.27765 -11.27533 -11.26798 -11.26767 -11.22363
 Alpha  occ. eigenvalues --  -11.21940 -11.21912 -11.21802 -11.21750 -11.21277
 Alpha  occ. eigenvalues --   -1.59847  -1.39400  -1.19380  -1.08937  -1.08773
 Alpha  occ. eigenvalues --   -1.04784  -1.04037  -0.96461  -0.95606  -0.87477
 Alpha  occ. eigenvalues --   -0.86186  -0.82437  -0.80131  -0.78725  -0.77474
 Alpha  occ. eigenvalues --   -0.72045  -0.71170  -0.70490  -0.65607  -0.65032
 Alpha  occ. eigenvalues --   -0.64780  -0.62164  -0.61409  -0.59852  -0.58074
 Alpha  occ. eigenvalues --   -0.55739  -0.55289  -0.53202  -0.53091  -0.52931
 Alpha  occ. eigenvalues --   -0.52830  -0.50395  -0.48816  -0.48798  -0.48408
 Alpha  occ. eigenvalues --   -0.47157  -0.46256  -0.46170  -0.44803  -0.44276
 Alpha  occ. eigenvalues --   -0.37356  -0.36362
 Alpha virt. eigenvalues --    0.05054   0.11136   0.16524   0.20447   0.22633
 Alpha virt. eigenvalues --    0.23793   0.25810   0.26382   0.27263   0.28210
 Alpha virt. eigenvalues --    0.28527   0.30341   0.30990   0.31579   0.31952

 Mulliken charges:
               1
     1  C   -0.299792
     2  C   -0.300021
     3  C   -0.475944
     4  H    0.152101
     5  H    0.150038
     6  H    0.152876
     7  H    0.150657
     8  H    0.155140
     9  H    0.157635
    10  H    0.161014
    11  C   -0.297864
    12  C   -0.304257
    13  C   -0.476199
    14  H    0.152191
    15  H    0.148561
    16  H    0.154280
    17  H    0.144887
    18  H    0.154975
    19  H    0.159704
    20  H    0.157779
    21  C   -0.172917
    22  C   -0.218561
    23  C   -0.170882
    24  C    0.158606
    25  C   -0.171777
    26  C   -0.217571
    27  H    0.225551
    28  H    0.223434
    29  H    0.275707
    30  H    0.275950
    31  H    0.227266
    32  N    0.488098
    33  O   -0.460284
    34  O   -0.460379
 Sum of Mulliken charges =  -0.00000

 Dipole moment (field-independent basis, Debye):
    X=              3.2329    Y=             -2.2255    Z=              3.3955  Tot=              5.1897
 Quadrupole moment (field-independent basis, Debye-Ang):
   XX=           -111.9602   YY=            -94.5642   ZZ=            -91.2996
   XY=              5.3905   XZ=            -11.9663   YZ=              1.5915

 Normal termination of Gaussian 16 at Thu May  6 13:58:59 2021.
