 Gaussian 16, Revision A.03,
 Gaussian 16:  EM64L-G16RevA.03 25-Dec-2016

 -------------
 #p 6-31g* mp2
 -------------

 ------------------------------------------------------
 Input file generated by CHIRIPA (05-May-2021 14:53:13)
 ------------------------------------------------------
 Symbolic Z-matrix:
 Charge =  0 Multiplicity = 1

                         Standard orientation:
 ---------------------------------------------------------------------
 Center     Atomic      Atomic             Coordinates (Angstroms)
 Number     Number       Type             X           Y           Z
 ---------------------------------------------------------------------
      1          6           0       -3.588727    0.562266    0.359950
      2          6           0       -3.531323    2.028185   -0.071061
      3          6           0       -4.013015    2.984549    1.020330
      4          1           0       -4.620093    0.309668    0.641772
      5          1           0       -2.976390    0.428431    1.262461
      6          1           0       -4.142474    2.158936   -0.973289
      7          1           0       -2.500011    2.277269   -0.352072
      8          1           0       -3.397757    2.883374    1.920231
      9          1           0       -5.049553    2.764368    1.295485
     10          1           0       -3.963569    4.027121    0.691001
     11          6           0       -3.110332   -0.406030   -0.720452
     12          6           0       -3.167736   -1.871949   -0.289441
     13          6           0       -2.686044   -2.828313   -1.380832
     14          1           0       -3.722670   -0.272195   -1.622963
     15          1           0       -2.078966   -0.153433   -1.002274
     16          1           0       -4.199049   -2.121034   -0.008430
     17          1           0       -2.556585   -2.002700    0.612787
     18          1           0       -1.649506   -2.608132   -1.655987
     19          1           0       -3.301302   -2.727138   -2.280733
     20          1           0       -2.735490   -3.870886   -1.051503
     21          6           0        1.184261   -1.456155    1.679431
     22          6           0        0.700008   -1.079182    0.422486
     23          6           0        1.485031   -0.306263   -0.438260
     24          6           0        2.755315    0.073846   -0.007926
     25          6           0        3.265904   -0.285886    1.238341
     26          6           0        2.463408   -1.059004    2.082636
     27          1           0        0.567649   -2.056654    2.341690
     28          1           0       -0.293010   -1.386172    0.106705
     29          1           0        1.134951   -0.000432   -1.416692
     30          1           0        4.259852    0.035324    1.525242
     31          1           0        2.842085   -1.350299    3.058236
     32          7           0        3.595633    0.892205   -0.910452
     33          8           0        4.711328    1.214262   -0.507786
     34          8           0        3.122667    1.196084   -2.003429
 ---------------------------------------------------------------------

 SCF Done:  E(RHF) =  -669.534770317     A.U. after   15 cycles
 E2 =    -0.2092905444D+01 EUMP2 =    -0.67162767576070D+03

 The electronic state is 1-A.
 Alpha  occ. eigenvalues --  -20.60756 -20.60751 -15.85809 -11.31178 -11.27748
 Alpha  occ. eigenvalues --  -11.27739 -11.27479 -11.26764 -11.26684 -11.22745
 Alpha  occ. eigenvalues --  -11.22361 -11.22123 -11.22120 -11.22062 -11.21449
 Alpha  occ. eigenvalues --   -1.59832  -1.39385  -1.19347  -1.09298  -1.08738
 Alpha  occ. eigenvalues --   -1.04760  -1.04321  -0.96755  -0.95577  -0.87771
 Alpha  occ. eigenvalues --   -0.86153  -0.82416  -0.80409  -0.79047  -0.77470
 Alpha  occ. eigenvalues --   -0.72028  -0.71155  -0.70460  -0.66245  -0.64998
 Alpha  occ. eigenvalues --   -0.64613  -0.62310  -0.61422  -0.60142  -0.58346
 Alpha  occ. eigenvalues --   -0.56071  -0.55241  -0.53433  -0.53175  -0.53062
 Alpha  occ. eigenvalues --   -0.52809  -0.50717  -0.48807  -0.48783  -0.48664
 Alpha  occ. eigenvalues --   -0.47503  -0.46566  -0.46498  -0.44790  -0.44570
 Alpha  occ. eigenvalues --   -0.37327  -0.36346
 Alpha virt. eigenvalues --    0.05061   0.11253   0.16484   0.18842   0.23059
 Alpha virt. eigenvalues --    0.23846   0.24584   0.25666   0.27239   0.28538
 Alpha virt. eigenvalues --    0.29371   0.30377   0.30950   0.31259   0.31840

 Mulliken charges:
               1
     1  C   -0.297924
     2  C   -0.300766
     3  C   -0.476278
     4  H    0.151994
     5  H    0.147793
     6  H    0.153855
     7  H    0.154588
     8  H    0.155470
     9  H    0.155381
    10  H    0.163422
    11  C   -0.301217
    12  C   -0.307754
    13  C   -0.477918
    14  H    0.156182
    15  H    0.143173
    16  H    0.160863
    17  H    0.141715
    18  H    0.150371
    19  H    0.162279
    20  H    0.163968
    21  C   -0.174556
    22  C   -0.228232
    23  C   -0.175667
    24  C    0.159095
    25  C   -0.171230
    26  C   -0.218365
    27  H    0.225664
    28  H    0.242494
    29  H    0.275508
    30  H    0.275590
    31  H    0.223366
    32  N    0.488069
    33  O   -0.460555
    34  O   -0.460377
 Sum of Mulliken charges =  -0.00000

 Dipole moment (field-independent basis, Debye):
    X=             -3.1867    Y=             -2.8369    Z=              3.1348  Tot=              5.2943
 Quadrupole moment (field-independent basis, Debye-Ang):
   XX=           -107.0116   YY=            -96.2959   ZZ=            -93.0659
   XY=             -7.8258   XZ=             12.5964   YZ=             -0.1635

 Normal termination of Gaussian 16 at Thu May  6 15:24:03 2021.
