 Gaussian 16, Revision A.03,
 Gaussian 16:  EM64L-G16RevA.03 25-Dec-2016

 -------------
 #p 6-31g* mp2
 -------------

 ------------------------------------------------------
 Input file generated by CHIRIPA (05-May-2021 14:53:12)
 ------------------------------------------------------
 Symbolic Z-matrix:
 Charge =  0 Multiplicity = 1

                         Standard orientation:
 ---------------------------------------------------------------------
 Center     Atomic      Atomic             Coordinates (Angstroms)
 Number     Number       Type             X           Y           Z
 ---------------------------------------------------------------------
      1          6           0        2.223219    0.776908    0.340852
      2          6           0        2.307875    1.955379    1.311431
      3          6           0        1.009821    2.760603    1.378250
      4          1           0        1.970862    1.152125   -0.660384
      5          1           0        1.397638    0.118770    0.645262
      6          1           0        3.133929    2.610371    1.006086
      7          1           0        2.560247    1.577333    2.310432
      8          1           0        0.179382    2.126302    1.704801
      9          1           0        0.756324    3.165210    0.393043
     10          1           0        1.092499    3.598136    2.077938
     11          6           0        3.513208   -0.037710    0.263045
     12          6           0        3.428552   -1.216181   -0.707534
     13          6           0        4.726606   -2.021405   -0.774354
     14          1           0        4.338788    0.620429   -0.041366
     15          1           0        3.765564   -0.412926    1.264281
     16          1           0        3.176179   -0.838134   -1.706536
     17          1           0        2.602497   -1.871173   -0.402189
     18          1           0        4.980102   -2.426012    0.210853
     19          1           0        5.557044   -1.387104   -1.100905
     20          1           0        4.643927   -2.858938   -1.474042
     21          6           0       -2.602362   -2.451055    1.012951
     22          6           0       -3.617792   -1.490091    0.968587
     23          6           0       -3.428508   -0.288411    0.279612
     24          6           0       -2.205836   -0.079706   -0.356631
     25          6           0       -1.174907   -1.017681   -0.330605
     26          6           0       -1.386304   -2.212205    0.364357
     27          1           0       -2.757991   -3.381770    1.550488
     28          1           0       -4.563224   -1.672878    1.471373
     29          1           0       -4.197652    0.472705    0.229231
     30          1           0       -0.243255   -0.806946   -0.841519
     31          1           0       -0.595930   -2.956703    0.397130
     32          7           0       -1.993744    1.188671   -1.089186
     33          8           0       -0.907450    1.348460   -1.641518
     34          8           0       -2.917817    1.999019   -1.097161
 ---------------------------------------------------------------------

 SCF Done:  E(RHF) =  -669.535558062     A.U. after   15 cycles
 E2 =    -0.2093875100D+01 EUMP2 =    -0.67162943316167D+03

 The electronic state is 1-A.
 Alpha  occ. eigenvalues --  -20.60839 -20.60825 -15.85866 -11.31196 -11.27780
 Alpha  occ. eigenvalues --  -11.27711 -11.27521 -11.26783 -11.26770 -11.21861
 Alpha  occ. eigenvalues --  -11.21339 -11.21268 -11.21222 -11.21038 -11.20424
 Alpha  occ. eigenvalues --   -1.59890  -1.39446  -1.19377  -1.08777  -1.08317
 Alpha  occ. eigenvalues --   -1.04775  -1.03380  -0.95805  -0.95613  -0.86822
 Alpha  occ. eigenvalues --   -0.86171  -0.82452  -0.79500  -0.78215  -0.77401
 Alpha  occ. eigenvalues --   -0.72090  -0.71197  -0.70488  -0.65068  -0.64949
 Alpha  occ. eigenvalues --   -0.64747  -0.62121  -0.60780  -0.59209  -0.57414
 Alpha  occ. eigenvalues --   -0.55296  -0.55061  -0.53121  -0.52896  -0.52519
 Alpha  occ. eigenvalues --   -0.52176  -0.49746  -0.48850  -0.48843  -0.47802
 Alpha  occ. eigenvalues --   -0.46552  -0.45714  -0.45524  -0.44674  -0.43627
 Alpha  occ. eigenvalues --   -0.37354  -0.36344
 Alpha virt. eigenvalues --    0.04983   0.11217   0.16427   0.20261   0.23120
 Alpha virt. eigenvalues --    0.24324   0.25286   0.26480   0.27981   0.28012
 Alpha virt. eigenvalues --    0.29750   0.30847   0.31780   0.31887   0.31991

 Mulliken charges:
               1
     1  C   -0.307601
     2  C   -0.299032
     3  C   -0.478564
     4  H    0.169108
     5  H    0.140754
     6  H    0.152111
     7  H    0.147532
     8  H    0.147888
     9  H    0.172815
    10  H    0.157391
    11  C   -0.297264
    12  C   -0.300411
    13  C   -0.475319
    14  H    0.151819
    15  H    0.147305
    16  H    0.156773
    17  H    0.138827
    18  H    0.154541
    19  H    0.158190
    20  H    0.159235
    21  C   -0.170171
    22  C   -0.218821
    23  C   -0.170661
    24  C    0.156298
    25  C   -0.171784
    26  C   -0.222178
    27  H    0.225685
    28  H    0.223511
    29  H    0.275667
    30  H    0.283657
    31  H    0.223953
    32  N    0.489842
    33  O   -0.461381
    34  O   -0.459715
 Sum of Mulliken charges =  -0.00000

 Dipole moment (field-independent basis, Debye):
    X=             -0.7787    Y=             -4.2941    Z=              2.4189  Tot=              4.9897
 Quadrupole moment (field-independent basis, Debye-Ang):
   XX=            -87.7694   YY=            -94.1426   ZZ=            -96.7219
   XY=              9.5388   XZ=             -7.3109   YZ=              0.9181

 Normal termination of Gaussian 16 at Thu May  6 10:23:39 2021.
