 Gaussian 16, Revision A.03,
 Gaussian 16:  EM64L-G16RevA.03 25-Dec-2016

 -------------
 #p 6-31g* mp2
 -------------

 ------------------------------------------------------
 Input file generated by CHIRIPA (05-May-2021 14:53:16)
 ------------------------------------------------------
 Symbolic Z-matrix:
 Charge =  0 Multiplicity = 1

                         Standard orientation:
 ---------------------------------------------------------------------
 Center     Atomic      Atomic             Coordinates (Angstroms)
 Number     Number       Type             X           Y           Z
 ---------------------------------------------------------------------
      1          6           0       -4.567705   -0.030473    0.244469
      2          6           0       -5.642651   -1.069366   -0.076744
      3          6           0       -6.759611   -1.106332    0.966725
      4          1           0       -4.140750   -0.247602    1.233160
      5          1           0       -5.035889    0.960955    0.317061
      6          1           0       -5.172363   -2.058339   -0.150074
      7          1           0       -6.066963   -0.849851   -1.064868
      8          1           0       -7.255246   -0.132544    1.035163
      9          1           0       -6.355563   -1.347899    1.955154
     10          1           0       -7.517218   -1.855841    0.717470
     11          6           0       -3.444261    0.018442   -0.789556
     12          6           0       -2.369316    1.057335   -0.468343
     13          6           0       -1.252356    1.094301   -1.511812
     14          1           0       -2.976077   -0.972986   -0.862148
     15          1           0       -3.871216    0.235571   -1.778247
     16          1           0       -1.945004    0.837820    0.519781
     17          1           0       -2.839603    2.046308   -0.395013
     18          1           0       -1.656403    1.335868   -2.500241
     19          1           0       -0.756720    0.120513   -1.580250
     20          1           0       -0.494748    1.843810   -1.262557
     21          6           0        1.894812    2.093405    0.904551
     22          6           0        2.301734    1.168227    1.871494
     23          6           0        2.986590    0.007480    1.499757
     24          6           0        3.249056   -0.197228    0.146061
     25          6           0        2.856669    0.705712   -0.840864
     26          6           0        2.173087    1.859607   -0.446160
     27          1           0        1.363294    2.992439    1.202245
     28          1           0        2.086988    1.347186    2.921210
     29          1           0        3.313121   -0.725383    2.227567
     30          1           0        3.085149    0.499806   -1.879525
     31          1           0        1.858272    2.576371   -1.199279
     32          7           0        3.973409   -1.422432   -0.259637
     33          8           0        4.192475   -1.579554   -1.458786
     34          8           0        4.308374   -2.202425    0.629209
 ---------------------------------------------------------------------

 SCF Done:  E(RHF) =  -669.534434149     A.U. after   15 cycles
 E2 =    -0.2092319724D+01 EUMP2 =    -0.67162675387323D+03

 The electronic state is 1-A.
 Alpha  occ. eigenvalues --  -20.60784 -20.60779 -15.85837 -11.31215 -11.27763
 Alpha  occ. eigenvalues --  -11.27752 -11.27513 -11.26803 -11.26785 -11.22042
 Alpha  occ. eigenvalues --  -11.21811 -11.21704 -11.21637 -11.21488 -11.21260
 Alpha  occ. eigenvalues --   -1.59859  -1.39412  -1.19384  -1.08793  -1.08729
 Alpha  occ. eigenvalues --   -1.04793  -1.03847  -0.96301  -0.95610  -0.87335
 Alpha  occ. eigenvalues --   -0.86186  -0.82443  -0.79923  -0.78545  -0.77490
 Alpha  occ. eigenvalues --   -0.72056  -0.71183  -0.70485  -0.65364  -0.65038
 Alpha  occ. eigenvalues --   -0.64832  -0.62163  -0.61240  -0.59699  -0.57925
 Alpha  occ. eigenvalues --   -0.55584  -0.55291  -0.53458  -0.52939  -0.52785
 Alpha  occ. eigenvalues --   -0.52525  -0.50219  -0.48816  -0.48809  -0.48234
 Alpha  occ. eigenvalues --   -0.46944  -0.46089  -0.46004  -0.44816  -0.44121
 Alpha  occ. eigenvalues --   -0.37332  -0.36321
 Alpha virt. eigenvalues --    0.05031   0.11170   0.16510   0.20895   0.22641
 Alpha virt. eigenvalues --    0.24113   0.26351   0.26429   0.27154   0.28065
 Alpha virt. eigenvalues --    0.28393   0.30486   0.31091   0.31639   0.31863

 Mulliken charges:
               1
     1  C   -0.298344
     2  C   -0.300022
     3  C   -0.475839
     4  H    0.149165
     5  H    0.148734
     6  H    0.153370
     7  H    0.152408
     8  H    0.154808
     9  H    0.155148
    10  H    0.161312
    11  C   -0.298923
    12  C   -0.299784
    13  C   -0.475056
    14  H    0.152184
    15  H    0.150413
    16  H    0.151100
    17  H    0.149445
    18  H    0.154401
    19  H    0.159645
    20  H    0.152157
    21  C   -0.170697
    22  C   -0.218447
    23  C   -0.171422
    24  C    0.158249
    25  C   -0.171668
    26  C   -0.214681
    27  H    0.225922
    28  H    0.223534
    29  H    0.275519
    30  H    0.275970
    31  H    0.224015
    32  N    0.487999
    33  O   -0.460196
    34  O   -0.460419
 Sum of Mulliken charges =  -0.00000

 Dipole moment (field-independent basis, Debye):
    X=             -2.5660    Y=              4.2643    Z=              1.4295  Tot=              5.1780
 Quadrupole moment (field-independent basis, Debye-Ang):
   XX=           -112.5717   YY=            -96.3288   ZZ=            -89.9916
   XY=             14.2447   XZ=              5.4345   YZ=             -1.4165

 Normal termination of Gaussian 16 at Thu May  6 18:53:20 2021.
