 Gaussian 16, Revision A.03,
 Gaussian 16:  EM64L-G16RevA.03 25-Dec-2016

 -------------
 #p 6-31g* mp2
 -------------

 ------------------------------------------------------
 Input file generated by CHIRIPA (05-May-2021 14:55:21)
 ------------------------------------------------------
 Symbolic Z-matrix:
 Charge =  0 Multiplicity = 1

                         Standard orientation:
 ---------------------------------------------------------------------
 Center     Atomic      Atomic             Coordinates (Angstroms)
 Number     Number       Type             X           Y           Z
 ---------------------------------------------------------------------
      1          6           0        0.528468    0.001244    1.525239
      2          6           0        0.637107   -1.001923    0.556542
      3          6           0        1.829061   -1.178163   -0.152494
      4          6           0        2.897274   -0.329547    0.133972
      5          6           0        2.820036    0.679025    1.093194
      6          6           0        1.618358    0.837043    1.790007
      7          1           0       -0.401247    0.131074    2.071288
      8          1           0       -0.207682   -1.652484    0.348823
      9          1           0        1.940520   -1.946759   -0.907647
     10          1           0        3.679385    1.312052    1.278163
     11          1           0        1.536855    1.616956    2.541763
     12          7           0        4.164289   -0.506480   -0.610183
     13          8           0        5.090846    0.254225   -0.339153
     14          8           0        4.206828   -1.402514   -1.450391
     15          6           0       -4.147211    0.122046   -0.201465
     16          6           0       -4.213611   -1.399764   -0.068535
     17          6           0       -5.632548   -1.909644    0.185304
     18          1           0       -4.545190    0.581394    0.713717
     19          1           0       -4.804582    0.440456   -1.022363
     20          1           0       -3.555247   -1.715333    0.750970
     21          1           0       -3.815250   -1.855544   -0.984063
     22          1           0       -6.297491   -1.623242   -0.635931
     23          1           0       -6.036009   -1.482235    1.108961
     24          1           0       -5.656931   -2.999985    0.277069
     25          6           0       -2.735231    0.646945   -0.455475
     26          6           0       -2.668832    2.168754   -0.588405
     27          6           0       -1.249895    2.678635   -0.842244
     28          1           0       -2.077861    0.328534    0.365422
     29          1           0       -2.337253    0.187597   -1.370657
     30          1           0       -3.067192    2.624534    0.327122
     31          1           0       -3.327196    2.484324   -1.407910
     32          1           0       -0.846434    2.251226   -1.765901
     33          1           0       -0.584952    2.392232   -0.021010
     34          1           0       -1.225512    3.768976   -0.934010
 ---------------------------------------------------------------------

 SCF Done:  E(RHF) =  -669.534163305     A.U. after   15 cycles
 E2 =    -0.2094040148D+01 EUMP2 =    -0.67162820345221D+03

 The electronic state is 1-A.
 Alpha  occ. eigenvalues --  -20.60769 -20.60764 -15.85823 -11.31202 -11.27782
 Alpha  occ. eigenvalues --  -11.27760 -11.27520 -11.26809 -11.26754 -11.22487
 Alpha  occ. eigenvalues --  -11.22258 -11.22203 -11.22141 -11.21762 -11.21465
 Alpha  occ. eigenvalues --   -1.59844  -1.39397  -1.19385  -1.09226  -1.08777
 Alpha  occ. eigenvalues --   -1.04783  -1.04221  -0.96648  -0.95620  -0.87664
 Alpha  occ. eigenvalues --   -0.86187  -0.82444  -0.80299  -0.79071  -0.77470
 Alpha  occ. eigenvalues --   -0.72043  -0.71167  -0.70546  -0.65879  -0.65036
 Alpha  occ. eigenvalues --   -0.64769  -0.62129  -0.61632  -0.60028  -0.58268
 Alpha  occ. eigenvalues --   -0.55967  -0.55304  -0.53335  -0.53189  -0.53021
 Alpha  occ. eigenvalues --   -0.52863  -0.50592  -0.48802  -0.48795  -0.48586
 Alpha  occ. eigenvalues --   -0.47345  -0.46558  -0.46512  -0.44800  -0.44496
 Alpha  occ. eigenvalues --   -0.37262  -0.36367
 Alpha virt. eigenvalues --    0.05018   0.11149   0.16421   0.19594   0.22884
 Alpha virt. eigenvalues --    0.23490   0.25303   0.25750   0.27218   0.27895
 Alpha virt. eigenvalues --    0.29894   0.30638   0.30979   0.31338   0.31570

 Mulliken charges:
               1
     1  C   -0.170765
     2  C   -0.215117
     3  C   -0.172076
     4  C    0.158765
     5  C   -0.170499
     6  C   -0.219881
     7  H    0.225727
     8  H    0.226399
     9  H    0.275740
    10  H    0.275885
    11  H    0.223836
    12  N    0.488075
    13  O   -0.460328
    14  O   -0.460398
    15  C   -0.298136
    16  C   -0.300144
    17  C   -0.475790
    18  H    0.149501
    19  H    0.153466
    20  H    0.143898
    21  H    0.152895
    22  H    0.158148
    23  H    0.156132
    24  H    0.161873
    25  C   -0.300462
    26  C   -0.300549
    27  C   -0.479208
    28  H    0.140978
    29  H    0.151832
    30  H    0.149743
    31  H    0.154933
    32  H    0.158281
    33  H    0.156287
    34  H    0.160958
 Sum of Mulliken charges =  -0.00000

 Dipole moment (field-independent basis, Debye):
    X=             -4.5177    Y=              0.6274    Z=              2.5471  Tot=              5.2241
 Quadrupole moment (field-independent basis, Debye-Ang):
   XX=           -120.8143   YY=            -92.8956   ZZ=            -92.2571
   XY=              4.6677   XZ=              8.8115   YZ=              1.6358

 Normal termination of Gaussian 16 at Wed May  5 20:34:44 2021.
