 Gaussian 16, Revision A.03,
 Gaussian 16:  EM64L-G16RevA.03 25-Dec-2016

 -------------
 #p 6-31g* mp2
 -------------

 ------------------------------------------------------
 Input file generated by CHIRIPA (05-May-2021 14:53:17)
 ------------------------------------------------------
 Symbolic Z-matrix:
 Charge =  0 Multiplicity = 1

                         Standard orientation:
 ---------------------------------------------------------------------
 Center     Atomic      Atomic             Coordinates (Angstroms)
 Number     Number       Type             X           Y           Z
 ---------------------------------------------------------------------
      1          6           0       -3.435278   -0.202642    0.063596
      2          6           0       -4.582801   -0.437303    1.046505
      3          6           0       -5.074044   -1.885223    1.046928
      4          1           0       -3.764253   -0.480021   -0.947236
      5          1           0       -2.602371   -0.873323    0.316278
      6          1           0       -5.412767    0.234600    0.792893
      7          1           0       -4.251117   -0.159151    2.055086
      8          1           0       -4.262822   -2.567175    1.321628
      9          1           0       -5.431071   -2.171187    0.052263
     10          1           0       -5.894445   -2.030616    1.756621
     11          6           0       -2.933291    1.240132    0.051680
     12          6           0       -1.785768    1.474793   -0.931229
     13          6           0       -1.294524    2.922713   -0.931652
     14          1           0       -3.766197    1.910813   -0.201002
     15          1           0       -2.604316    1.517511    1.062512
     16          1           0       -2.117451    1.196641   -1.939810
     17          1           0       -0.955802    0.802890   -0.677617
     18          1           0       -0.937497    3.208677    0.063013
     19          1           0       -2.105747    3.604665   -1.206352
     20          1           0       -0.474124    3.068106   -1.641345
     21          6           0        3.675948    1.276623    1.412805
     22          6           0        3.931046   -0.089697    1.569704
     23          6           0        3.278463   -1.030524    0.767502
     24          6           0        2.372849   -0.567869   -0.185968
     25          6           0        2.097357    0.786701   -0.366342
     26          6           0        2.761530    1.709698    0.446986
     27          1           0        4.187393    2.000554    2.040295
     28          1           0        4.640692   -0.428911    2.318957
     29          1           0        3.457128   -2.094218    0.867747
     30          1           0        1.384642    1.094468   -1.121811
     31          1           0        2.561444    2.770177    0.322910
     32          7           0        1.675853   -1.554441   -1.041112
     33          8           0        0.882486   -1.121195   -1.873880
     34          8           0        1.936113   -2.742283   -0.862413
 ---------------------------------------------------------------------

 SCF Done:  E(RHF) =  -669.535357193     A.U. after   15 cycles
 E2 =    -0.2092820062D+01 EUMP2 =    -0.67162817725552D+03

 The electronic state is 1-A.
 Alpha  occ. eigenvalues --  -20.60870 -20.60860 -15.85895 -11.31229 -11.27800
 Alpha  occ. eigenvalues --  -11.27753 -11.27534 -11.26810 -11.26785 -11.21377
 Alpha  occ. eigenvalues --  -11.21316 -11.21282 -11.21163 -11.20960 -11.20709
 Alpha  occ. eigenvalues --   -1.59932  -1.39487  -1.19403  -1.08804  -1.08168
 Alpha  occ. eigenvalues --   -1.04798  -1.03354  -0.95849  -0.95636  -0.86847
 Alpha  occ. eigenvalues --   -0.86201  -0.82472  -0.79395  -0.77964  -0.77495
 Alpha  occ. eigenvalues --   -0.72118  -0.71250  -0.70521  -0.65053  -0.64930
 Alpha  occ. eigenvalues --   -0.64694  -0.62214  -0.60708  -0.59203  -0.57426
 Alpha  occ. eigenvalues --   -0.55323  -0.55102  -0.53126  -0.52885  -0.52553
 Alpha  occ. eigenvalues --   -0.52243  -0.49769  -0.48913  -0.48876  -0.47689
 Alpha  occ. eigenvalues --   -0.46413  -0.45535  -0.45427  -0.44737  -0.43587
 Alpha  occ. eigenvalues --   -0.37384  -0.36385
 Alpha virt. eigenvalues --    0.04964   0.11161   0.16459   0.20443   0.23221
 Alpha virt. eigenvalues --    0.24032   0.26555   0.26974   0.27467   0.28082
 Alpha virt. eigenvalues --    0.29848   0.30218   0.31465   0.31611   0.32240

 Mulliken charges:
               1
     1  C   -0.298155
     2  C   -0.299650
     3  C   -0.475625
     4  H    0.153230
     5  H    0.153922
     6  H    0.150388
     7  H    0.149551
     8  H    0.156955
     9  H    0.156511
    10  H    0.158384
    11  C   -0.298540
    12  C   -0.305649
    13  C   -0.480609
    14  H    0.147914
    15  H    0.146025
    16  H    0.159357
    17  H    0.160352
    18  H    0.150502
    19  H    0.159071
    20  H    0.152371
    21  C   -0.170671
    22  C   -0.218625
    23  C   -0.170710
    24  C    0.157743
    25  C   -0.174514
    26  C   -0.221328
    27  H    0.225803
    28  H    0.223579
    29  H    0.275559
    30  H    0.283377
    31  H    0.224967
    32  N    0.487791
    33  O   -0.459673
    34  O   -0.459602
 Sum of Mulliken charges =  -0.00000

 Dipole moment (field-independent basis, Debye):
    X=              2.4607    Y=              3.3349    Z=              2.9416  Tot=              5.0823
 Quadrupole moment (field-independent basis, Debye-Ang):
   XX=            -82.2306   YY=            -97.5280   ZZ=            -94.8807
   XY=              4.4313   XZ=              9.0811   YZ=             -4.3060

 Normal termination of Gaussian 16 at Thu May  6 07:35:41 2021.
