 Gaussian 16, Revision A.03,
 Gaussian 16:  EM64L-G16RevA.03 25-Dec-2016

 -------------
 #p 6-31g* mp2
 -------------

 ------------------------------------------------------
 Input file generated by CHIRIPA (05-May-2021 14:57:22)
 ------------------------------------------------------
 Symbolic Z-matrix:
 Charge =  0 Multiplicity = 1

                         Standard orientation:
 ---------------------------------------------------------------------
 Center     Atomic      Atomic             Coordinates (Angstroms)
 Number     Number       Type             X           Y           Z
 ---------------------------------------------------------------------
      1          6           0        2.834040    2.600779    0.163151
      2          6           0        3.787799    2.047544    1.023845
      3          6           0        4.123191    0.693196    0.935516
      4          6           0        3.482378   -0.082284   -0.029512
      5          6           0        2.528056    0.439648   -0.901376
      6          6           0        2.208315    1.796483   -0.795024
      7          1           0        2.579578    3.653835    0.238767
      8          1           0        4.275353    2.669779    1.768935
      9          1           0        4.857971    0.239073    1.589189
     10          1           0        2.058985   -0.205829   -1.634008
     11          1           0        1.467237    2.223426   -1.464776
     12          7           0        3.829158   -1.517388   -0.132562
     13          8           0        3.250292   -2.179310   -0.991289
     14          8           0        4.673263   -1.953127    0.647345
     15          6           0       -5.899146    0.242892    0.309049
     16          6           0       -5.081477    1.262043   -0.190222
     17          6           0       -3.709413    1.053190   -0.358652
     18          6           0       -3.186055   -0.192631   -0.016139
     19          6           0       -3.974627   -1.227853    0.483621
     20          6           0       -5.344089   -0.996618    0.643787
     21          1           0       -6.963987    0.413828    0.436680
     22          1           0       -5.509798    2.225668   -0.451015
     23          1           0       -3.053381    1.824698   -0.743119
     24          1           0       -3.518753   -2.177852    0.734816
     25          1           0       -5.976689   -1.789937    1.031742
     26          7           0       -1.734890   -0.425583   -0.190074
     27          8           0       -1.298211   -1.532094    0.119090
     28          8           0       -1.061622    0.502752   -0.632274
 ---------------------------------------------------------------------

 SCF Done:  E(RHF) =  -868.338644622     A.U. after   16 cycles
 E2 =    -0.2599692675D+01 EUMP2 =    -0.87093833729779D+03

 The electronic state is 1-A.
 Alpha  occ. eigenvalues --  -20.61285 -20.61216 -20.59493 -20.59453 -15.86285
 Alpha  occ. eigenvalues --  -15.84523 -11.31541 -11.29746 -11.28133 -11.28059
 Alpha  occ. eigenvalues --  -11.27812 -11.27104 -11.27057 -11.26407 -11.26186
 Alpha  occ. eigenvalues --  -11.26135 -11.25456 -11.25224  -1.60310  -1.58550
 Alpha  occ. eigenvalues --   -1.39871  -1.38106  -1.19701  -1.17930  -1.09115
 Alpha  occ. eigenvalues --   -1.07381  -1.05089  -1.03295  -0.95971  -0.94228
 Alpha  occ. eigenvalues --   -0.86492  -0.84732  -0.82814  -0.81049  -0.77872
 Alpha  occ. eigenvalues --   -0.76095  -0.72517  -0.71617  -0.70809  -0.70757
 Alpha  occ. eigenvalues --   -0.69860  -0.69100  -0.65359  -0.65091  -0.63595
 Alpha  occ. eigenvalues --   -0.63333  -0.62439  -0.60647  -0.55591  -0.53908
 Alpha  occ. eigenvalues --   -0.53421  -0.53180  -0.51677  -0.51411  -0.49274
 Alpha  occ. eigenvalues --   -0.49227  -0.47517  -0.47494  -0.45297  -0.43540
 Alpha  occ. eigenvalues --   -0.37671  -0.36686  -0.35968  -0.34819
 Alpha virt. eigenvalues --    0.04660   0.06435   0.10970   0.12767   0.16176
 Alpha virt. eigenvalues --    0.17921   0.21103   0.22711   0.27021   0.27882
 Alpha virt. eigenvalues --    0.28732   0.29581   0.30700   0.32014   0.32390

 Mulliken charges:
               1
     1  C   -0.174174
     2  C   -0.219788
     3  C   -0.173298
     4  C    0.155455
     5  C   -0.156056
     6  C   -0.208374
     7  H    0.218467
     8  H    0.216829
     9  H    0.270627
    10  H    0.279943
    11  H    0.224391
    12  N    0.488728
    13  O   -0.458017
    14  O   -0.466975
    15  C   -0.170350
    16  C   -0.218390
    17  C   -0.170736
    18  C    0.158343
    19  C   -0.170189
    20  C   -0.218480
    21  H    0.226768
    22  H    0.223393
    23  H    0.271593
    24  H    0.278363
    25  H    0.225339
    26  N    0.490994
    27  O   -0.451594
    28  O   -0.472811
 Sum of Mulliken charges =  -0.00000

 Dipole moment (field-independent basis, Debye):
    X=             -6.8385    Y=              5.6436    Z=              0.8558  Tot=              8.9078
 Quadrupole moment (field-independent basis, Debye-Ang):
   XX=            -80.7735   YY=           -102.7179   ZZ=           -102.6997
   XY=             16.9834   XZ=              1.2987   YZ=             -1.9020

 Normal termination of Gaussian 16 at Wed May  5 20:58:41 2021.
