 Gaussian 16, Revision A.03,
 Gaussian 16:  EM64L-G16RevA.03 25-Dec-2016

 -------------
 #p 6-31g* mp2
 -------------

 ------------------------------------------------------
 Input file generated by CHIRIPA (05-May-2021 14:57:23)
 ------------------------------------------------------
 Symbolic Z-matrix:
 Charge =  0 Multiplicity = 1

                         Standard orientation:
 ---------------------------------------------------------------------
 Center     Atomic      Atomic             Coordinates (Angstroms)
 Number     Number       Type             X           Y           Z
 ---------------------------------------------------------------------
      1          6           0        4.679245    0.651142    1.000239
      2          6           0        3.814381    1.453227    0.248448
      3          6           0        2.727191    0.888124   -0.424772
      4          6           0        2.533735   -0.488728   -0.324062
      5          6           0        3.377755   -1.314389    0.417022
      6          6           0        4.458561   -0.727675    1.081982
      7          1           0        5.521321    1.098522    1.520004
      8          1           0        3.983323    2.524322    0.183182
      9          1           0        2.042053    1.485667   -1.013793
     10          1           0        3.183598   -2.379086    0.463305
     11          1           0        5.128592   -1.353038    1.665098
     12          7           0        1.386155   -1.098417   -1.032398
     13          8           0        1.237457   -2.313978   -0.927819
     14          8           0        0.657109   -0.349185   -1.678757
     15          6           0       -1.536579    2.534391   -0.386557
     16          6           0       -2.053360    1.717366   -1.397463
     17          6           0       -2.712525    0.526022   -1.080054
     18          6           0       -2.837557    0.180763    0.264734
     19          6           0       -2.333492    0.973615    1.294585
     20          6           0       -1.678046    2.160567    0.953876
     21          1           0       -1.025968    3.458150   -0.642178
     22          1           0       -1.944967    2.005167   -2.439320
     23          1           0       -3.122143   -0.125171   -1.842666
     24          1           0       -2.457054    0.660221    2.324116
     25          1           0       -1.277708    2.793123    1.741055
     26          7           0       -3.533418   -1.078135    0.613093
     27          8           0       -3.630475   -1.359936    1.805488
     28          8           0       -3.968598   -1.759221   -0.312853
 ---------------------------------------------------------------------

 SCF Done:  E(RHF) =  -868.337266087     A.U. after   16 cycles
 E2 =    -0.2601283709D+01 EUMP2 =    -0.87093854979627D+03

 The electronic state is 1-A.
 Alpha  occ. eigenvalues --  -20.61023 -20.61017 -20.59941 -20.59906 -15.86059
 Alpha  occ. eigenvalues --  -15.84978 -11.31480 -11.30311 -11.28102 -11.28017
 Alpha  occ. eigenvalues --  -11.27804 -11.27117 -11.27043 -11.26960 -11.26796
 Alpha  occ. eigenvalues --  -11.26746 -11.26062 -11.25878  -1.60087  -1.58995
 Alpha  occ. eigenvalues --   -1.39642  -1.38551  -1.19657  -1.18496  -1.09041
 Alpha  occ. eigenvalues --   -1.07935  -1.05073  -1.03899  -0.95871  -0.94769
 Alpha  occ. eigenvalues --   -0.86465  -0.85332  -0.82710  -0.81600  -0.77750
 Alpha  occ. eigenvalues --   -0.76623  -0.72302  -0.71410  -0.71211  -0.70766
 Alpha  occ. eigenvalues --   -0.70301  -0.69701  -0.65314  -0.65079  -0.64184
 Alpha  occ. eigenvalues --   -0.63960  -0.62424  -0.61268  -0.55567  -0.54521
 Alpha  occ. eigenvalues --   -0.53395  -0.53169  -0.52218  -0.52038  -0.49074
 Alpha  occ. eigenvalues --   -0.49022  -0.47970  -0.47951  -0.45019  -0.43962
 Alpha  occ. eigenvalues --   -0.37642  -0.36706  -0.36498  -0.35381
 Alpha virt. eigenvalues --    0.04790   0.05910   0.10972   0.12182   0.16263
 Alpha virt. eigenvalues --    0.17350   0.21011   0.22068   0.26869   0.27756
 Alpha virt. eigenvalues --    0.28103   0.29023   0.30656   0.31518   0.32319

 Mulliken charges:
               1
     1  C   -0.170822
     2  C   -0.219142
     3  C   -0.170143
     4  C    0.158967
     5  C   -0.170225
     6  C   -0.218481
     7  H    0.226053
     8  H    0.221088
     9  H    0.270356
    10  H    0.278125
    11  H    0.225055
    12  N    0.489481
    13  O   -0.455788
    14  O   -0.464850
    15  C   -0.175941
    16  C   -0.203318
    17  C   -0.155646
    18  C    0.157896
    19  C   -0.173870
    20  C   -0.220156
    21  H    0.216807
    22  H    0.222413
    23  H    0.277566
    24  H    0.271832
    25  H    0.216687
    26  N    0.488844
    27  O   -0.465090
    28  O   -0.457698
 Sum of Mulliken charges =  -0.00000

 Dipole moment (field-independent basis, Debye):
    X=              6.5371    Y=              6.2825    Z=              1.0395  Tot=              9.1260
 Quadrupole moment (field-independent basis, Debye-Ang):
   XX=            -99.0711   YY=           -102.3841   ZZ=           -102.5859
   XY=             -9.8482   XZ=             11.5186   YZ=             -1.8819

 Normal termination of Gaussian 16 at Thu May  6 08:12:50 2021.
