 Gaussian 16, Revision A.03,
 Gaussian 16:  EM64L-G16RevA.03 25-Dec-2016

 -------------
 #p 6-31g* mp2
 -------------

 ------------------------------------------------------
 Input file generated by CHIRIPA (05-May-2021 14:55:19)
 ------------------------------------------------------
 Symbolic Z-matrix:
 Charge =  0 Multiplicity = 1

                         Standard orientation:
 ---------------------------------------------------------------------
 Center     Atomic      Atomic             Coordinates (Angstroms)
 Number     Number       Type             X           Y           Z
 ---------------------------------------------------------------------
      1          6           0        1.610724    1.777171    0.548507
      2          6           0        2.876724    1.793923    1.143050
      3          6           0        3.797375    0.774764    0.881776
      4          6           0        3.417061   -0.250395    0.017079
      5          6           0        2.163280   -0.295112   -0.590642
      6          6           0        1.258663    0.734545   -0.314920
      7          1           0        0.901768    2.572955    0.757083
      8          1           0        3.152872    2.602379    1.814010
      9          1           0        4.784148    0.763004    1.328496
     10          1           0        1.916799   -1.114309   -1.255157
     11          1           0        0.276170    0.718942   -0.778071
     12          7           0        4.383225   -1.334890   -0.267168
     13          8           0        4.023856   -2.226837   -1.032622
     14          8           0        5.481581   -1.272434    0.280876
     15          6           0       -3.716064    0.673973    0.113986
     16          6           0       -3.223565    1.488006   -1.083003
     17          6           0       -2.316477    2.649318   -0.675157
     18          1           0       -4.255349    1.337605    0.803702
     19          1           0       -2.849036    0.286578    0.666782
     20          1           0       -4.091278    1.872597   -1.634165
     21          1           0       -2.685555    0.822320   -1.770043
     22          1           0       -1.433025    2.280049   -0.144352
     23          1           0       -2.846735    3.336293   -0.007703
     24          1           0       -1.975935    3.217800   -1.546201
     25          6           0       -4.623968   -0.490530   -0.277638
     26          6           0       -5.116466   -1.304564    0.919349
     27          6           0       -6.023555   -2.465876    0.511503
     28          1           0       -5.490995   -0.103136   -0.830434
     29          1           0       -4.084683   -1.154163   -0.967355
     30          1           0       -5.654477   -0.638879    1.606390
     31          1           0       -4.248753   -1.689155    1.470513
     32          1           0       -5.493298   -3.152851   -0.155949
     33          1           0       -6.907008   -2.096607   -0.019300
     34          1           0       -6.364096   -3.034358    1.382549
 ---------------------------------------------------------------------

 SCF Done:  E(RHF) =  -669.535095690     A.U. after   15 cycles
 E2 =    -0.2091694910D+01 EUMP2 =    -0.67162679060000D+03

 The electronic state is 1-A.
 Alpha  occ. eigenvalues --  -20.60741 -20.60735 -15.85794 -11.31152 -11.27722
 Alpha  occ. eigenvalues --  -11.27718 -11.27440 -11.26732 -11.26700 -11.22665
 Alpha  occ. eigenvalues --  -11.22394 -11.22236 -11.22106 -11.22011 -11.21456
 Alpha  occ. eigenvalues --   -1.59816  -1.39370  -1.19323  -1.09223  -1.08719
 Alpha  occ. eigenvalues --   -1.04730  -1.04338  -0.96803  -0.95556  -0.87825
 Alpha  occ. eigenvalues --   -0.86128  -0.82389  -0.80420  -0.78974  -0.77441
 Alpha  occ. eigenvalues --   -0.72013  -0.71139  -0.70448  -0.65917  -0.64979
 Alpha  occ. eigenvalues --   -0.64747  -0.62198  -0.61603  -0.60183  -0.58376
 Alpha  occ. eigenvalues --   -0.56107  -0.55229  -0.53489  -0.53216  -0.53053
 Alpha  occ. eigenvalues --   -0.52801  -0.50747  -0.48779  -0.48768  -0.48704
 Alpha  occ. eigenvalues --   -0.47453  -0.46524  -0.46420  -0.44777  -0.44563
 Alpha  occ. eigenvalues --   -0.37301  -0.36331
 Alpha virt. eigenvalues --    0.05097   0.11294   0.16591   0.19126   0.22441
 Alpha virt. eigenvalues --    0.23683   0.25455   0.25737   0.26983   0.27918
 Alpha virt. eigenvalues --    0.28813   0.29885   0.30849   0.31345   0.31932

 Mulliken charges:
               1
     1  C   -0.174270
     2  C   -0.218435
     3  C   -0.171013
     4  C    0.158477
     5  C   -0.171359
     6  C   -0.223528
     7  H    0.228859
     8  H    0.223442
     9  H    0.275467
    10  H    0.275379
    11  H    0.229005
    12  N    0.488049
    13  O   -0.460599
    14  O   -0.460471
    15  C   -0.299243
    16  C   -0.301780
    17  C   -0.482698
    18  H    0.152000
    19  H    0.147785
    20  H    0.157921
    21  H    0.149896
    22  H    0.145446
    23  H    0.161068
    24  H    0.164640
    25  C   -0.298791
    26  C   -0.300371
    27  C   -0.476220
    28  H    0.151353
    29  H    0.150156
    30  H    0.152600
    31  H    0.152914
    32  H    0.156343
    33  H    0.155828
    34  H    0.162150
 Sum of Mulliken charges =  -0.00000

 Dipole moment (field-independent basis, Debye):
    X=             -3.6502    Y=              3.8276    Z=              0.9992  Tot=              5.3826
 Quadrupole moment (field-independent basis, Debye-Ang):
   XX=           -114.9686   YY=            -96.4704   ZZ=            -93.4404
   XY=             14.5559   XZ=              5.6382   YZ=              1.2552

 Normal termination of Gaussian 16 at Thu May  6 12:22:34 2021.
