 Gaussian 16, Revision A.03,
 Gaussian 16:  EM64L-G16RevA.03 25-Dec-2016

 -------------
 #p 6-31g* mp2
 -------------

 ------------------------------------------------------
 Input file generated by CHIRIPA (05-May-2021 14:53:15)
 ------------------------------------------------------
 Symbolic Z-matrix:
 Charge =  0 Multiplicity = 1

                         Standard orientation:
 ---------------------------------------------------------------------
 Center     Atomic      Atomic             Coordinates (Angstroms)
 Number     Number       Type             X           Y           Z
 ---------------------------------------------------------------------
      1          6           0        2.823784   -0.511413   -0.039736
      2          6           0        2.407303   -1.893262    0.465259
      3          6           0        0.896379   -2.117200    0.396310
      4          1           0        2.310177    0.258445    0.552271
      5          1           0        2.480956   -0.388927   -1.076491
      6          1           0        2.752022   -2.013637    1.500293
      7          1           0        2.922109   -2.659918   -0.127893
      8          1           0        0.539768   -2.024000   -0.634584
      9          1           0        0.368715   -1.374046    1.002853
     10          1           0        0.620751   -3.111232    0.762082
     11          6           0        4.331344   -0.272534    0.022931
     12          6           0        4.747824    1.109315   -0.482064
     13          6           0        6.258748    1.333253   -0.413115
     14          1           0        4.674171   -0.395020    1.059687
     15          1           0        4.844951   -1.042392   -0.569075
     16          1           0        4.233018    1.875971    0.111088
     17          1           0        4.403106    1.229690   -1.517098
     18          1           0        6.786412    0.590099   -1.019658
     19          1           0        6.615359    1.240053    0.617780
     20          1           0        6.534376    2.327285   -0.778886
     21          6           0       -2.584142    2.778631    0.463408
     22          6           0       -3.160491    2.334142   -0.731068
     23          6           0       -3.282439    0.966614   -0.994779
     24          6           0       -2.815354    0.067206   -0.037601
     25          6           0       -2.236464    0.478925    1.161842
     26          6           0       -2.124778    1.851239    1.404391
     27          1           0       -2.493395    3.842818    0.660045
     28          1           0       -3.518108    3.052093   -1.463666
     29          1           0       -3.724518    0.595032   -1.911246
     30          1           0       -1.889144   -0.260716    1.872980
     31          1           0       -1.676747    2.193555    2.332903
     32          7           0       -2.939023   -1.383067   -0.305579
     33          8           0       -2.519778   -2.155224    0.553864
     34          8           0       -3.452860   -1.720173   -1.369989
 ---------------------------------------------------------------------

 SCF Done:  E(RHF) =  -669.535465661     A.U. after   15 cycles
 E2 =    -0.2092184048D+01 EUMP2 =    -0.67162764970844D+03

 The electronic state is 1-A.
 Alpha  occ. eigenvalues --  -20.60813 -20.60778 -15.85823 -11.31202 -11.27773
 Alpha  occ. eigenvalues --  -11.27769 -11.27518 -11.26797 -11.26786 -11.21603
 Alpha  occ. eigenvalues --  -11.21293 -11.21220 -11.21163 -11.21089 -11.20389
 Alpha  occ. eigenvalues --   -1.59854  -1.39409  -1.19376  -1.08768  -1.08264
 Alpha  occ. eigenvalues --   -1.04785  -1.03297  -0.95740  -0.95587  -0.86735
 Alpha  occ. eigenvalues --   -0.86179  -0.82438  -0.79375  -0.78085  -0.77472
 Alpha  occ. eigenvalues --   -0.72051  -0.71160  -0.70491  -0.65033  -0.64915
 Alpha  occ. eigenvalues --   -0.64784  -0.62147  -0.60700  -0.59106  -0.57338
 Alpha  occ. eigenvalues --   -0.55297  -0.55023  -0.53112  -0.52887  -0.52361
 Alpha  occ. eigenvalues --   -0.52149  -0.49699  -0.48810  -0.48807  -0.47689
 Alpha  occ. eigenvalues --   -0.46428  -0.45656  -0.45546  -0.44726  -0.43502
 Alpha  occ. eigenvalues --   -0.37349  -0.36376
 Alpha virt. eigenvalues --    0.05026   0.11187   0.16511   0.21200   0.22994
 Alpha virt. eigenvalues --    0.24403   0.26331   0.27031   0.27666   0.27764
 Alpha virt. eigenvalues --    0.28867   0.30562   0.31435   0.31901   0.32342

 Mulliken charges:
               1
     1  C   -0.296971
     2  C   -0.302854
     3  C   -0.468752
     4  H    0.144475
     5  H    0.149606
     6  H    0.148962
     7  H    0.152153
     8  H    0.154763
     9  H    0.146157
    10  H    0.170048
    11  C   -0.297792
    12  C   -0.298988
    13  C   -0.475506
    14  H    0.148601
    15  H    0.150610
    16  H    0.149153
    17  H    0.151805
    18  H    0.155959
    19  H    0.154824
    20  H    0.159174
    21  C   -0.170602
    22  C   -0.218297
    23  C   -0.171109
    24  C    0.159704
    25  C   -0.170606
    26  C   -0.219209
    27  H    0.225657
    28  H    0.223514
    29  H    0.275577
    30  H    0.276177
    31  H    0.223345
    32  N    0.488278
    33  O   -0.457355
    34  O   -0.460500
 Sum of Mulliken charges =  -0.00000

 Dipole moment (field-independent basis, Debye):
    X=              0.2944    Y=              5.0025    Z=              0.9184  Tot=              5.0946
 Quadrupole moment (field-independent basis, Debye-Ang):
   XX=            -98.5272   YY=            -94.0656   ZZ=            -90.2653
   XY=            -15.4306   XZ=             -0.6490   YZ=             -0.7814

 Normal termination of Gaussian 16 at Thu May  6 09:01:21 2021.
