 Gaussian 16, Revision A.03,
 Gaussian 16:  EM64L-G16RevA.03 25-Dec-2016

 -------------
 #p 6-31g* mp2
 -------------

 ------------------------------------------------------
 Input file generated by CHIRIPA (05-May-2021 14:51:12)
 ------------------------------------------------------
 Symbolic Z-matrix:
 Charge =  0 Multiplicity = 1

                         Standard orientation:
 ---------------------------------------------------------------------
 Center     Atomic      Atomic             Coordinates (Angstroms)
 Number     Number       Type             X           Y           Z
 ---------------------------------------------------------------------
      1          6           0       -2.986656    1.388805    0.174087
      2          6           0       -1.731382    1.762561   -0.614949
      3          6           0       -1.209061    3.157276   -0.268906
      4          1           0       -3.769973    2.134039   -0.020812
      5          1           0       -2.765033    1.442089    1.249000
      6          1           0       -1.954917    1.707246   -1.688070
      7          1           0       -0.951024    1.016245   -0.418299
      8          1           0       -0.958610    3.221862    0.794910
      9          1           0       -1.968206    3.916788   -0.482076
     10          1           0       -0.311376    3.403985   -0.844367
     11          6           0       -3.520810   -0.002680   -0.160842
     12          6           0       -4.776085   -0.376436    0.628193
     13          6           0       -5.298405   -1.771151    0.282151
     14          1           0       -3.742433   -0.055964   -1.235756
     15          1           0       -2.737493   -0.747914    0.034056
     16          1           0       -5.556442    0.369879    0.431543
     17          1           0       -4.552549   -0.321121    1.701314
     18          1           0       -4.539260   -2.530663    0.495320
     19          1           0       -5.548857   -1.835737   -0.781665
     20          1           0       -6.196091   -2.017860    0.857612
     21          6           0        2.872800   -1.312956   -0.239118
     22          6           0        1.359527   -1.200752   -0.050967
     23          6           0        0.611280   -2.448652   -0.520718
     24          1           0        3.091419   -1.495635   -1.300145
     25          1           0        3.239630   -2.190450    0.311186
     26          1           0        0.995861   -0.322935   -0.600330
     27          1           0        1.144495   -1.018128    1.009705
     28          1           0        0.945969   -3.330543    0.035026
     29          1           0        0.796490   -2.631400   -1.584158
     30          1           0       -0.468940   -2.346917   -0.377067
     31          6           0        3.634667   -0.073169    0.225873
     32          6           0        5.147939   -0.185373    0.037723
     33          6           0        5.896186    1.062527    0.507474
     34          1           0        3.267836    0.804325   -0.324430
     35          1           0        3.416048    0.109510    1.286901
     36          1           0        5.362971   -0.367997   -1.022950
     37          1           0        5.511605   -1.063190    0.587086
     38          1           0        5.710976    1.245275    1.570913
     39          1           0        5.561497    1.944418   -0.048271
     40          1           0        6.976406    0.960791    0.363823
 ---------------------------------------------------------------------

 SCF Done:  E(RHF) =  -470.733230634     A.U. after   11 cycles
 E2 =    -0.1583288304D+01 EUMP2 =    -0.47231651893793D+03

 The electronic state is 1-A.
 Alpha  occ. eigenvalues --  -11.21637 -11.21616 -11.21601 -11.21540 -11.21430
 Alpha  occ. eigenvalues --  -11.21401 -11.21370 -11.21338 -11.21113 -11.21080
 Alpha  occ. eigenvalues --  -11.21069 -11.21054  -1.08465  -1.08413  -1.03570
 Alpha  occ. eigenvalues --   -1.03507  -0.96006  -0.95968  -0.87027  -0.86978
 Alpha  occ. eigenvalues --   -0.79702  -0.79516  -0.78329  -0.78180  -0.65138
 Alpha  occ. eigenvalues --   -0.65014  -0.61041  -0.60842  -0.59405  -0.59310
 Alpha  occ. eigenvalues --   -0.57624  -0.57580  -0.55295  -0.55253  -0.52720
 Alpha  occ. eigenvalues --   -0.52652  -0.52454  -0.52367  -0.49982  -0.49889
 Alpha  occ. eigenvalues --   -0.48130  -0.47774  -0.46839  -0.46474  -0.45942
 Alpha  occ. eigenvalues --   -0.45776  -0.45731  -0.45406  -0.43805  -0.43771
 Alpha virt. eigenvalues --    0.20679   0.23010   0.23857   0.23963   0.25845
 Alpha virt. eigenvalues --    0.26453   0.27079   0.27209   0.28370   0.29132
 Alpha virt. eigenvalues --    0.30133   0.31434   0.31676   0.31830   0.32274

 Mulliken charges:
               1
     1  C   -0.297323
     2  C   -0.309489
     3  C   -0.475062
     4  H    0.149602
     5  H    0.149371
     6  H    0.151204
     7  H    0.162146
     8  H    0.155307
     9  H    0.155094
    10  H    0.159486
    11  C   -0.302513
    12  C   -0.299525
    13  C   -0.475718
    14  H    0.149658
    15  H    0.152946
    16  H    0.152107
    17  H    0.151913
    18  H    0.155027
    19  H    0.155265
    20  H    0.160300
    21  C   -0.297459
    22  C   -0.305706
    23  C   -0.479400
    24  H    0.149811
    25  H    0.149590
    26  H    0.157855
    27  H    0.151193
    28  H    0.155428
    29  H    0.155792
    30  H    0.162952
    31  C   -0.298369
    32  C   -0.299683
    33  C   -0.475722
    34  H    0.149601
    35  H    0.149587
    36  H    0.151999
    37  H    0.151955
    38  H    0.155196
    39  H    0.155276
    40  H    0.160306
 Sum of Mulliken charges =  -0.00000

 Dipole moment (field-independent basis, Debye):
    X=              0.0180    Y=             -0.0092    Z=             -0.0034  Tot=              0.0205
 Quadrupole moment (field-independent basis, Debye-Ang):
   XX=            -85.1583   YY=            -86.1787   ZZ=            -83.4497
   XY=             -1.3151   XZ=              0.2252   YZ=             -1.0445

 Normal termination of Gaussian 16 at Wed May  5 16:47:53 2021.
