 Gaussian 16, Revision A.03,
 Gaussian 16:  EM64L-G16RevA.03 25-Dec-2016

 -------------
 #p 6-31g* mp2
 -------------

 ------------------------------------------------------
 Input file generated by CHIRIPA (05-May-2021 14:55:22)
 ------------------------------------------------------
 Symbolic Z-matrix:
 Charge =  0 Multiplicity = 1

                         Standard orientation:
 ---------------------------------------------------------------------
 Center     Atomic      Atomic             Coordinates (Angstroms)
 Number     Number       Type             X           Y           Z
 ---------------------------------------------------------------------
      1          6           0        1.881799    1.907583   -0.784245
      2          6           0        1.563070    0.602791   -1.174695
      3          6           0        2.411314   -0.461387   -0.854453
      4          6           0        3.575345   -0.183482   -0.139547
      5          6           0        3.920452    1.105570    0.263610
      6          6           0        3.057401    2.154373   -0.067602
      7          1           0        1.217111    2.728291   -1.037278
      8          1           0        0.650753    0.408170   -1.731332
      9          1           0        2.188872   -1.481170   -1.144247
     10          1           0        4.836960    1.268371    0.817621
     11          1           0        3.307478    3.166679    0.236935
     12          7           0        4.481182   -1.301942    0.205285
     13          8           0        5.500730   -1.030761    0.835855
     14          8           0        4.154475   -2.428593   -0.161534
     15          6           0       -3.847985    0.200108    0.755542
     16          6           0       -2.499627    0.520089    0.109379
     17          6           0       -1.434869    0.920932    1.130853
     18          1           0       -4.192803    1.075790    1.322311
     19          1           0       -3.714066   -0.611109    1.484506
     20          1           0       -2.636307    1.329521   -0.619151
     21          1           0       -2.158070   -0.356391   -0.456075
     22          1           0       -1.269328    0.113724    1.851696
     23          1           0       -1.750282    1.809214    1.687693
     24          1           0       -0.478980    1.145316    0.647337
     25          6           0       -4.922709   -0.202292   -0.252809
     26          6           0       -6.271068   -0.522274    0.393354
     27          6           0       -7.335826   -0.923117   -0.628121
     28          1           0       -5.056628    0.608924   -0.981773
     29          1           0       -4.577892   -1.077975   -0.819577
     30          1           0       -6.612625    0.354207    0.958808
     31          1           0       -6.134388   -1.331705    1.121884
     32          1           0       -7.020413   -1.811398   -1.184959
     33          1           0       -7.501367   -0.115909   -1.348962
     34          1           0       -8.291715   -1.147500   -0.144604
 ---------------------------------------------------------------------

 SCF Done:  E(RHF) =  -669.534586289     A.U. after   15 cycles
 E2 =    -0.2092575058D+01 EUMP2 =    -0.67162716134684D+03

 The electronic state is 1-A.
 Alpha  occ. eigenvalues --  -20.60798 -20.60792 -15.85851 -11.31241 -11.27804
 Alpha  occ. eigenvalues --  -11.27795 -11.27544 -11.26829 -11.26809 -11.22281
 Alpha  occ. eigenvalues --  -11.21943 -11.21880 -11.21791 -11.21479 -11.21365
 Alpha  occ. eigenvalues --   -1.59872  -1.39425  -1.19421  -1.08910  -1.08812
 Alpha  occ. eigenvalues --   -1.04826  -1.03990  -0.96419  -0.95641  -0.87434
 Alpha  occ. eigenvalues --   -0.86219  -0.82468  -0.80071  -0.78714  -0.77510
 Alpha  occ. eigenvalues --   -0.72071  -0.71195  -0.70527  -0.65532  -0.65075
 Alpha  occ. eigenvalues --   -0.64835  -0.62177  -0.61385  -0.59831  -0.58065
 Alpha  occ. eigenvalues --   -0.55689  -0.55319  -0.53608  -0.52952  -0.52905
 Alpha  occ. eigenvalues --   -0.52524  -0.50346  -0.48830  -0.48823  -0.48378
 Alpha  occ. eigenvalues --   -0.47113  -0.46251  -0.46172  -0.44826  -0.44256
 Alpha  occ. eigenvalues --   -0.37327  -0.36387
 Alpha virt. eigenvalues --    0.04997   0.11142   0.16443   0.20580   0.22591
 Alpha virt. eigenvalues --    0.24062   0.25899   0.26401   0.27321   0.27866
 Alpha virt. eigenvalues --    0.28827   0.30185   0.31047   0.31718   0.32083

 Mulliken charges:
               1
     1  C   -0.171969
     2  C   -0.219407
     3  C   -0.171117
     4  C    0.158837
     5  C   -0.170919
     6  C   -0.218075
     7  H    0.227251
     8  H    0.227705
     9  H    0.275838
    10  H    0.275919
    11  H    0.223979
    12  N    0.488050
    13  O   -0.460201
    14  O   -0.460243
    15  C   -0.297996
    16  C   -0.300685
    17  C   -0.484645
    18  H    0.150772
    19  H    0.152299
    20  H    0.146793
    21  H    0.148026
    22  H    0.159197
    23  H    0.154089
    24  H    0.165167
    25  C   -0.298557
    26  C   -0.300056
    27  C   -0.475950
    28  H    0.148541
    29  H    0.149643
    30  H    0.152343
    31  H    0.153263
    32  H    0.155653
    33  H    0.154934
    34  H    0.161522
 Sum of Mulliken charges =  -0.00000

 Dipole moment (field-independent basis, Debye):
    X=             -3.1810    Y=              3.9230    Z=             -1.1857  Tot=              5.1879
 Quadrupole moment (field-independent basis, Debye-Ang):
   XX=           -116.4163   YY=            -93.6422   ZZ=            -94.3983
   XY=             16.7181   XZ=             -2.9223   YZ=              1.0383

 Normal termination of Gaussian 16 at Wed May  5 20:40:29 2021.
