 Gaussian 16, Revision A.03,
 Gaussian 16:  EM64L-G16RevA.03 25-Dec-2016

 -------------
 #p 6-31g* mp2
 -------------

 ------------------------------------------------------
 Input file generated by CHIRIPA (05-May-2021 14:55:25)
 ------------------------------------------------------
 Symbolic Z-matrix:
 Charge =  0 Multiplicity = 1

                         Standard orientation:
 ---------------------------------------------------------------------
 Center     Atomic      Atomic             Coordinates (Angstroms)
 Number     Number       Type             X           Y           Z
 ---------------------------------------------------------------------
      1          6           0       -3.133272   -2.517780    0.608831
      2          6           0       -2.691953   -1.615252    1.582074
      3          6           0       -2.384908   -0.295160    1.239105
      4          6           0       -2.531219    0.090260   -0.092561
      5          6           0       -2.968656   -0.785455   -1.085065
      6          6           0       -3.269973   -2.100736   -0.719291
      7          1           0       -3.369567   -3.541391    0.884115
      8          1           0       -2.584854   -1.936351    2.614290
      9          1           0       -2.041261    0.424280    1.972406
     10          1           0       -3.065563   -0.436041   -2.105818
     11          1           0       -3.612498   -2.799478   -1.477237
     12          7           0       -2.209195    1.485236   -0.467719
     13          8           0       -2.346415    1.800031   -1.647851
     14          8           0       -1.825672    2.237408    0.425469
     15          6           0        2.947839    0.801013   -0.218699
     16          6           0        2.570840    1.786196    0.888221
     17          6           0        1.851217    3.025956    0.356305
     18          1           0        3.586757    1.310929   -0.952671
     19          1           0        2.038072    0.496448   -0.754386
     20          1           0        3.480881    2.087748    1.422550
     21          1           0        1.932901    1.273823    1.619743
     22          1           0        0.927703    2.743702   -0.159500
     23          1           0        2.484478    3.562251   -0.357815
     24          1           0        1.590958    3.716711    1.164379
     25          6           0        3.667949   -0.443511    0.297371
     26          6           0        4.044948   -1.428693   -0.809549
     27          6           0        4.764570   -2.668453   -0.277635
     28          1           0        4.577715   -0.138946    0.833057
     29          1           0        3.029030   -0.953426    1.031342
     30          1           0        4.682886   -0.916321   -1.541072
     31          1           0        3.134906   -1.730245   -1.343879
     32          1           0        4.131308   -3.204749    0.436486
     33          1           0        5.688084   -2.386199    0.238171
     34          1           0        5.024830   -3.359209   -1.085708
 ---------------------------------------------------------------------

 SCF Done:  E(RHF) =  -669.535999656     A.U. after   15 cycles
 E2 =    -0.2091304559D+01 EUMP2 =    -0.67162730421462D+03

 The electronic state is 1-A.
 Alpha  occ. eigenvalues --  -20.60970 -20.60953 -15.85988 -11.31317 -11.27879
 Alpha  occ. eigenvalues --  -11.27875 -11.27615 -11.26884 -11.26874 -11.21429
 Alpha  occ. eigenvalues --  -11.21108 -11.20999 -11.20926 -11.20866 -11.19836
 Alpha  occ. eigenvalues --   -1.60027  -1.39580  -1.19484  -1.08888  -1.08019
 Alpha  occ. eigenvalues --   -1.04879  -1.03025  -0.95730  -0.95442  -0.86455
 Alpha  occ. eigenvalues --   -0.86278  -0.82559  -0.79119  -0.77804  -0.77614
 Alpha  occ. eigenvalues --   -0.72205  -0.71350  -0.70590  -0.65138  -0.64880
 Alpha  occ. eigenvalues --   -0.64659  -0.62225  -0.60420  -0.58880  -0.57056
 Alpha  occ. eigenvalues --   -0.55383  -0.54728  -0.53212  -0.52970  -0.52119
 Alpha  occ. eigenvalues --   -0.51868  -0.49440  -0.48968  -0.48921  -0.47415
 Alpha  occ. eigenvalues --   -0.46188  -0.45357  -0.45302  -0.44849  -0.43291
 Alpha  occ. eigenvalues --   -0.37462  -0.36481
 Alpha virt. eigenvalues --    0.04882   0.11170   0.16373   0.21283   0.23185
 Alpha virt. eigenvalues --    0.24783   0.26896   0.27250   0.27833   0.28217
 Alpha virt. eigenvalues --    0.28683   0.30815   0.31815   0.32122   0.32600

 Mulliken charges:
               1
     1  C   -0.170569
     2  C   -0.218594
     3  C   -0.171105
     4  C    0.158184
     5  C   -0.170919
     6  C   -0.218579
     7  H    0.226152
     8  H    0.223984
     9  H    0.276056
    10  H    0.275982
    11  H    0.223967
    12  N    0.486913
    13  O   -0.459042
    14  O   -0.458152
    15  C   -0.297325
    16  C   -0.299191
    17  C   -0.478354
    18  H    0.150056
    19  H    0.148058
    20  H    0.148114
    21  H    0.146845
    22  H    0.173770
    23  H    0.149592
    24  H    0.160027
    25  C   -0.297212
    26  C   -0.299066
    27  C   -0.475185
    28  H    0.149060
    29  H    0.146015
    30  H    0.152709
    31  H    0.150504
    32  H    0.152807
    33  H    0.155361
    34  H    0.159138
 Sum of Mulliken charges =  -0.00000

 Dipole moment (field-independent basis, Debye):
    X=             -1.3543    Y=             -4.8507    Z=              1.2782  Tot=              5.1959
 Quadrupole moment (field-independent basis, Debye-Ang):
   XX=            -89.4629   YY=            -96.6707   ZZ=            -90.6374
   XY=             13.8001   XZ=             -2.3145   YZ=              1.7289

 Normal termination of Gaussian 16 at Thu May  6 03:13:02 2021.
