 Gaussian 16, Revision A.03,
 Gaussian 16:  EM64L-G16RevA.03 25-Dec-2016

 -------------
 #p 6-31g* mp2
 -------------

 ------------------------------------------------------
 Input file generated by CHIRIPA (05-May-2021 14:53:16)
 ------------------------------------------------------
 Symbolic Z-matrix:
 Charge =  0 Multiplicity = 1

                         Standard orientation:
 ---------------------------------------------------------------------
 Center     Atomic      Atomic             Coordinates (Angstroms)
 Number     Number       Type             X           Y           Z
 ---------------------------------------------------------------------
      1          6           0       -3.941182   -0.619087    0.309029
      2          6           0       -5.007071    0.420576   -0.038773
      3          6           0       -6.218075    0.360041    0.892676
      4          1           0       -4.388376   -1.621668    0.266683
      5          1           0       -3.614600   -0.466088    1.346974
      6          1           0       -5.330548    0.266535   -1.076198
      7          1           0       -4.557240    1.420786    0.004218
      8          1           0       -5.915355    0.535673    1.930036
      9          1           0       -6.693057   -0.625136    0.843481
     10          1           0       -6.967582    1.111724    0.626084
     11          6           0       -2.724313   -0.571040   -0.613277
     12          6           0       -1.658423   -1.610703   -0.265475
     13          6           0       -0.447419   -1.550167   -1.196924
     14          1           0       -3.050894   -0.724038   -1.651222
     15          1           0       -2.277119    0.431542   -0.570931
     16          1           0       -2.108255   -2.610912   -0.308466
     17          1           0       -1.334946   -1.456661    0.771950
     18          1           0        0.027562   -0.564990   -1.147729
     19          1           0       -0.750140   -1.725799   -2.234284
     20          1           0        0.302087   -2.301850   -0.930331
     21          6           0        1.042395    2.347622   -0.500471
     22          6           0        1.709021    1.633142   -1.501295
     23          6           0        2.576435    0.588047   -1.169761
     24          6           0        2.754651    0.282877    0.178720
     25          6           0        2.104895    0.976129    1.198774
     26          6           0        1.242107    2.017417    0.844000
     27          1           0        0.370364    3.157998   -0.767042
     28          1           0        1.555842    1.887381   -2.546257
     29          1           0        3.105239    0.018507   -1.924353
     30          1           0        2.277825    0.699474    2.231719
     31          1           0        0.725731    2.570570    1.623371
     32          7           0        3.670495   -0.821503    0.542003
     33          8           0        3.810419   -1.070756    1.737382
     34          8           0        4.231066   -1.416951   -0.375514
 ---------------------------------------------------------------------

 SCF Done:  E(RHF) =  -669.534269392     A.U. after   15 cycles
 E2 =    -0.2093921278D+01 EUMP2 =    -0.67162819066998D+03

 The electronic state is 1-A.
 Alpha  occ. eigenvalues --  -20.60825 -20.60819 -15.85879 -11.31270 -11.27878
 Alpha  occ. eigenvalues --  -11.27816 -11.27628 -11.26913 -11.26839 -11.21924
 Alpha  occ. eigenvalues --  -11.21666 -11.21632 -11.21579 -11.21352 -11.20885
 Alpha  occ. eigenvalues --   -1.59898  -1.39451  -1.19484  -1.08861  -1.08637
 Alpha  occ. eigenvalues --   -1.04889  -1.03684  -0.96139  -0.95681  -0.87159
 Alpha  occ. eigenvalues --   -0.86268  -0.82511  -0.79770  -0.78462  -0.77549
 Alpha  occ. eigenvalues --   -0.72097  -0.71222  -0.70572  -0.65284  -0.65119
 Alpha  occ. eigenvalues --   -0.64870  -0.62216  -0.61130  -0.59507  -0.57766
 Alpha  occ. eigenvalues --   -0.55631  -0.55375  -0.53391  -0.52960  -0.52790
 Alpha  occ. eigenvalues --   -0.52371  -0.49971  -0.48859  -0.48849  -0.48049
 Alpha  occ. eigenvalues --   -0.46775  -0.45983  -0.45919  -0.44848  -0.43957
 Alpha  occ. eigenvalues --   -0.37458  -0.36395
 Alpha virt. eigenvalues --    0.04965   0.11133   0.16413   0.21264   0.22641
 Alpha virt. eigenvalues --    0.24161   0.26358   0.27156   0.27206   0.27926
 Alpha virt. eigenvalues --    0.28379   0.30842   0.31355   0.31718   0.31875

 Mulliken charges:
               1
     1  C   -0.298154
     2  C   -0.298980
     3  C   -0.475659
     4  H    0.151593
     5  H    0.148703
     6  H    0.152263
     7  H    0.147923
     8  H    0.154894
     9  H    0.156679
    10  H    0.160107
    11  C   -0.297579
    12  C   -0.297649
    13  C   -0.487230
    14  H    0.148863
    15  H    0.143841
    16  H    0.152695
    17  H    0.151274
    18  H    0.165957
    19  H    0.151004
    20  H    0.163176
    21  C   -0.170453
    22  C   -0.221465
    23  C   -0.171542
    24  C    0.163717
    25  C   -0.171362
    26  C   -0.218345
    27  H    0.226574
    28  H    0.224816
    29  H    0.276545
    30  H    0.276156
    31  H    0.224084
    32  N    0.487915
    33  O   -0.460382
    34  O   -0.459980
 Sum of Mulliken charges =  -0.00000

 Dipole moment (field-independent basis, Debye):
    X=             -3.1109    Y=              3.9100    Z=             -1.2700  Tot=              5.1554
 Quadrupole moment (field-independent basis, Debye-Ang):
   XX=           -113.8270   YY=            -92.6616   ZZ=            -90.5275
   XY=             10.1476   XZ=             -4.4934   YZ=              1.5021

 Normal termination of Gaussian 16 at Wed May  5 18:41:51 2021.
