 Gaussian 16, Revision A.03,
 Gaussian 16:  EM64L-G16RevA.03 25-Dec-2016

 -------------
 #p 6-31g* mp2
 -------------

 ------------------------------------------------------
 Input file generated by CHIRIPA (05-May-2021 14:55:19)
 ------------------------------------------------------
 Symbolic Z-matrix:
 Charge =  0 Multiplicity = 1

                         Standard orientation:
 ---------------------------------------------------------------------
 Center     Atomic      Atomic             Coordinates (Angstroms)
 Number     Number       Type             X           Y           Z
 ---------------------------------------------------------------------
      1          6           0       -1.481909   -2.040437    1.741236
      2          6           0       -2.239044   -0.907893    2.058428
      3          6           0       -2.531927    0.047146    1.080334
      4          6           0       -2.049566   -0.163068   -0.210568
      5          6           0       -1.292710   -1.281095   -0.557663
      6          6           0       -1.011987   -2.223101    0.436503
      7          1           0       -1.259113   -2.777272    2.507285
      8          1           0       -2.605302   -0.763423    3.070865
      9          1           0       -3.115868    0.933060    1.298479
     10          1           0       -0.941413   -1.397607   -1.575717
     11          1           0       -0.423754   -3.101692    0.187294
     12          7           0       -2.353191    0.841091   -1.254540
     13          8           0       -1.916575    0.632673   -2.384392
     14          8           0       -3.022041    1.817555   -0.923186
     15          6           0        3.059840   -0.108734   -0.180550
     16          6           0        2.414580   -1.460522   -0.487626
     17          6           0        3.428549   -2.509023   -0.946218
     18          1           0        3.583262    0.252491   -1.076368
     19          1           0        3.825646   -0.243747    0.595793
     20          1           0        1.649257   -1.322764   -1.262171
     21          1           0        1.892471   -1.818482    0.408970
     22          1           0        4.186403   -2.675698   -0.173897
     23          1           0        3.941806   -2.177165   -1.854534
     24          1           0        2.945810   -3.467658   -1.160325
     25          6           0        2.058943    0.949861    0.279134
     26          6           0        2.704203    2.301648    0.586210
     27          6           0        1.690234    3.350149    1.044801
     28          1           0        1.293137    1.084873   -0.497209
     29          1           0        1.535521    0.588635    1.174952
     30          1           0        3.226311    2.659609   -0.310385
     31          1           0        3.469525    2.163892    1.360754
     32          1           0        1.176976    3.018291    1.953117
     33          1           0        0.932380    3.516824    0.272482
     34          1           0        2.172973    4.308784    1.258908
 ---------------------------------------------------------------------

 SCF Done:  E(RHF) =  -669.534347382     A.U. after   15 cycles
 E2 =    -0.2094478397D+01 EUMP2 =    -0.67162882577917D+03

 The electronic state is 1-A.
 Alpha  occ. eigenvalues --  -20.60806 -20.60801 -15.85853 -11.31181 -11.27734
 Alpha  occ. eigenvalues --  -11.27725 -11.27488 -11.26770 -11.26731 -11.21983
 Alpha  occ. eigenvalues --  -11.21568 -11.21535 -11.21514 -11.21374 -11.20911
 Alpha  occ. eigenvalues --   -1.59878  -1.39433  -1.19356  -1.08763  -1.08570
 Alpha  occ. eigenvalues --   -1.04763  -1.03684  -0.96118  -0.95600  -0.87136
 Alpha  occ. eigenvalues --   -0.86160  -0.82445  -0.79800  -0.78390  -0.77450
 Alpha  occ. eigenvalues --   -0.72072  -0.71198  -0.70474  -0.65242  -0.65010
 Alpha  occ. eigenvalues --   -0.64734  -0.62128  -0.61075  -0.59525  -0.57735
 Alpha  occ. eigenvalues --   -0.55387  -0.55264  -0.53211  -0.52862  -0.52754
 Alpha  occ. eigenvalues --   -0.52546  -0.50047  -0.48831  -0.48828  -0.48093
 Alpha  occ. eigenvalues --   -0.46810  -0.45879  -0.45809  -0.44830  -0.43925
 Alpha  occ. eigenvalues --   -0.37320  -0.36235
 Alpha virt. eigenvalues --    0.05040   0.11149   0.16510   0.20527   0.22889
 Alpha virt. eigenvalues --    0.24022   0.25575   0.26505   0.27257   0.28220
 Alpha virt. eigenvalues --    0.28935   0.30234   0.31161   0.31824   0.32372

 Mulliken charges:
               1
     1  C   -0.173438
     2  C   -0.218464
     3  C   -0.171340
     4  C    0.159420
     5  C   -0.168215
     6  C   -0.214348
     7  H    0.225357
     8  H    0.223288
     9  H    0.275522
    10  H    0.275009
    11  H    0.224969
    12  N    0.487723
    13  O   -0.461340
    14  O   -0.460041
    15  C   -0.297799
    16  C   -0.302924
    17  C   -0.475534
    18  H    0.152419
    19  H    0.148689
    20  H    0.149406
    21  H    0.149649
    22  H    0.156131
    23  H    0.159175
    24  H    0.154187
    25  C   -0.300924
    26  C   -0.299735
    27  C   -0.476933
    28  H    0.153376
    29  H    0.148763
    30  H    0.153828
    31  H    0.149826
    32  H    0.151932
    33  H    0.161922
    34  H    0.160443
 Sum of Mulliken charges =  -0.00000

 Dipole moment (field-independent basis, Debye):
    X=              1.0589    Y=             -3.4532    Z=              3.6506  Tot=              5.1355
 Quadrupole moment (field-independent basis, Debye-Ang):
   XX=            -98.8908   YY=            -93.3300   ZZ=            -93.7164
   XY=              6.1778   XZ=             -9.5955   YZ=              1.4636

 Normal termination of Gaussian 16 at Wed May  5 23:46:10 2021.
