 Gaussian 16, Revision A.03,
 Gaussian 16:  EM64L-G16RevA.03 25-Dec-2016

 -------------
 #p 6-31g* mp2
 -------------

 ------------------------------------------------------
 Input file generated by CHIRIPA (05-May-2021 14:53:15)
 ------------------------------------------------------
 Symbolic Z-matrix:
 Charge =  0 Multiplicity = 1

                         Standard orientation:
 ---------------------------------------------------------------------
 Center     Atomic      Atomic             Coordinates (Angstroms)
 Number     Number       Type             X           Y           Z
 ---------------------------------------------------------------------
      1          6           0       -3.299069    0.956826   -0.444843
      2          6           0       -2.784586    1.975541    0.572758
      3          6           0       -2.257870    3.252214   -0.083346
      4          1           0       -2.489364    0.704689   -1.143234
      5          1           0       -4.096340    1.418067   -1.044019
      6          1           0       -1.989472    1.512071    1.170760
      7          1           0       -3.595554    2.225138    1.268924
      8          1           0       -3.046657    3.740037   -0.665105
      9          1           0       -1.431450    3.022919   -0.763827
     10          1           0       -1.895138    3.966568    0.662297
     11          6           0       -3.828931   -0.324802    0.195783
     12          6           0       -4.343414   -1.343517   -0.821818
     13          6           0       -4.870129   -2.620189   -0.165714
     14          1           0       -3.031660   -0.786043    0.794959
     15          1           0       -4.638635   -0.072664    0.894174
     16          1           0       -3.532446   -1.593114   -1.517984
     17          1           0       -5.138528   -0.880047   -1.419820
     18          1           0       -5.696550   -2.390895    0.514766
     19          1           0       -4.081342   -3.108013    0.416045
     20          1           0       -5.232861   -3.334544   -0.911357
     21          6           0        0.452670   -0.378316    1.052171
     22          6           0        0.636994   -0.170921   -0.318790
     23          6           0        1.924374   -0.096403   -0.858835
     24          6           0        3.009795   -0.234178    0.004975
     25          6           0        2.858703   -0.441653    1.375163
     26          6           0        1.562157   -0.512783    1.893289
     27          1           0       -0.550958   -0.434888    1.463177
     28          1           0       -0.222799   -0.066140   -0.974397
     29          1           0        2.095797    0.063414   -1.916422
     30          1           0        3.735267   -0.542397    2.003577
     31          1           0        1.422018   -0.673927    2.958389
     32          7           0        4.377539   -0.157082   -0.555145
     33          8           0        5.317352   -0.281592    0.227087
     34          8           0        4.483865    0.026395   -1.765793
 ---------------------------------------------------------------------

 SCF Done:  E(RHF) =  -669.534639326     A.U. after   15 cycles
 E2 =    -0.2093382114D+01 EUMP2 =    -0.67162802143950D+03

 The electronic state is 1-A.
 Alpha  occ. eigenvalues --  -20.60766 -20.60761 -15.85820 -11.31195 -11.27763
 Alpha  occ. eigenvalues --  -11.27760 -11.27481 -11.26775 -11.26760 -11.22670
 Alpha  occ. eigenvalues --  -11.22621 -11.22570 -11.22534 -11.21877 -11.21867
 Alpha  occ. eigenvalues --   -1.59841  -1.39395  -1.19367  -1.09556  -1.08756
 Alpha  occ. eigenvalues --   -1.04773  -1.04490  -0.96935  -0.95597  -0.87943
 Alpha  occ. eigenvalues --   -0.86171  -0.82437  -0.80565  -0.79386  -0.77475
 Alpha  occ. eigenvalues --   -0.72039  -0.71164  -0.70532  -0.66323  -0.65010
 Alpha  occ. eigenvalues --   -0.64677  -0.62172  -0.61819  -0.60298  -0.58549
 Alpha  occ. eigenvalues --   -0.56237  -0.55321  -0.53563  -0.53360  -0.53089
 Alpha  occ. eigenvalues --   -0.52868  -0.50877  -0.48866  -0.48806  -0.48792
 Alpha  occ. eigenvalues --   -0.47612  -0.46868  -0.46812  -0.44798  -0.44792
 Alpha  occ. eigenvalues --   -0.37328  -0.36371
 Alpha virt. eigenvalues --    0.05029   0.11202   0.16429   0.18058   0.23086
 Alpha virt. eigenvalues --    0.23274   0.24156   0.25084   0.26887   0.28519
 Alpha virt. eigenvalues --    0.30325   0.30496   0.31012   0.31240   0.31608

 Mulliken charges:
               1
     1  C   -0.303523
     2  C   -0.303476
     3  C   -0.475415
     4  H    0.143732
     5  H    0.156967
     6  H    0.146518
     7  H    0.156110
     8  H    0.158074
     9  H    0.155211
    10  H    0.164300
    11  C   -0.301682
    12  C   -0.299645
    13  C   -0.476317
    14  H    0.141496
    15  H    0.155101
    16  H    0.150398
    17  H    0.155968
    18  H    0.157077
    19  H    0.154651
    20  H    0.164007
    21  C   -0.176908
    22  C   -0.224693
    23  C   -0.172090
    24  C    0.158888
    25  C   -0.170678
    26  C   -0.219913
    27  H    0.232502
    28  H    0.230504
    29  H    0.276064
    30  H    0.275620
    31  H    0.223931
    32  N    0.487955
    33  O   -0.460381
    34  O   -0.460351
 Sum of Mulliken charges =  -0.00000

 Dipole moment (field-independent basis, Debye):
    X=             -5.0350    Y=             -0.2094    Z=              1.9528  Tot=              5.4045
 Quadrupole moment (field-independent basis, Debye-Ang):
   XX=           -121.7733   YY=            -95.6584   ZZ=            -90.7511
   XY=             -0.8774   XZ=              8.1904   YZ=             -0.8463

 Normal termination of Gaussian 16 at Thu May  6 17:09:38 2021.
