 Gaussian 16, Revision A.03,
 Gaussian 16:  EM64L-G16RevA.03 25-Dec-2016

 -------------
 #p 6-31g* mp2
 -------------

 ------------------------------------------------------
 Input file generated by CHIRIPA (05-May-2021 14:55:21)
 ------------------------------------------------------
 Symbolic Z-matrix:
 Charge =  0 Multiplicity = 1

                         Standard orientation:
 ---------------------------------------------------------------------
 Center     Atomic      Atomic             Coordinates (Angstroms)
 Number     Number       Type             X           Y           Z
 ---------------------------------------------------------------------
      1          6           0        3.308474    2.579511    0.001046
      2          6           0        4.132980    1.900632   -0.902189
      3          6           0        4.150294    0.503084   -0.935503
      4          6           0        3.326661   -0.187005   -0.047417
      5          6           0        2.494234    0.460672    0.864103
      6          6           0        2.493169    1.858636    0.879760
      7          1           0        3.301335    3.665321    0.020066
      8          1           0        4.767204    2.457871   -1.585775
      9          1           0        4.778937   -0.047812   -1.624516
     10          1           0        1.873045   -0.122233    1.533255
     11          1           0        1.851834    2.383208    1.582297
     12          7           0        3.336390   -1.666746   -0.073338
     13          8           0        2.601450   -2.251564    0.719435
     14          8           0        4.078770   -2.213729   -0.885937
     15          6           0       -4.839082   -0.183657   -0.425653
     16          6           0       -6.159808    0.399442    0.077998
     17          6           0       -7.316683    0.169656   -0.894952
     18          1           0       -4.595689    0.263596   -1.399137
     19          1           0       -4.964692   -1.261347   -0.599443
     20          1           0       -6.031355    1.475455    0.252102
     21          1           0       -6.399989   -0.049109    1.050485
     22          1           0       -7.473496   -0.901060   -1.061016
     23          1           0       -7.102768    0.632166   -1.863935
     24          1           0       -8.251091    0.594492   -0.515141
     25          6           0       -3.673066    0.038057    0.536104
     26          6           0       -2.352341   -0.545041    0.032452
     27          6           0       -1.195466   -0.315255    1.005403
     28          1           0       -3.547457    1.115747    0.709893
     29          1           0       -3.916460   -0.409196    1.509587
     30          1           0       -2.112160   -0.096490   -0.940035
     31          1           0       -2.480793   -1.621054   -0.141652
     32          1           0       -1.409381   -0.777765    1.974385
     33          1           0       -1.038652    0.755460    1.171466
     34          1           0       -0.261058   -0.740091    0.625591
 ---------------------------------------------------------------------

 SCF Done:  E(RHF) =  -669.535384144     A.U. after   15 cycles
 E2 =    -0.2091735495D+01 EUMP2 =    -0.67162711963845D+03

 The electronic state is 1-A.
 Alpha  occ. eigenvalues --  -20.60815 -20.60809 -15.85850 -11.31164 -11.27750
 Alpha  occ. eigenvalues --  -11.27693 -11.27490 -11.26752 -11.26730 -11.21646
 Alpha  occ. eigenvalues --  -11.21637 -11.21457 -11.21389 -11.21209 -11.21098
 Alpha  occ. eigenvalues --   -1.59879  -1.39435  -1.19347  -1.08752  -1.08479
 Alpha  occ. eigenvalues --   -1.04743  -1.03588  -0.96066  -0.95586  -0.87100
 Alpha  occ. eigenvalues --   -0.86139  -0.82421  -0.79670  -0.78291  -0.77469
 Alpha  occ. eigenvalues --   -0.72070  -0.71198  -0.70466  -0.65110  -0.64997
 Alpha  occ. eigenvalues --   -0.64759  -0.62131  -0.60982  -0.59393  -0.57653
 Alpha  occ. eigenvalues --   -0.55360  -0.55252  -0.53192  -0.52962  -0.52534
 Alpha  occ. eigenvalues --   -0.52420  -0.50003  -0.48831  -0.48825  -0.47971
 Alpha  occ. eigenvalues --   -0.46681  -0.45836  -0.45755  -0.44851  -0.43821
 Alpha  occ. eigenvalues --   -0.37332  -0.36312
 Alpha virt. eigenvalues --    0.05030   0.11237   0.16509   0.21099   0.22847
 Alpha virt. eigenvalues --    0.24267   0.26166   0.26654   0.27481   0.27979
 Alpha virt. eigenvalues --    0.28902   0.29592   0.31541   0.31667   0.32080

 Mulliken charges:
               1
     1  C   -0.170733
     2  C   -0.218759
     3  C   -0.170840
     4  C    0.157290
     5  C   -0.170461
     6  C   -0.220437
     7  H    0.225438
     8  H    0.223265
     9  H    0.275406
    10  H    0.280872
    11  H    0.223800
    12  N    0.488653
    13  O   -0.461630
    14  O   -0.459720
    15  C   -0.298470
    16  C   -0.299559
    17  C   -0.475741
    18  H    0.149373
    19  H    0.151271
    20  H    0.150719
    21  H    0.152264
    22  H    0.156054
    23  H    0.154975
    24  H    0.160100
    25  C   -0.298488
    26  C   -0.299356
    27  C   -0.484173
    28  H    0.146669
    29  H    0.150266
    30  H    0.151789
    31  H    0.157404
    32  H    0.157393
    33  H    0.145181
    34  H    0.170187
 Sum of Mulliken charges =  -0.00000

 Dipole moment (field-independent basis, Debye):
    X=             -0.0431    Y=              5.1347    Z=              0.0630  Tot=              5.1353
 Quadrupole moment (field-independent basis, Debye-Ang):
   XX=            -93.9449   YY=            -96.5178   ZZ=            -92.6650
   XY=             17.9288   XZ=             -3.2040   YZ=             -0.8544

 Normal termination of Gaussian 16 at Thu May  6 01:25:42 2021.
