 Gaussian 16, Revision A.03,
 Gaussian 16:  EM64L-G16RevA.03 25-Dec-2016

 -------------
 #p 6-31g* mp2
 -------------

 ------------------------------------------------------
 Input file generated by CHIRIPA (05-May-2021 14:53:17)
 ------------------------------------------------------
 Symbolic Z-matrix:
 Charge =  0 Multiplicity = 1

                         Standard orientation:
 ---------------------------------------------------------------------
 Center     Atomic      Atomic             Coordinates (Angstroms)
 Number     Number       Type             X           Y           Z
 ---------------------------------------------------------------------
      1          6           0        3.433938   -0.593156    0.146877
      2          6           0        3.336384   -1.657629   -0.946450
      3          6           0        2.644605   -2.934558   -0.468237
      4          1           0        3.979305   -1.007705    1.005754
      5          1           0        2.423589   -0.351787    0.505111
      6          1           0        4.346516   -1.895914   -1.303482
      7          1           0        2.791354   -1.240435   -1.802900
      8          1           0        1.626048   -2.717556   -0.130520
      9          1           0        3.190046   -3.376759    0.371736
     10          1           0        2.585654   -3.681948   -1.265603
     11          6           0        4.123088    0.689263   -0.315943
     12          6           0        4.220642    1.753737    0.777385
     13          6           0        4.912421    3.030666    0.299171
     14          1           0        5.133437    0.447895   -0.674176
     15          1           0        3.577722    1.103812   -1.174820
     16          1           0        4.765673    1.336542    1.633834
     17          1           0        3.210511    1.992021    1.134416
     18          1           0        4.366980    3.472866   -0.540801
     19          1           0        5.930978    2.813663   -0.038545
     20          1           0        4.971372    3.778055    1.096538
     21          6           0       -1.160450   -1.654250    0.802694
     22          6           0       -2.150656   -1.248624    1.703515
     23          6           0       -3.148194   -0.353254    1.306299
     24          6           0       -3.125161    0.118755   -0.005176
     25          6           0       -2.152079   -0.266582   -0.925999
     26          6           0       -1.164315   -1.162801   -0.506880
     27          1           0       -0.389335   -2.350124    1.119770
     28          1           0       -2.150141   -1.628659    2.721169
     29          1           0       -3.926678   -0.022645    1.983114
     30          1           0       -2.178792    0.129440   -1.933904
     31          1           0       -0.396554   -1.476078   -1.208625
     32          7           0       -4.176035    1.067092   -0.437285
     33          8           0       -4.133622    1.468427   -1.598220
     34          8           0       -5.022226    1.391108    0.393144
 ---------------------------------------------------------------------

 SCF Done:  E(RHF) =  -669.535305446     A.U. after   15 cycles
 E2 =    -0.2091887070D+01 EUMP2 =    -0.67162719251605D+03

 The electronic state is 1-A.
 Alpha  occ. eigenvalues --  -20.60772 -20.60766 -15.85825 -11.31196 -11.27765
 Alpha  occ. eigenvalues --  -11.27760 -11.27489 -11.26775 -11.26764 -11.22587
 Alpha  occ. eigenvalues --  -11.22342 -11.22169 -11.22049 -11.21948 -11.21402
 Alpha  occ. eigenvalues --   -1.59847  -1.39400  -1.19368  -1.09157  -1.08762
 Alpha  occ. eigenvalues --   -1.04772  -1.04276  -0.96740  -0.95597  -0.87759
 Alpha  occ. eigenvalues --   -0.86170  -0.82429  -0.80356  -0.78916  -0.77475
 Alpha  occ. eigenvalues --   -0.72044  -0.71170  -0.70503  -0.65832  -0.65020
 Alpha  occ. eigenvalues --   -0.64772  -0.62177  -0.61603  -0.60124  -0.58325
 Alpha  occ. eigenvalues --   -0.56072  -0.55263  -0.53427  -0.53147  -0.53098
 Alpha  occ. eigenvalues --   -0.52851  -0.50689  -0.48802  -0.48799  -0.48654
 Alpha  occ. eigenvalues --   -0.47385  -0.46466  -0.46357  -0.44805  -0.44499
 Alpha  occ. eigenvalues --   -0.37342  -0.36373
 Alpha virt. eigenvalues --    0.05052   0.11213   0.16532   0.19153   0.22595
 Alpha virt. eigenvalues --    0.23843   0.25366   0.25906   0.27037   0.27677
 Alpha virt. eigenvalues --    0.28943   0.29801   0.30929   0.31374   0.31968

 Mulliken charges:
               1
     1  C   -0.300317
     2  C   -0.300523
     3  C   -0.481460
     4  H    0.150811
     5  H    0.148516
     6  H    0.157250
     7  H    0.150118
     8  H    0.144552
     9  H    0.160072
    10  H    0.164798
    11  C   -0.298601
    12  C   -0.300482
    13  C   -0.476203
    14  H    0.151010
    15  H    0.150685
    16  H    0.151999
    17  H    0.153398
    18  H    0.156644
    19  H    0.155581
    20  H    0.162014
    21  C   -0.175056
    22  C   -0.218411
    23  C   -0.170874
    24  C    0.158384
    25  C   -0.171133
    26  C   -0.222232
    27  H    0.230249
    28  H    0.223802
    29  H    0.275643
    30  H    0.275608
    31  H    0.226883
    32  N    0.488048
    33  O   -0.460451
    34  O   -0.460321
 Sum of Mulliken charges =  -0.00000

 Dipole moment (field-independent basis, Debye):
    X=              3.8824    Y=             -3.2965    Z=              1.5270  Tot=              5.3171
 Quadrupole moment (field-independent basis, Debye-Ang):
   XX=           -116.3754   YY=            -96.9741   ZZ=            -90.6209
   XY=             10.1806   XZ=             -6.6875   YZ=              0.0798

 Normal termination of Gaussian 16 at Thu May  6 17:17:46 2021.
