 Gaussian 16, Revision A.03,
 Gaussian 16:  EM64L-G16RevA.03 25-Dec-2016

 -------------
 #p 6-31g* mp2
 -------------

 ------------------------------------------------------
 Input file generated by CHIRIPA (05-May-2021 14:55:25)
 ------------------------------------------------------
 Symbolic Z-matrix:
 Charge =  0 Multiplicity = 1

                         Standard orientation:
 ---------------------------------------------------------------------
 Center     Atomic      Atomic             Coordinates (Angstroms)
 Number     Number       Type             X           Y           Z
 ---------------------------------------------------------------------
      1          6           0        0.561870   -2.323241    1.167459
      2          6           0        1.675609   -1.742346    1.782819
      3          6           0        2.468324   -0.820879    1.092131
      4          6           0        2.116728   -0.501778   -0.218535
      5          6           0        1.013271   -1.063456   -0.858995
      6          6           0        0.234832   -1.982543   -0.149163
      7          1           0       -0.048385   -3.038134    1.711437
      8          1           0        1.931973   -2.005055    2.805221
      9          1           0        3.336004   -0.356097    1.544379
     10          1           0        0.782819   -0.781748   -1.879264
     11          1           0       -0.629540   -2.432094   -0.629590
     12          7           0        2.948383    0.472478   -0.959868
     13          8           0        2.617431    0.736867   -2.113647
     14          8           0        3.915439    0.953263   -0.373109
     15          6           0       -2.706524    0.144534   -0.119704
     16          6           0       -4.195146   -0.048106   -0.411047
     17          6           0       -4.524647   -1.460089   -0.896358
     18          1           0       -2.129986   -0.076258   -1.028439
     19          1           0       -2.390348   -0.587236    0.636564
     20          1           0       -4.508735    0.684720   -1.165530
     21          1           0       -4.768221    0.173356    0.498433
     22          1           0       -4.239381   -2.202433   -0.143930
     23          1           0       -3.978421   -1.688163   -1.817347
     24          1           0       -5.594020   -1.575738   -1.098662
     25          6           0       -2.361409    1.551074    0.366370
     26          6           0       -0.872787    1.743713    0.657713
     27          6           0       -0.543285    3.155696    1.143024
     28          1           0       -2.677585    2.282843   -0.389898
     29          1           0       -2.937947    1.771865    1.275105
     30          1           0       -0.299712    1.522252   -0.251768
     31          1           0       -0.559199    1.010887    1.412195
     32          1           0       -1.089512    3.383771    2.064013
     33          1           0       -0.828552    3.898041    0.390596
     34          1           0        0.526087    3.271345    1.345327
 ---------------------------------------------------------------------

 SCF Done:  E(RHF) =  -669.533962135     A.U. after   15 cycles
 E2 =    -0.2095823434D+01 EUMP2 =    -0.67162978556857D+03

 The electronic state is 1-A.
 Alpha  occ. eigenvalues --  -20.60810 -20.60800 -15.85851 -11.31175 -11.27758
 Alpha  occ. eigenvalues --  -11.27710 -11.27499 -11.26805 -11.26729 -11.22059
 Alpha  occ. eigenvalues --  -11.21827 -11.21731 -11.21589 -11.21523 -11.20945
 Alpha  occ. eigenvalues --   -1.59878  -1.39433  -1.19369  -1.08788  -1.08718
 Alpha  occ. eigenvalues --   -1.04769  -1.03788  -0.96262  -0.95608  -0.87280
 Alpha  occ. eigenvalues --   -0.86170  -0.82445  -0.79882  -0.78580  -0.77466
 Alpha  occ. eigenvalues --   -0.72073  -0.71198  -0.70487  -0.65381  -0.65017
 Alpha  occ. eigenvalues --   -0.64769  -0.62122  -0.61183  -0.59660  -0.57869
 Alpha  occ. eigenvalues --   -0.55565  -0.55278  -0.53340  -0.52895  -0.52772
 Alpha  occ. eigenvalues --   -0.52661  -0.50214  -0.48834  -0.48827  -0.48180
 Alpha  occ. eigenvalues --   -0.46929  -0.46062  -0.45939  -0.44822  -0.44039
 Alpha  occ. eigenvalues --   -0.37293  -0.36246
 Alpha virt. eigenvalues --    0.05006   0.11175   0.16461   0.20301   0.22903
 Alpha virt. eigenvalues --    0.23705   0.25455   0.26433   0.27414   0.28464
 Alpha virt. eigenvalues --    0.29023   0.30407   0.31228   0.31431   0.32110

 Mulliken charges:
               1
     1  C   -0.174117
     2  C   -0.218371
     3  C   -0.172168
     4  C    0.163375
     5  C   -0.173127
     6  C   -0.210383
     7  H    0.225394
     8  H    0.223467
     9  H    0.275436
    10  H    0.274315
    11  H    0.225992
    12  N    0.487950
    13  O   -0.461128
    14  O   -0.460303
    15  C   -0.297037
    16  C   -0.299421
    17  C   -0.476388
    18  H    0.143444
    19  H    0.145814
    20  H    0.154924
    21  H    0.153246
    22  H    0.149887
    23  H    0.152383
    24  H    0.164003
    25  C   -0.298376
    26  C   -0.304050
    27  C   -0.476105
    28  H    0.151659
    29  H    0.148980
    30  H    0.154622
    31  H    0.152501
    32  H    0.152582
    33  H    0.157348
    34  H    0.163652
 Sum of Mulliken charges =  -0.00000

 Dipole moment (field-independent basis, Debye):
    X=             -2.9015    Y=             -3.3862    Z=              2.6110  Tot=              5.1674
 Quadrupole moment (field-independent basis, Debye-Ang):
   XX=           -106.0326   YY=            -92.7891   ZZ=            -92.2827
   XY=             -5.9370   XZ=              8.7425   YZ=             -0.8868

 Normal termination of Gaussian 16 at Thu May  6 17:43:37 2021.
