 Gaussian 16, Revision A.03,
 Gaussian 16:  EM64L-G16RevA.03 25-Dec-2016

 -------------
 #p 6-31g* mp2
 -------------

 ------------------------------------------------------
 Input file generated by CHIRIPA (05-May-2021 14:55:19)
 ------------------------------------------------------
 Symbolic Z-matrix:
 Charge =  0 Multiplicity = 1

                         Standard orientation:
 ---------------------------------------------------------------------
 Center     Atomic      Atomic             Coordinates (Angstroms)
 Number     Number       Type             X           Y           Z
 ---------------------------------------------------------------------
      1          6           0        5.168885   -1.559616    0.437889
      2          6           0        4.030026   -1.598576    1.249063
      3          6           0        2.940123   -0.764304    0.983262
      4          6           0        3.023379    0.100624   -0.106811
      5          6           0        4.144108    0.162732   -0.933491
      6          6           0        5.222197   -0.680636   -0.648883
      7          1           0        6.010959   -2.211232    0.651674
      8          1           0        3.985835   -2.280202    2.093739
      9          1           0        2.046152   -0.773913    1.594933
     10          1           0        4.158787    0.852758   -1.768396
     11          1           0        6.105361   -0.648225   -1.280561
     12          7           0        1.875801    0.988645   -0.398158
     13          8           0        1.973949    1.741743   -1.364516
     14          8           0        0.899912    0.914764    0.345359
     15          6           0       -4.070559    0.755339    0.385387
     16          6           0       -2.699834    1.412293    0.219530
     17          6           0       -2.632581    2.805807    0.845144
     18          1           0       -4.836192    1.399703   -0.067985
     19          1           0       -4.310929    0.689805    1.455585
     20          1           0       -2.461513    1.475312   -0.849978
     21          1           0       -1.937352    0.766199    0.673182
     22          1           0       -2.844787    2.757045    1.918079
     23          1           0       -3.371926    3.470188    0.386267
     24          1           0       -1.643979    3.257016    0.715000
     25          6           0       -4.153477   -0.638263   -0.234876
     26          6           0       -5.524202   -1.295217   -0.069019
     27          6           0       -5.591455   -2.688731   -0.694631
     28          1           0       -3.913107   -0.572728   -1.305073
     29          1           0       -3.387843   -1.282627    0.218496
     30          1           0       -6.286684   -0.649123   -0.522670
     31          1           0       -5.762523   -1.358237    1.000489
     32          1           0       -4.852110   -3.353111   -0.235755
     33          1           0       -5.379250   -2.639969   -1.767568
     34          1           0       -6.580057   -3.139941   -0.564489
 ---------------------------------------------------------------------

 SCF Done:  E(RHF) =  -669.535984040     A.U. after   15 cycles
 E2 =    -0.2091068618D+01 EUMP2 =    -0.67162705265780D+03

 The electronic state is 1-A.
 Alpha  occ. eigenvalues --  -20.60951 -20.60937 -15.85980 -11.31304 -11.27869
 Alpha  occ. eigenvalues --  -11.27863 -11.27604 -11.26875 -11.26865 -11.20945
 Alpha  occ. eigenvalues --  -11.20568 -11.20515 -11.20240 -11.19916 -11.19540
 Alpha  occ. eigenvalues --   -1.60005  -1.39562  -1.19472  -1.08875  -1.07403
 Alpha  occ. eigenvalues --   -1.04869  -1.02429  -0.95718  -0.94933  -0.86269
 Alpha  occ. eigenvalues --   -0.85969  -0.82554  -0.78554  -0.77609  -0.77110
 Alpha  occ. eigenvalues --   -0.72201  -0.71320  -0.70581  -0.65129  -0.64872
 Alpha  occ. eigenvalues --   -0.64050  -0.62217  -0.59839  -0.58344  -0.56474
 Alpha  occ. eigenvalues --   -0.55370  -0.54263  -0.53200  -0.52961  -0.51620
 Alpha  occ. eigenvalues --   -0.51357  -0.48977  -0.48954  -0.48913  -0.46846
 Alpha  occ. eigenvalues --   -0.45617  -0.45029  -0.44639  -0.44497  -0.42696
 Alpha  occ. eigenvalues --   -0.37450  -0.36470
 Alpha virt. eigenvalues --    0.04922   0.11185   0.16415   0.21304   0.23776
 Alpha virt. eigenvalues --    0.25393   0.27226   0.27589   0.28096   0.28639
 Alpha virt. eigenvalues --    0.29007   0.30867   0.32238   0.32475   0.32796

 Mulliken charges:
               1
     1  C   -0.170607
     2  C   -0.218500
     3  C   -0.170640
     4  C    0.157667
     5  C   -0.170570
     6  C   -0.218560
     7  H    0.226025
     8  H    0.223808
     9  H    0.275298
    10  H    0.275891
    11  H    0.223851
    12  N    0.492545
    13  O   -0.459295
    14  O   -0.463441
    15  C   -0.298624
    16  C   -0.298078
    17  C   -0.477134
    18  H    0.145546
    19  H    0.144725
    20  H    0.153202
    21  H    0.166577
    22  H    0.147291
    23  H    0.147532
    24  H    0.172182
    25  C   -0.296617
    26  C   -0.298623
    27  C   -0.474897
    28  H    0.149271
    29  H    0.147566
    30  H    0.151011
    31  H    0.149989
    32  H    0.153132
    33  H    0.154621
    34  H    0.157856
 Sum of Mulliken charges =  -0.00000

 Dipole moment (field-independent basis, Debye):
    X=              4.4312    Y=             -3.0944    Z=              0.9878  Tot=              5.4942
 Quadrupole moment (field-independent basis, Debye-Ang):
   XX=            -71.0294   YY=            -96.5405   ZZ=            -91.7178
   XY=             -8.5606   XZ=              0.8131   YZ=             -2.3128

 Normal termination of Gaussian 16 at Wed May  5 15:49:33 2021.
