 Gaussian 16, Revision A.03,
 Gaussian 16:  EM64L-G16RevA.03 25-Dec-2016

 -------------
 #p 6-31g* mp2
 -------------

 ------------------------------------------------------
 Input file generated by CHIRIPA (05-May-2021 14:53:16)
 ------------------------------------------------------
 Symbolic Z-matrix:
 Charge =  0 Multiplicity = 1

                         Standard orientation:
 ---------------------------------------------------------------------
 Center     Atomic      Atomic             Coordinates (Angstroms)
 Number     Number       Type             X           Y           Z
 ---------------------------------------------------------------------
      1          6           0       -3.665520    0.000289    0.103837
      2          6           0       -3.589138   -1.375978   -0.558007
      3          6           0       -4.934497   -2.102406   -0.568436
      4          1           0       -4.029605   -0.114961    1.133936
      5          1           0       -4.409760    0.612510   -0.424072
      6          1           0       -2.844267   -1.984952   -0.029866
      7          1           0       -3.225011   -1.257458   -1.586589
      8          1           0       -5.683506   -1.518254   -1.112818
      9          1           0       -5.300599   -2.249881    0.452750
     10          1           0       -4.857007   -3.084064   -1.046140
     11          6           0       -2.328388    0.738853    0.121949
     12          6           0       -2.404770    2.115121    0.783793
     13          6           0       -1.059412    2.841548    0.794221
     14          1           0       -1.584148    0.126632    0.649858
     15          1           0       -1.964303    0.854103   -0.908150
     16          1           0       -2.768898    1.996601    1.812375
     17          1           0       -3.149642    2.724095    0.255651
     18          1           0       -0.693309    2.989024   -0.226965
     19          1           0       -0.310402    2.257397    1.338604
     20          1           0       -1.136901    3.823207    1.271926
     21          6           0        2.445309   -2.554687    1.016587
     22          6           0        2.346370   -1.398798    1.798030
     23          6           0        2.288085   -0.138039    1.196666
     24          6           0        2.331322   -0.069663   -0.195004
     25          6           0        2.429678   -1.202935   -1.000802
     26          6           0        2.486574   -2.453245   -0.377877
     27          1           0        2.490046   -3.530016    1.492116
     28          1           0        2.314127   -1.474555    2.881204
     29          1           0        2.211297    0.773019    1.777609
     30          1           0        2.459751   -1.095556   -2.078291
     31          1           0        2.563391   -3.349225   -0.987272
     32          7           0        2.270354    1.259515   -0.843054
     33          8           0        2.310193    1.292855   -2.071036
     34          8           0        2.183882    2.242815   -0.110744
 ---------------------------------------------------------------------

 SCF Done:  E(RHF) =  -669.535571900     A.U. after   15 cycles
 E2 =    -0.2092497444D+01 EUMP2 =    -0.67162806934393D+03

 The electronic state is 1-A.
 Alpha  occ. eigenvalues --  -20.60861 -20.60821 -15.85865 -11.31249 -11.27821
 Alpha  occ. eigenvalues --  -11.27800 -11.27550 -11.26833 -11.26818 -11.21530
 Alpha  occ. eigenvalues --  -11.21192 -11.21071 -11.21052 -11.21012 -11.20098
 Alpha  occ. eigenvalues --   -1.59904  -1.39460  -1.19414  -1.08808  -1.08142
 Alpha  occ. eigenvalues --   -1.04818  -1.03168  -0.95671  -0.95561  -0.86596
 Alpha  occ. eigenvalues --   -0.86216  -0.82479  -0.79248  -0.77953  -0.77513
 Alpha  occ. eigenvalues --   -0.72097  -0.71217  -0.70523  -0.65070  -0.64834
 Alpha  occ. eigenvalues --   -0.64770  -0.62171  -0.60567  -0.59015  -0.57202
 Alpha  occ. eigenvalues --   -0.55320  -0.54875  -0.53148  -0.52912  -0.52272
 Alpha  occ. eigenvalues --   -0.52002  -0.49566  -0.48858  -0.48832  -0.47579
 Alpha  occ. eigenvalues --   -0.46289  -0.45565  -0.45396  -0.44639  -0.43434
 Alpha  occ. eigenvalues --   -0.37385  -0.36415
 Alpha virt. eigenvalues --    0.04981   0.11164   0.16476   0.21197   0.23070
 Alpha virt. eigenvalues --    0.24435   0.26424   0.27149   0.27606   0.27862
 Alpha virt. eigenvalues --    0.28889   0.30537   0.31492   0.32027   0.32362

 Mulliken charges:
               1
     1  C   -0.297505
     2  C   -0.299170
     3  C   -0.475375
     4  H    0.147857
     5  H    0.150430
     6  H    0.148827
     7  H    0.152535
     8  H    0.156149
     9  H    0.154270
    10  H    0.158433
    11  C   -0.299186
    12  C   -0.301199
    13  C   -0.473274
    14  H    0.144934
    15  H    0.152192
    16  H    0.146820
    17  H    0.151031
    18  H    0.168318
    19  H    0.151113
    20  H    0.157744
    21  C   -0.170782
    22  C   -0.218938
    23  C   -0.172237
    24  C    0.160136
    25  C   -0.170589
    26  C   -0.218209
    27  H    0.225806
    28  H    0.223669
    29  H    0.276396
    30  H    0.275724
    31  H    0.223746
    32  N    0.487833
    33  O   -0.460703
    34  O   -0.456796
 Sum of Mulliken charges =  -0.00000

 Dipole moment (field-independent basis, Debye):
    X=              0.3839    Y=             -4.5955    Z=              2.1952  Tot=              5.1073
 Quadrupole moment (field-independent basis, Debye-Ang):
   XX=            -95.7607   YY=            -93.6533   ZZ=            -91.0132
   XY=            -11.9170   XZ=              5.3614   YZ=              2.3511

 Normal termination of Gaussian 16 at Thu May  6 18:51:37 2021.
