 Gaussian 16, Revision A.03,
 Gaussian 16:  EM64L-G16RevA.03 25-Dec-2016

 -------------
 #p 6-31g* mp2
 -------------

 ------------------------------------------------------
 Input file generated by CHIRIPA (05-May-2021 14:53:15)
 ------------------------------------------------------
 Symbolic Z-matrix:
 Charge =  0 Multiplicity = 1

                         Standard orientation:
 ---------------------------------------------------------------------
 Center     Atomic      Atomic             Coordinates (Angstroms)
 Number     Number       Type             X           Y           Z
 ---------------------------------------------------------------------
      1          6           0       -2.334515   -0.251377   -0.167218
      2          6           0       -3.370355   -1.243869    0.361916
      3          6           0       -2.919602   -2.698407    0.224312
      4          1           0       -2.128151   -0.474479   -1.222957
      5          1           0       -1.388883   -0.395882    0.373423
      6          1           0       -4.314158   -1.096600   -0.178606
      7          1           0       -3.574419   -1.018258    1.416464
      8          1           0       -1.990660   -2.867899    0.778334
      9          1           0       -2.734602   -2.946686   -0.825799
     10          1           0       -3.675004   -3.390874    0.608652
     11          6           0       -2.770697    1.206841   -0.036553
     12          6           0       -1.734857    2.199333   -0.565686
     13          6           0       -2.185610    3.653871   -0.428083
     14          1           0       -3.716330    1.351346   -0.577193
     15          1           0       -2.977061    1.429943    1.019186
     16          1           0       -1.530793    1.973722   -1.620235
     17          1           0       -0.791054    2.052064   -0.025165
     18          1           0       -2.370610    3.902150    0.622029
     19          1           0       -3.114552    3.823363   -0.982105
     20          1           0       -1.430208    4.346338   -0.812423
     21          6           0        1.118186   -2.688427   -0.408597
     22          6           0        0.847363   -2.082758    0.822801
     23          6           0        1.327670   -0.800305    1.104163
     24          6           0        2.078916   -0.149403    0.126795
     25          6           0        2.365595   -0.726262   -1.109465
     26          6           0        1.875103   -2.009444   -1.369107
     27          1           0        0.741117   -3.684950   -0.618729
     28          1           0        0.259798   -2.607700    1.570631
     29          1           0        1.132876   -0.307960    2.049186
     30          1           0        2.954124   -0.178038   -1.835070
     31          1           0        2.086987   -2.477355   -2.326295
     32          7           0        2.592785    1.208658    0.413163
     33          8           0        3.252257    1.761050   -0.464675
     34          8           0        2.326357    1.695000    1.510033
 ---------------------------------------------------------------------

 SCF Done:  E(RHF) =  -669.533528654     A.U. after   15 cycles
 E2 =    -0.2095621240D+01 EUMP2 =    -0.67162914989420D+03

 The electronic state is 1-A.
 Alpha  occ. eigenvalues --  -20.60868 -20.60861 -15.85913 -11.31277 -11.27826
 Alpha  occ. eigenvalues --  -11.27819 -11.27546 -11.26843 -11.26819 -11.21965
 Alpha  occ. eigenvalues --  -11.21751 -11.21405 -11.21382 -11.21303 -11.20734
 Alpha  occ. eigenvalues --   -1.59936  -1.39490  -1.19450  -1.08841  -1.08500
 Alpha  occ. eigenvalues --   -1.04866  -1.03633  -0.96100  -0.95665  -0.87129
 Alpha  occ. eigenvalues --   -0.86250  -0.82513  -0.79727  -0.78288  -0.77555
 Alpha  occ. eigenvalues --   -0.72130  -0.71255  -0.70534  -0.65221  -0.65100
 Alpha  occ. eigenvalues --   -0.64851  -0.62233  -0.61024  -0.59491  -0.57678
 Alpha  occ. eigenvalues --   -0.55481  -0.55283  -0.53295  -0.52978  -0.52764
 Alpha  occ. eigenvalues --   -0.52490  -0.50068  -0.48889  -0.48885  -0.48016
 Alpha  occ. eigenvalues --   -0.46755  -0.45795  -0.45744  -0.44858  -0.43843
 Alpha  occ. eigenvalues --   -0.37379  -0.36292
 Alpha virt. eigenvalues --    0.04955   0.11016   0.16386   0.20389   0.23054
 Alpha virt. eigenvalues --    0.24210   0.25919   0.26710   0.27302   0.28185
 Alpha virt. eigenvalues --    0.29003   0.30016   0.31377   0.31822   0.32200

 Mulliken charges:
               1
     1  C   -0.304675
     2  C   -0.299371
     3  C   -0.475217
     4  H    0.147726
     5  H    0.156965
     6  H    0.153732
     7  H    0.151251
     8  H    0.144091
     9  H    0.154070
    10  H    0.161248
    11  C   -0.297952
    12  C   -0.300871
    13  C   -0.475557
    14  H    0.148408
    15  H    0.149186
    16  H    0.150356
    17  H    0.154491
    18  H    0.156390
    19  H    0.152597
    20  H    0.164919
    21  C   -0.167704
    22  C   -0.216308
    23  C   -0.176949
    24  C    0.162535
    25  C   -0.170798
    26  C   -0.218416
    27  H    0.227128
    28  H    0.224989
    29  H    0.275809
    30  H    0.275897
    31  H    0.223842
    32  N    0.488463
    33  O   -0.459407
    34  O   -0.460866
 Sum of Mulliken charges =  -0.00000

 Dipole moment (field-independent basis, Debye):
    X=             -1.6802    Y=             -4.7159    Z=             -1.0491  Tot=              5.1150
 Quadrupole moment (field-independent basis, Debye-Ang):
   XX=           -102.1772   YY=            -95.1159   ZZ=            -90.2182
   XY=             -9.6175   XZ=             -4.2190   YZ=             -0.4528

 Normal termination of Gaussian 16 at Wed May  5 17:08:24 2021.
