 Gaussian 16, Revision A.03,
 Gaussian 16:  EM64L-G16RevA.03 25-Dec-2016

 -------------
 #p 6-31g* mp2
 -------------

 ------------------------------------------------------
 Input file generated by CHIRIPA (05-May-2021 14:55:24)
 ------------------------------------------------------
 Symbolic Z-matrix:
 Charge =  0 Multiplicity = 1

                         Standard orientation:
 ---------------------------------------------------------------------
 Center     Atomic      Atomic             Coordinates (Angstroms)
 Number     Number       Type             X           Y           Z
 ---------------------------------------------------------------------
      1          6           0       -3.056819   -2.172041   -0.992119
      2          6           0       -1.734004   -1.754707   -0.811804
      3          6           0       -1.450846   -0.445417   -0.411640
      4          6           0       -2.519657    0.424075   -0.199699
      5          6           0       -3.848215    0.038199   -0.370937
      6          6           0       -4.107850   -1.275836   -0.771500
      7          1           0       -3.267646   -3.190972   -1.303131
      8          1           0       -0.915758   -2.448545   -0.982412
      9          1           0       -0.436125   -0.095927   -0.264621
     10          1           0       -4.642791    0.752674   -0.193199
     11          1           0       -5.136146   -1.597176   -0.910757
     12          7           0       -2.232342    1.812673    0.224147
     13          8           0       -3.191772    2.559427    0.404395
     14          8           0       -1.053154    2.128008    0.368085
     15          6           0        4.020327   -0.161942    0.154955
     16          6           0        4.218730    0.439831   -1.236623
     17          6           0        5.693558    0.609591   -1.602490
     18          1           0        4.512538    0.479737    0.898542
     19          1           0        4.524950   -1.136967    0.200520
     20          1           0        3.712712    1.412807   -1.279987
     21          1           0        3.725825   -0.203253   -1.976964
     22          1           0        6.207987   -0.356705   -1.587085
     23          1           0        6.194799    1.268537   -0.886148
     24          1           0        5.812324    1.041276   -2.601192
     25          6           0        2.551217   -0.337814    0.535102
     26          6           0        2.352814   -0.939586    1.926681
     27          6           0        0.877986   -1.109346    2.292548
     28          1           0        2.046595    0.637212    0.489537
     29          1           0        2.059006   -0.979491   -0.208485
     30          1           0        2.845719   -0.296502    2.667022
     31          1           0        2.858832   -1.912562    1.970044
     32          1           0        0.376745   -1.768292    1.576205
     33          1           0        0.363558   -0.143051    2.277143
     34          1           0        0.759220   -1.541031    3.291248
 ---------------------------------------------------------------------

 SCF Done:  E(RHF) =  -669.535088357     A.U. after   15 cycles
 E2 =    -0.2093692423D+01 EUMP2 =    -0.67162878078000D+03

 The electronic state is 1-A.
 Alpha  occ. eigenvalues --  -20.60821 -20.60816 -15.85853 -11.31104 -11.27721
 Alpha  occ. eigenvalues --  -11.27617 -11.27463 -11.26701 -11.26681 -11.21750
 Alpha  occ. eigenvalues --  -11.21635 -11.21623 -11.21479 -11.21179 -11.21074
 Alpha  occ. eigenvalues --   -1.59881  -1.39438  -1.19305  -1.08721  -1.08579
 Alpha  occ. eigenvalues --   -1.04707  -1.03632  -0.96101  -0.95564  -0.87118
 Alpha  occ. eigenvalues --   -0.86104  -0.82410  -0.79723  -0.78471  -0.77406
 Alpha  occ. eigenvalues --   -0.72076  -0.71194  -0.70423  -0.65220  -0.64942
 Alpha  occ. eigenvalues --   -0.64712  -0.62094  -0.61010  -0.59442  -0.57728
 Alpha  occ. eigenvalues --   -0.55386  -0.55217  -0.53140  -0.52845  -0.52715
 Alpha  occ. eigenvalues --   -0.52441  -0.50029  -0.48846  -0.48826  -0.47986
 Alpha  occ. eigenvalues --   -0.46717  -0.45945  -0.45809  -0.44840  -0.43901
 Alpha  occ. eigenvalues --   -0.37295  -0.36241
 Alpha virt. eigenvalues --    0.05050   0.11318   0.16431   0.20179   0.23005
 Alpha virt. eigenvalues --    0.24098   0.25482   0.26463   0.27842   0.28162
 Alpha virt. eigenvalues --    0.29509   0.29686   0.31595   0.31711   0.32138

 Mulliken charges:
               1
     1  C   -0.170058
     2  C   -0.224689
     3  C   -0.170998
     4  C    0.154339
     5  C   -0.169679
     6  C   -0.219751
     7  H    0.225378
     8  H    0.222723
     9  H    0.290947
    10  H    0.275238
    11  H    0.223097
    12  N    0.488469
    13  O   -0.459538
    14  O   -0.463540
    15  C   -0.296675
    16  C   -0.300825
    17  C   -0.475920
    18  H    0.153270
    19  H    0.148221
    20  H    0.157602
    21  H    0.148409
    22  H    0.153982
    23  H    0.156681
    24  H    0.160958
    25  C   -0.310950
    26  C   -0.297143
    27  C   -0.486569
    28  H    0.167011
    29  H    0.136129
    30  H    0.156650
    31  H    0.149919
    32  H    0.146395
    33  H    0.168589
    34  H    0.162326
 Sum of Mulliken charges =  -0.00000

 Dipole moment (field-independent basis, Debye):
    X=             -0.9449    Y=             -4.7102    Z=             -1.4101  Tot=              5.0067
 Quadrupole moment (field-independent basis, Debye-Ang):
   XX=            -85.5794   YY=            -98.6876   ZZ=            -94.8617
   XY=             11.1347   XZ=              4.5111   YZ=              0.9708

 Normal termination of Gaussian 16 at Thu May  6 01:35:18 2021.
