 Gaussian 16, Revision A.03,
 Gaussian 16:  EM64L-G16RevA.03 25-Dec-2016

 -------------
 #p 6-31g* mp2
 -------------

 ------------------------------------------------------
 Input file generated by CHIRIPA (05-May-2021 14:51:14)
 ------------------------------------------------------
 Symbolic Z-matrix:
 Charge =  0 Multiplicity = 1

                         Standard orientation:
 ---------------------------------------------------------------------
 Center     Atomic      Atomic             Coordinates (Angstroms)
 Number     Number       Type             X           Y           Z
 ---------------------------------------------------------------------
      1          6           0        4.896316   -0.122073    0.109585
      2          6           0        5.405167   -1.560690    0.012449
      3          6           0        6.778936   -1.746635    0.657410
      4          1           0        5.621735    0.549823   -0.369234
      5          1           0        4.848688    0.172002    1.167246
      6          1           0        5.450505   -1.852432   -1.044645
      7          1           0        4.678359   -2.229260    0.491386
      8          1           0        6.744974   -1.482188    1.719256
      9          1           0        7.521507   -1.103219    0.174497
     10          1           0        7.123537   -2.782287    0.576565
     11          6           0        3.524082    0.079684   -0.530725
     12          6           0        3.015231    1.518302   -0.433589
     13          6           0        1.641461    1.704247   -1.078550
     14          1           0        3.571709   -0.214390   -1.588386
     15          1           0        2.798663   -0.592212   -0.051906
     16          1           0        3.742038    2.186872   -0.912526
     17          1           0        2.969893    1.810044    0.623505
     18          1           0        0.898891    1.060831   -0.595637
     19          1           0        1.675424    1.439800   -2.140395
     20          1           0        1.296861    2.739899   -0.997705
     21          6           0       -4.674335   -0.548434    0.419216
     22          6           0       -5.585144   -1.032790   -0.709417
     23          6           0       -6.507794   -2.172593   -0.276566
     24          1           0       -4.071686   -1.391885    0.783012
     25          1           0       -5.293656   -0.219019    1.264984
     26          1           0       -4.964322   -1.359898   -1.553333
     27          1           0       -6.185558   -0.188044   -1.070698
     28          1           0       -7.151332   -1.854520    0.550046
     29          1           0       -5.923156   -3.033033    0.064670
     30          1           0       -7.150114   -2.503392   -1.098672
     31          6           0       -3.746062    0.590822    0.001924
     32          6           0       -2.835254    1.075178    1.130557
     33          6           0       -1.912603    2.214982    0.697707
     34          1           0       -3.126742    0.261409   -0.843844
     35          1           0       -4.348712    1.434274   -0.361872
     36          1           0       -2.234839    0.230433    1.491837
     37          1           0       -3.456077    1.402288    1.974473
     38          1           0       -2.497242    3.075422    0.356470
     39          1           0       -1.269066    1.896909   -0.128907
     40          1           0       -1.270283    2.545780    1.519811
 ---------------------------------------------------------------------

 SCF Done:  E(RHF) =  -470.732920338     A.U. after   11 cycles
 E2 =    -0.1582392122D+01 EUMP2 =    -0.47231531246006D+03

 The electronic state is 1-A.
 Alpha  occ. eigenvalues --  -11.21610 -11.21600 -11.21585 -11.21560 -11.21413
 Alpha  occ. eigenvalues --  -11.21380 -11.21354 -11.21320 -11.21078 -11.21059
 Alpha  occ. eigenvalues --  -11.21050 -11.20940  -1.08438  -1.08400  -1.03547
 Alpha  occ. eigenvalues --   -1.03481  -0.96026  -0.95903  -0.87075  -0.86892
 Alpha  occ. eigenvalues --   -0.79658  -0.79502  -0.78255  -0.78209  -0.65095
 Alpha  occ. eigenvalues --   -0.65012  -0.61063  -0.60787  -0.59357  -0.59303
 Alpha  occ. eigenvalues --   -0.57602  -0.57547  -0.55513  -0.55030  -0.52763
 Alpha  occ. eigenvalues --   -0.52597  -0.52439  -0.52291  -0.50155  -0.49640
 Alpha  occ. eigenvalues --   -0.47952  -0.47833  -0.46744  -0.46449  -0.45811
 Alpha  occ. eigenvalues --   -0.45747  -0.45719  -0.45628  -0.43795  -0.43731
 Alpha virt. eigenvalues --    0.22166   0.23017   0.23681   0.24814   0.26342
 Alpha virt. eigenvalues --    0.26760   0.27137   0.27514   0.27655   0.29054
 Alpha virt. eigenvalues --    0.30632   0.31188   0.31662   0.31762   0.32242

 Mulliken charges:
               1
     1  C   -0.298302
     2  C   -0.299642
     3  C   -0.475709
     4  H    0.149724
     5  H    0.149575
     6  H    0.151909
     7  H    0.151855
     8  H    0.155207
     9  H    0.155215
    10  H    0.160255
    11  C   -0.298582
    12  C   -0.299626
    13  C   -0.478698
    14  H    0.149456
    15  H    0.149522
    16  H    0.151911
    17  H    0.152183
    18  H    0.157653
    19  H    0.154632
    20  H    0.162193
    21  C   -0.298223
    22  C   -0.299645
    23  C   -0.475685
    24  H    0.149423
    25  H    0.149478
    26  H    0.151953
    27  H    0.151945
    28  H    0.155146
    29  H    0.155108
    30  H    0.160212
    31  C   -0.298254
    32  C   -0.299818
    33  C   -0.481755
    34  H    0.149526
    35  H    0.149708
    36  H    0.150884
    37  H    0.151665
    38  H    0.154426
    39  H    0.163988
    40  H    0.159188
 Sum of Mulliken charges =  -0.00000

 Dipole moment (field-independent basis, Debye):
    X=              0.0258    Y=              0.0116    Z=             -0.0199  Tot=              0.0346
 Quadrupole moment (field-independent basis, Debye-Ang):
   XX=            -85.6828   YY=            -85.0490   ZZ=            -84.1519
   XY=             -0.6704   XZ=             -0.8582   YZ=              0.2097

 Normal termination of Gaussian 16 at Wed May  5 16:55:05 2021.
