 Gaussian 16, Revision A.03,
 Gaussian 16:  EM64L-G16RevA.03 25-Dec-2016

 -------------
 #p 6-31g* mp2
 -------------

 ------------------------------------------------------
 Input file generated by CHIRIPA (05-May-2021 14:53:12)
 ------------------------------------------------------
 Symbolic Z-matrix:
 Charge =  0 Multiplicity = 1

                         Standard orientation:
 ---------------------------------------------------------------------
 Center     Atomic      Atomic             Coordinates (Angstroms)
 Number     Number       Type             X           Y           Z
 ---------------------------------------------------------------------
      1          6           0        2.888434    0.688692   -0.151682
      2          6           0        2.064080    1.958524    0.062679
      3          6           0        2.923436    3.163357    0.446970
      4          1           0        3.448599    0.463515    0.766172
      5          1           0        3.635231    0.872815   -0.936403
      6          1           0        1.318148    1.771631    0.845796
      7          1           0        1.505664    2.180598   -0.855728
      8          1           0        3.658044    3.377977   -0.335902
      9          1           0        3.469462    2.966686    1.375289
     10          1           0        2.313950    4.060222    0.595366
     11          6           0        2.043403   -0.524425   -0.536385
     12          6           0        2.867758   -1.794258   -0.750746
     13          6           0        2.008402   -2.999091   -1.135037
     14          1           0        1.296607   -0.708548    0.248336
     15          1           0        1.483239   -0.299248   -1.454239
     16          1           0        3.426173   -2.016331    0.167661
     17          1           0        3.613690   -1.607364   -1.533863
     18          1           0        1.462375   -2.802419   -2.063356
     19          1           0        1.273793   -3.213710   -0.352165
     20          1           0        2.617888   -3.895955   -1.283433
     21          6           0       -0.878422   -1.675396    1.903216
     22          6           0       -1.588645   -2.160292    0.800048
     23          6           0       -2.173525   -1.276767   -0.112009
     24          6           0       -2.027823    0.091601    0.110764
     25          6           0       -1.326322    0.605527    1.200290
     26          6           0       -0.749753   -0.296466    2.099471
     27          1           0       -0.427302   -2.368913    2.606724
     28          1           0       -1.690190   -3.230679    0.645115
     29          1           0       -2.728748   -1.624968   -0.974507
     30          1           0       -1.242157    1.677897    1.328186
     31          1           0       -0.198750    0.082960    2.955318
     32          7           0       -2.642610    1.036724   -0.847974
     33          8           0       -2.499841    2.237739   -0.629296
     34          8           0       -3.255606    0.558602   -1.799957
 ---------------------------------------------------------------------

 SCF Done:  E(RHF) =  -669.533439872     A.U. after   15 cycles
 E2 =    -0.2096682635D+01 EUMP2 =    -0.67163012250676D+03

 The electronic state is 1-A.
 Alpha  occ. eigenvalues --  -20.60851 -20.60845 -15.85904 -11.31308 -11.27895
 Alpha  occ. eigenvalues --  -11.27866 -11.27624 -11.26909 -11.26868 -11.21784
 Alpha  occ. eigenvalues --  -11.21689 -11.21479 -11.21376 -11.21261 -11.21151
 Alpha  occ. eigenvalues --   -1.59923  -1.39475  -1.19507  -1.08898  -1.08525
 Alpha  occ. eigenvalues --   -1.04914  -1.03682  -0.96125  -0.95711  -0.87154
 Alpha  occ. eigenvalues --   -0.86294  -0.82542  -0.79759  -0.78367  -0.77568
 Alpha  occ. eigenvalues --   -0.72123  -0.71243  -0.70603  -0.65248  -0.65122
 Alpha  occ. eigenvalues --   -0.64902  -0.62275  -0.61086  -0.59487  -0.57744
 Alpha  occ. eigenvalues --   -0.55457  -0.55399  -0.53456  -0.52996  -0.52778
 Alpha  occ. eigenvalues --   -0.52527  -0.50092  -0.48885  -0.48874  -0.48078
 Alpha  occ. eigenvalues --   -0.46814  -0.45854  -0.45671  -0.44864  -0.43896
 Alpha  occ. eigenvalues --   -0.37413  -0.36385
 Alpha virt. eigenvalues --    0.04916   0.11003   0.16294   0.20662   0.23107
 Alpha virt. eigenvalues --    0.23651   0.26469   0.26758   0.27514   0.28115
 Alpha virt. eigenvalues --    0.28306   0.30593   0.31304   0.31764   0.32224

 Mulliken charges:
               1
     1  C   -0.297209
     2  C   -0.301438
     3  C   -0.475966
     4  H    0.144839
     5  H    0.150640
     6  H    0.143319
     7  H    0.159412
     8  H    0.157199
     9  H    0.151750
    10  H    0.162393
    11  C   -0.309075
    12  C   -0.298459
    13  C   -0.475861
    14  H    0.161772
    15  H    0.150324
    16  H    0.147868
    17  H    0.153098
    18  H    0.157017
    19  H    0.148167
    20  H    0.159263
    21  C   -0.172965
    22  C   -0.214486
    23  C   -0.170928
    24  C    0.159783
    25  C   -0.165306
    26  C   -0.222296
    27  H    0.226600
    28  H    0.224972
    29  H    0.276469
    30  H    0.276987
    31  H    0.224263
    32  N    0.487901
    33  O   -0.459833
    34  O   -0.460211
 Sum of Mulliken charges =  -0.00000

 Dipole moment (field-independent basis, Debye):
    X=              1.9791    Y=             -3.2701    Z=              3.3389  Tot=              5.0753
 Quadrupole moment (field-independent basis, Debye-Ang):
   XX=           -104.2283   YY=            -93.6843   ZZ=            -92.1244
   XY=              8.3281   XZ=             -5.9767   YZ=              1.5676

 Normal termination of Gaussian 16 at Wed May  5 23:21:47 2021.
