 Gaussian 16, Revision A.03,
 Gaussian 16:  EM64L-G16RevA.03 25-Dec-2016

 -------------
 #p 6-31g* mp2
 -------------

 ------------------------------------------------------
 Input file generated by CHIRIPA (05-May-2021 14:57:24)
 ------------------------------------------------------
 Symbolic Z-matrix:
 Charge =  0 Multiplicity = 1

                         Standard orientation:
 ---------------------------------------------------------------------
 Center     Atomic      Atomic             Coordinates (Angstroms)
 Number     Number       Type             X           Y           Z
 ---------------------------------------------------------------------
      1          6           0        4.310303    0.693126   -0.939041
      2          6           0        3.884414   -0.636046   -1.030910
      3          6           0        2.797362   -1.087074   -0.276296
      4          6           0        2.156417   -0.177826    0.563791
      5          6           0        2.556996    1.152576    0.677175
      6          6           0        3.646406    1.581629   -0.086795
      7          1           0        5.155667    1.034960   -1.528877
      8          1           0        4.398108   -1.328290   -1.691941
      9          1           0        2.446701   -2.110679   -0.328136
     10          1           0        2.024930    1.819239    1.344920
     11          1           0        3.974961    2.614447   -0.013427
     12          7           0        1.004356   -0.643677    1.367619
     13          8           0        0.456559    0.177128    2.100309
     14          8           0        0.670982   -1.820794    1.249748
     15          6           0       -2.076109   -2.391107   -0.717823
     16          6           0       -1.328926   -1.510669   -1.507169
     17          6           0       -1.470482   -0.127930   -1.357026
     18          6           0       -2.372410    0.341981   -0.403612
     19          6           0       -3.131060   -0.509711    0.397864
     20          6           0       -2.973209   -1.888702    0.230503
     21          1           0       -1.959815   -3.463796   -0.841146
     22          1           0       -0.631474   -1.898007   -2.244445
     23          1           0       -0.904579    0.576186   -1.954850
     24          1           0       -3.818397   -0.093724    1.124461
     25          1           0       -3.554796   -2.570103    0.844910
     26          7           0       -2.530895    1.803841   -0.235547
     27          8           0       -3.332180    2.192617    0.611467
     28          8           0       -1.850830    2.533192   -0.954016
 ---------------------------------------------------------------------

 SCF Done:  E(RHF) =  -868.338043376     A.U. after   16 cycles
 E2 =    -0.2603154586D+01 EUMP2 =    -0.87094119796230D+03

 The electronic state is 1-A.
 Alpha  occ. eigenvalues --  -20.60967 -20.60952 -20.60024 -20.59983 -15.85987
 Alpha  occ. eigenvalues --  -15.85056 -11.31348 -11.30232 -11.27977 -11.27834
 Alpha  occ. eigenvalues --  -11.27638 -11.26968 -11.26861 -11.26853 -11.26736
 Alpha  occ. eigenvalues --  -11.26491 -11.25861 -11.25707  -1.60019  -1.59077
 Alpha  occ. eigenvalues --   -1.39580  -1.38641  -1.19515  -1.18382  -1.08910
 Alpha  occ. eigenvalues --   -1.07802  -1.04911  -1.03798  -0.95751  -0.94685
 Alpha  occ. eigenvalues --   -0.86308  -0.85208  -0.82587  -0.81553  -0.77637
 Alpha  occ. eigenvalues --   -0.76626  -0.72239  -0.71390  -0.71295  -0.70615
 Alpha  occ. eigenvalues --   -0.70349  -0.69529  -0.65166  -0.64908  -0.64067
 Alpha  occ. eigenvalues --   -0.63846  -0.62254  -0.61186  -0.55408  -0.54308
 Alpha  occ. eigenvalues --   -0.53252  -0.52996  -0.52063  -0.51928  -0.49000
 Alpha  occ. eigenvalues --   -0.48939  -0.48055  -0.48027  -0.45050  -0.44098
 Alpha  occ. eigenvalues --   -0.37516  -0.36519  -0.36164  -0.35341
 Alpha virt. eigenvalues --    0.04771   0.06038   0.11082   0.12333   0.16390
 Alpha virt. eigenvalues --    0.17512   0.21237   0.22234   0.27070   0.27858
 Alpha virt. eigenvalues --    0.28411   0.29173   0.30830   0.31614   0.32543

 Mulliken charges:
               1
     1  C   -0.170918
     2  C   -0.219405
     3  C   -0.174721
     4  C    0.157424
     5  C   -0.168644
     6  C   -0.217919
     7  H    0.226462
     8  H    0.221952
     9  H    0.270365
    10  H    0.280959
    11  H    0.226903
    12  N    0.489899
    13  O   -0.458071
    14  O   -0.462935
    15  C   -0.154083
    16  C   -0.215666
    17  C   -0.184562
    18  C    0.164474
    19  C   -0.163207
    20  C   -0.211948
    21  H    0.222216
    22  H    0.214371
    23  H    0.269530
    24  H    0.274358
    25  H    0.221812
    26  N    0.489710
    27  O   -0.459791
    28  O   -0.468566
 Sum of Mulliken charges =  -0.00000

 Dipole moment (field-independent basis, Debye):
    X=              4.5992    Y=             -3.5398    Z=             -3.1142  Tot=              6.5864
 Quadrupole moment (field-independent basis, Debye-Ang):
   XX=            -88.3810   YY=           -105.2468   ZZ=           -105.5833
   XY=             16.3556   XZ=             -6.2102   YZ=              4.7731

 Normal termination of Gaussian 16 at Thu May  6 19:38:01 2021.
