 Gaussian 16, Revision A.03,
 Gaussian 16:  EM64L-G16RevA.03 25-Dec-2016

 -------------
 #p 6-31g* mp2
 -------------

 ------------------------------------------------------
 Input file generated by CHIRIPA (05-May-2021 14:55:23)
 ------------------------------------------------------
 Symbolic Z-matrix:
 Charge =  0 Multiplicity = 1

                         Standard orientation:
 ---------------------------------------------------------------------
 Center     Atomic      Atomic             Coordinates (Angstroms)
 Number     Number       Type             X           Y           Z
 ---------------------------------------------------------------------
      1          6           0        0.556952   -0.350781   -0.322318
      2          6           0        1.266664   -1.380813    0.303672
      3          6           0        2.654156   -1.297778    0.453739
      4          6           0        3.302858   -0.165312   -0.036155
      5          6           0        2.623760    0.877469   -0.664425
      6          6           0        1.236567    0.773091   -0.803520
      7          1           0       -0.520769   -0.423574   -0.434632
      8          1           0        0.741494   -2.254803    0.678348
      9          1           0        3.228303   -2.080604    0.934318
     10          1           0        3.174968    1.736306   -1.027726
     11          1           0        0.687985    1.574557   -1.290096
     12          7           0        4.771576   -0.066110    0.116906
     13          8           0        5.319703    0.942064   -0.323298
     14          8           0        5.346818   -0.998406    0.674181
     15          6           0       -3.634713    0.881382   -0.208260
     16          6           0       -3.530714    2.005631    0.822872
     17          6           0       -2.962623    3.297231    0.233944
     18          1           0       -2.639440    0.686731   -0.630738
     19          1           0       -4.268241    1.215157   -1.041706
     20          1           0       -2.898698    1.669335    1.654783
     21          1           0       -4.526318    2.197498    1.243082
     22          1           0       -3.595547    3.659285   -0.582710
     23          1           0       -1.958679    3.128120   -0.168672
     24          1           0       -2.896964    4.087538    0.988242
     25          6           0       -4.200925   -0.416327    0.365397
     26          6           0       -4.304923   -1.540576   -0.665735
     27          6           0       -4.873014   -2.832176   -0.076807
     28          1           0       -3.567396   -0.750102    1.198843
     29          1           0       -5.196198   -0.221676    0.787875
     30          1           0       -3.309320   -1.732443   -1.085945
     31          1           0       -4.936940   -1.204280   -1.497645
     32          1           0       -5.876958   -2.663066    0.325809
     33          1           0       -4.240090   -3.194230    0.739848
     34          1           0       -4.938673   -3.622483   -0.831105
 ---------------------------------------------------------------------

 SCF Done:  E(RHF) =  -669.535435182     A.U. after   15 cycles
 E2 =    -0.2091617434D+01 EUMP2 =    -0.67162705261562D+03

 The electronic state is 1-A.
 Alpha  occ. eigenvalues --  -20.60757 -20.60751 -15.85811 -11.31181 -11.27754
 Alpha  occ. eigenvalues --  -11.27751 -11.27478 -11.26771 -11.26761 -11.22629
 Alpha  occ. eigenvalues --  -11.22598 -11.22532 -11.22420 -11.21990 -11.21921
 Alpha  occ. eigenvalues --   -1.59832  -1.39385  -1.19355  -1.09494  -1.08749
 Alpha  occ. eigenvalues --   -1.04760  -1.04498  -0.96950  -0.95585  -0.87958
 Alpha  occ. eigenvalues --   -0.86158  -0.82419  -0.80558  -0.79316  -0.77462
 Alpha  occ. eigenvalues --   -0.72029  -0.71155  -0.70499  -0.66143  -0.65008
 Alpha  occ. eigenvalues --   -0.64757  -0.62117  -0.61890  -0.60304  -0.58557
 Alpha  occ. eigenvalues --   -0.56307  -0.55228  -0.53596  -0.53358  -0.53088
 Alpha  occ. eigenvalues --   -0.52852  -0.50895  -0.48870  -0.48788  -0.48783
 Alpha  occ. eigenvalues --   -0.47608  -0.46845  -0.46766  -0.44790  -0.44779
 Alpha  occ. eigenvalues --   -0.37334  -0.36365
 Alpha virt. eigenvalues --    0.05071   0.11263   0.16540   0.17875   0.22202
 Alpha virt. eigenvalues --    0.23379   0.24897   0.25643   0.26235   0.27839
 Alpha virt. eigenvalues --    0.29419   0.30805   0.31019   0.31324   0.32008

 Mulliken charges:
               1
     1  C   -0.177845
     2  C   -0.220088
     3  C   -0.170577
     4  C    0.158319
     5  C   -0.170686
     6  C   -0.222361
     7  H    0.235966
     8  H    0.223678
     9  H    0.275552
    10  H    0.275789
    11  H    0.224218
    12  N    0.488011
    13  O   -0.460390
    14  O   -0.460439
    15  C   -0.301244
    16  C   -0.300828
    17  C   -0.475213
    18  H    0.138608
    19  H    0.154670
    20  H    0.153600
    21  H    0.156387
    22  H    0.157628
    23  H    0.148623
    24  H    0.165232
    25  C   -0.299925
    26  C   -0.300305
    27  C   -0.475981
    28  H    0.147993
    29  H    0.154988
    30  H    0.144947
    31  H    0.155863
    32  H    0.158487
    33  H    0.154223
    34  H    0.163099
 Sum of Mulliken charges =  -0.00000

 Dipole moment (field-independent basis, Debye):
    X=             -5.4426    Y=             -0.3077    Z=             -0.4820  Tot=              5.4726
 Quadrupole moment (field-independent basis, Debye-Ang):
   XX=           -127.4966   YY=            -91.3531   ZZ=            -94.3718
   XY=             -1.1620   XZ=             -1.3730   YZ=             -1.9787

 Normal termination of Gaussian 16 at Thu May  6 03:05:11 2021.
