 Gaussian 16, Revision A.03,
 Gaussian 16:  EM64L-G16RevA.03 25-Dec-2016

 -------------
 #p 6-31g* mp2
 -------------

 ------------------------------------------------------
 Input file generated by CHIRIPA (05-May-2021 14:57:26)
 ------------------------------------------------------
 Symbolic Z-matrix:
 Charge =  0 Multiplicity = 1

                         Standard orientation:
 ---------------------------------------------------------------------
 Center     Atomic      Atomic             Coordinates (Angstroms)
 Number     Number       Type             X           Y           Z
 ---------------------------------------------------------------------
      1          6           0       -2.530524    2.328715    0.439364
      2          6           0       -3.303803    1.745480    1.448520
      3          6           0       -3.942738    0.520434    1.235042
      4          6           0       -3.786205   -0.096558   -0.005162
      5          6           0       -3.022479    0.459205   -1.030414
      6          6           0       -2.392573    1.684852   -0.794707
      7          1           0       -2.037691    3.280594    0.613832
      8          1           0       -3.412703    2.243247    2.407902
      9          1           0       -4.547307    0.046564    1.998824
     10          1           0       -2.932526   -0.060875   -1.976375
     11          1           0       -1.792655    2.135457   -1.580263
     12          7           0       -4.457837   -1.393777   -0.242928
     13          8           0       -4.304224   -1.917186   -1.344329
     14          8           0       -5.125158   -1.862566    0.676613
     15          6           0        1.252934    0.449074   -0.453941
     16          6           0        1.596113   -0.785215    0.107555
     17          6           0        2.935168   -1.109675    0.344634
     18          6           0        3.909717   -0.171988    0.006572
     19          6           0        3.599562    1.066018   -0.554174
     20          6           0        2.253989    1.369129   -0.782435
     21          1           0        0.210192    0.692830   -0.634685
     22          1           0        0.820792   -1.501687    0.363663
     23          1           0        3.228873   -2.057940    0.778166
     24          1           0        4.394687    1.759752   -0.798974
     25          1           0        1.990409    2.328458   -1.218622
     26          7           0        5.330766   -0.504179    0.252889
     27          8           0        6.170563    0.339214   -0.053811
     28          8           0        5.577877   -1.601653    0.747988
 ---------------------------------------------------------------------

 SCF Done:  E(RHF) =  -868.336941465     A.U. after   16 cycles
 E2 =    -0.2600994042D+01 EUMP2 =    -0.87093793550689D+03

 The electronic state is 1-A.
 Alpha  occ. eigenvalues --  -20.61679 -20.61670 -20.60939 -20.60930 -15.86740
 Alpha  occ. eigenvalues --  -15.85994 -11.32307 -11.31398 -11.28973 -11.28869
 Alpha  occ. eigenvalues --  -11.28693 -11.28025 -11.28016 -11.27950 -11.27867
 Alpha  occ. eigenvalues --  -11.27644 -11.27068 -11.26939  -1.60752  -1.60013
 Alpha  occ. eigenvalues --   -1.40298  -1.39565  -1.20529  -1.19581  -1.09874
 Alpha  occ. eigenvalues --   -1.08967  -1.05963  -1.04995  -0.96660  -0.95796
 Alpha  occ. eigenvalues --   -0.87336  -0.86393  -0.83494  -0.82627  -0.78507
 Alpha  occ. eigenvalues --   -0.77670  -0.72947  -0.72209  -0.72088  -0.71581
 Alpha  occ. eigenvalues --   -0.71337  -0.70719  -0.66161  -0.65942  -0.65231
 Alpha  occ. eigenvalues --   -0.65013  -0.63273  -0.62345  -0.56415  -0.55711
 Alpha  occ. eigenvalues --   -0.54102  -0.53975  -0.53321  -0.53088  -0.49725
 Alpha  occ. eigenvalues --   -0.49693  -0.48973  -0.48962  -0.45658  -0.44961
 Alpha  occ. eigenvalues --   -0.38509  -0.37572  -0.37545  -0.36608
 Alpha virt. eigenvalues --    0.04014   0.04879   0.09965   0.11039   0.15361
 Alpha virt. eigenvalues --    0.16361   0.19669   0.21759   0.25652   0.26957
 Alpha virt. eigenvalues --    0.27486   0.28873   0.30165   0.31402   0.31458

 Mulliken charges:
               1
     1  C   -0.169113
     2  C   -0.218114
     3  C   -0.168945
     4  C    0.158355
     5  C   -0.173235
     6  C   -0.233377
     7  H    0.229221
     8  H    0.228554
     9  H    0.279814
    10  H    0.279049
    11  H    0.223389
    12  N    0.487730
    13  O   -0.458460
    14  O   -0.456866
    15  C   -0.176927
    16  C   -0.222823
    17  C   -0.170125
    18  C    0.158055
    19  C   -0.170185
    20  C   -0.223164
    21  H    0.232272
    22  H    0.227216
    23  H    0.277174
    24  H    0.275356
    25  H    0.217077
    26  N    0.487960
    27  O   -0.460685
    28  O   -0.459200
 Sum of Mulliken charges =  -0.00000

 Dipole moment (field-independent basis, Debye):
    X=             -2.9751    Y=              5.6582    Z=              0.1435  Tot=              6.3943
 Quadrupole moment (field-independent basis, Debye-Ang):
   XX=           -160.9453   YY=           -102.7622   ZZ=           -100.5423
   XY=            -11.0956   XZ=             -9.5194   YZ=             -1.4809

 Normal termination of Gaussian 16 at Thu May  6 19:47:19 2021.
