 Gaussian 16, Revision A.03,
 Gaussian 16:  EM64L-G16RevA.03 25-Dec-2016

 -------------
 #p 6-31g* mp2
 -------------

 ------------------------------------------------------
 Input file generated by CHIRIPA (05-May-2021 14:51:12)
 ------------------------------------------------------
 Symbolic Z-matrix:
 Charge =  0 Multiplicity = 1

                         Standard orientation:
 ---------------------------------------------------------------------
 Center     Atomic      Atomic             Coordinates (Angstroms)
 Number     Number       Type             X           Y           Z
 ---------------------------------------------------------------------
      1          6           0       -2.917696   -1.079874   -0.241874
      2          6           0       -1.570792   -0.994298    0.476813
      3          6           0       -0.532567   -1.959391   -0.096318
      4          1           0       -3.296258   -2.109125   -0.176468
      5          1           0       -2.769572   -0.868597   -1.309964
      6          1           0       -1.721629   -1.204314    1.543470
      7          1           0       -1.195483    0.034913    0.409854
      8          1           0       -0.352846   -1.747499   -1.155282
      9          1           0       -0.881981   -2.993767   -0.015224
     10          1           0        0.422713   -1.881577    0.432119
     11          6           0       -3.966015   -0.121042    0.319728
     12          6           0       -5.312919   -0.206618   -0.398959
     13          6           0       -6.351144    0.758474    0.174172
     14          1           0       -4.114139   -0.332320    1.387818
     15          1           0       -3.587452    0.908209    0.254322
     16          1           0       -5.688228   -1.235829   -0.332000
     17          1           0       -5.162082    0.003398   -1.465616
     18          1           0       -6.001729    1.792851    0.093078
     19          1           0       -6.530865    0.546582    1.233135
     20          1           0       -7.306424    0.680661   -0.354265
     21          6           0        3.086011    1.249321    0.150235
     22          6           0        1.670044    1.352131   -0.417614
     23          6           0        0.971104    2.655761   -0.030539
     24          1           0        3.042197    1.332548    1.244812
     25          1           0        3.678842    2.103695   -0.204717
     26          1           0        1.080454    0.497078   -0.062814
     27          1           0        1.717214    1.268459   -1.510953
     28          1           0        1.534998    3.519116   -0.398292
     29          1           0        0.894620    2.743351    1.058075
     30          1           0       -0.039675    2.708347   -0.446976
     31          6           0        3.797700   -0.048405   -0.228089
     32          6           0        5.213667   -0.151215    0.339760
     33          6           0        5.912607   -1.454845   -0.047315
     34          1           0        3.204868   -0.902779    0.126863
     35          1           0        3.841514   -0.131632   -1.322666
     36          1           0        5.166496   -0.067542    1.433100
     37          1           0        5.803256    0.703839   -0.015040
     38          1           0        5.989091   -1.542435   -1.135929
     39          1           0        5.348713   -2.318199    0.320439
     40          1           0        6.923386   -1.507431    0.369122
 ---------------------------------------------------------------------

 SCF Done:  E(RHF) =  -470.732581607     A.U. after   11 cycles
 E2 =    -0.1583887673D+01 EUMP2 =    -0.47231646927993D+03

 The electronic state is 1-A.
 Alpha  occ. eigenvalues --  -11.21610 -11.21609 -11.21589 -11.21508 -11.21419
 Alpha  occ. eigenvalues --  -11.21385 -11.21359 -11.21325 -11.21104 -11.21084
 Alpha  occ. eigenvalues --  -11.21075 -11.21057  -1.08467  -1.08393  -1.03603
 Alpha  occ. eigenvalues --   -1.03469  -0.96016  -0.95962  -0.87035  -0.86968
 Alpha  occ. eigenvalues --   -0.79629  -0.79568  -0.78291  -0.78197  -0.65216
 Alpha  occ. eigenvalues --   -0.64950  -0.61212  -0.60725  -0.59460  -0.59226
 Alpha  occ. eigenvalues --   -0.57656  -0.57533  -0.55342  -0.55205  -0.52751
 Alpha  occ. eigenvalues --   -0.52620  -0.52450  -0.52377  -0.49951  -0.49895
 Alpha  occ. eigenvalues --   -0.47941  -0.47871  -0.46774  -0.46489  -0.45856
 Alpha  occ. eigenvalues --   -0.45762  -0.45740  -0.45510  -0.43797  -0.43766
 Alpha virt. eigenvalues --    0.20911   0.22757   0.23751   0.24187   0.25936
 Alpha virt. eigenvalues --    0.26448   0.26796   0.27349   0.28494   0.29159
 Alpha virt. eigenvalues --    0.31110   0.31475   0.31699   0.31867   0.32330

 Mulliken charges:
               1
     1  C   -0.297731
     2  C   -0.306767
     3  C   -0.479986
     4  H    0.149702
     5  H    0.149632
     6  H    0.151802
     7  H    0.158351
     8  H    0.157151
     9  H    0.156660
    10  H    0.160511
    11  C   -0.298392
    12  C   -0.299678
    13  C   -0.475728
    14  H    0.149569
    15  H    0.149684
    16  H    0.151971
    17  H    0.151940
    18  H    0.155258
    19  H    0.155195
    20  H    0.160283
    21  C   -0.297361
    22  C   -0.311232
    23  C   -0.475852
    24  H    0.149162
    25  H    0.149240
    26  H    0.166417
    27  H    0.150975
    28  H    0.155342
    29  H    0.155264
    30  H    0.159058
    31  C   -0.300232
    32  C   -0.299618
    33  C   -0.475687
    34  H    0.150895
    35  H    0.149772
    36  H    0.151808
    37  H    0.151992
    38  H    0.155220
    39  H    0.155232
    40  H    0.160182
 Sum of Mulliken charges =  -0.00000

 Dipole moment (field-independent basis, Debye):
    X=             -0.0182    Y=             -0.0195    Z=             -0.0032  Tot=              0.0268
 Quadrupole moment (field-independent basis, Debye-Ang):
   XX=            -85.7698   YY=            -85.3437   ZZ=            -83.7660
   XY=              1.4818   XZ=             -0.1380   YZ=             -1.2126

 Normal termination of Gaussian 16 at Wed May  5 19:56:16 2021.
