 Gaussian 16, Revision A.03,
 Gaussian 16:  EM64L-G16RevA.03 25-Dec-2016

 -------------
 #p 6-31g* mp2
 -------------

 ------------------------------------------------------
 Input file generated by CHIRIPA (05-May-2021 14:57:23)
 ------------------------------------------------------
 Symbolic Z-matrix:
 Charge =  0 Multiplicity = 1

                         Standard orientation:
 ---------------------------------------------------------------------
 Center     Atomic      Atomic             Coordinates (Angstroms)
 Number     Number       Type             X           Y           Z
 ---------------------------------------------------------------------
      1          6           0        3.000697    2.083325    0.540302
      2          6           0        4.324804    2.164467    0.096818
      3          6           0        5.047952    1.004290   -0.195746
      4          6           0        4.413029   -0.226014   -0.032903
      5          6           0        3.095165   -0.339622    0.407117
      6          6           0        2.391178    0.833742    0.693765
      7          1           0        2.446381    2.989700    0.765275
      8          1           0        4.800721    3.133551   -0.023283
      9          1           0        6.074245    1.038198   -0.540694
     10          1           0        2.647688   -1.319966    0.517149
     11          1           0        1.362987    0.767695    1.038011
     12          7           0        5.168451   -1.461222   -0.339496
     13          8           0        4.586339   -2.533036   -0.187849
     14          8           0        6.328359   -1.334174   -0.725644
     15          6           0       -1.990678    1.041767    0.198652
     16          6           0       -2.410091    0.062298    1.104881
     17          6           0       -3.681135   -0.509401    0.994619
     18          6           0       -4.510674   -0.076109   -0.038536
     19          6           0       -4.121654    0.897740   -0.956999
     20          6           0       -2.846289    1.455633   -0.827586
     21          1           0       -1.001622    1.480514    0.291745
     22          1           0       -1.747733   -0.261052    1.902861
     23          1           0       -4.031289   -1.269457    1.682460
     24          1           0       -4.804270    1.199657   -1.742047
     25          1           0       -2.523235    2.216115   -1.532816
     26          7           0       -5.858559   -0.674033   -0.165403
     27          8           0       -6.570520   -0.275065   -1.084409
     28          8           0       -6.177546   -1.530332    0.656568
 ---------------------------------------------------------------------

 SCF Done:  E(RHF) =  -868.336254832     A.U. after   16 cycles
 E2 =    -0.2599704978D+01 EUMP2 =    -0.87093595980991D+03

 The electronic state is 1-A.
 Alpha  occ. eigenvalues --  -20.61343 -20.61337 -20.61180 -20.61175 -15.86405
 Alpha  occ. eigenvalues --  -15.86239 -11.31931 -11.31752 -11.28580 -11.28504
 Alpha  occ. eigenvalues --  -11.28372 -11.28340 -11.28318 -11.28240 -11.27729
 Alpha  occ. eigenvalues --  -11.27539 -11.27466 -11.27406  -1.60415  -1.60252
 Alpha  occ. eigenvalues --   -1.39964  -1.39801  -1.20143  -1.19953  -1.09519
 Alpha  occ. eigenvalues --   -1.09350  -1.05581  -1.05372  -0.96316  -0.96155
 Alpha  occ. eigenvalues --   -0.86987  -0.86783  -0.83154  -0.82972  -0.78164
 Alpha  occ. eigenvalues --   -0.77969  -0.72621  -0.72456  -0.71741  -0.71575
 Alpha  occ. eigenvalues --   -0.71273  -0.71148  -0.65806  -0.65684  -0.65598
 Alpha  occ. eigenvalues --   -0.65366  -0.62934  -0.62708  -0.56147  -0.55948
 Alpha  occ. eigenvalues --   -0.53885  -0.53720  -0.53652  -0.53480  -0.49394
 Alpha  occ. eigenvalues --   -0.49363  -0.49228  -0.49199  -0.45334  -0.45173
 Alpha  occ. eigenvalues --   -0.38146  -0.37979  -0.37177  -0.36961
 Alpha virt. eigenvalues --    0.04397   0.04558   0.10401   0.10670   0.15807
 Alpha virt. eigenvalues --    0.16002   0.17638   0.21948   0.24777   0.26324
 Alpha virt. eigenvalues --    0.27518   0.28812   0.30283   0.30722   0.31856

 Mulliken charges:
               1
     1  C   -0.171549
     2  C   -0.218231
     3  C   -0.169404
     4  C    0.159152
     5  C   -0.169598
     6  C   -0.221207
     7  H    0.223806
     8  H    0.225977
     9  H    0.278350
    10  H    0.277276
    11  H    0.214975
    12  N    0.487980
    13  O   -0.458777
    14  O   -0.458183
    15  C   -0.172267
    16  C   -0.218940
    17  C   -0.169630
    18  C    0.159356
    19  C   -0.169863
    20  C   -0.217768
    21  H    0.217538
    22  H    0.219970
    23  H    0.277963
    24  H    0.277741
    25  H    0.224694
    26  N    0.487938
    27  O   -0.458688
    28  O   -0.458612
 Sum of Mulliken charges =  -0.00000

 Dipole moment (field-independent basis, Debye):
    X=              2.1259    Y=              6.3862    Z=              1.4271  Tot=              6.8804
 Quadrupole moment (field-independent basis, Debye-Ang):
   XX=           -166.4422   YY=           -104.7863   ZZ=           -102.5535
   XY=             12.0743   XZ=              2.3468   YZ=             -4.1160

 Normal termination of Gaussian 16 at Thu May  6 00:14:13 2021.
