 Gaussian 16, Revision A.03,
 Gaussian 16:  EM64L-G16RevA.03 25-Dec-2016

 -------------
 #p 6-31g* mp2
 -------------

 ------------------------------------------------------
 Input file generated by CHIRIPA (05-May-2021 14:51:13)
 ------------------------------------------------------
 Symbolic Z-matrix:
 Charge =  0 Multiplicity = 1

                         Standard orientation:
 ---------------------------------------------------------------------
 Center     Atomic      Atomic             Coordinates (Angstroms)
 Number     Number       Type             X           Y           Z
 ---------------------------------------------------------------------
      1          6           0       -3.449492   -0.756083   -0.034911
      2          6           0       -3.919666    0.607347    0.473006
      3          6           0       -5.442633    0.742719    0.479444
      4          1           0       -3.837521   -0.915755   -1.050235
      5          1           0       -3.885940   -1.544316    0.594055
      6          1           0       -3.481353    1.392839   -0.155882
      7          1           0       -3.530314    0.763874    1.487166
      8          1           0       -5.894456   -0.019840    1.122064
      9          1           0       -5.845217    0.612699   -0.530319
     10          1           0       -5.756830    1.724922    0.846073
     11          6           0       -1.929328   -0.906663   -0.047254
     12          6           0       -1.459154   -2.270093   -0.555170
     13          6           0        0.063813   -2.405465   -0.561608
     14          1           0       -1.492880   -0.118430   -0.676219
     15          1           0       -1.541299   -0.746991    0.968071
     16          1           0       -1.848506   -2.426620   -1.569330
     17          1           0       -1.897467   -3.055585    0.073718
     18          1           0        0.466397   -2.275445    0.448155
     19          1           0        0.515636   -1.642906   -1.204228
     20          1           0        0.378010   -3.387668   -0.928237
     21          6           0        3.131395    0.409952    0.499870
     22          6           0        3.658004   -0.861746   -0.166052
     23          6           0        4.540624   -1.694254    0.764381
     24          1           0        3.981443    1.016515    0.841109
     25          1           0        2.562055    0.135956    1.398855
     26          1           0        4.225013   -0.585515   -1.064280
     27          1           0        2.806606   -1.465261   -0.505917
     28          1           0        3.981859   -1.998360    1.655393
     29          1           0        5.408325   -1.113615    1.093858
     30          1           0        4.906202   -2.598648    0.268110
     31          6           0        2.247426    1.252794   -0.417705
     32          6           0        1.720816    2.524492    0.248216
     33          6           0        0.838195    3.357000   -0.682217
     34          1           0        2.816764    1.526790   -1.316691
     35          1           0        1.397377    0.646232   -0.758944
     36          1           0        2.572213    3.128007    0.588081
     37          1           0        1.153807    2.248261    1.146445
     38          1           0       -0.029505    2.776361   -1.011693
     39          1           0        1.396961    3.661106   -1.573228
     40          1           0        0.472617    4.261394   -0.185945
 ---------------------------------------------------------------------

 SCF Done:  E(RHF) =  -470.732431812     A.U. after   11 cycles
 E2 =    -0.1584473605D+01 EUMP2 =    -0.47231690541659D+03

 The electronic state is 1-A.
 Alpha  occ. eigenvalues --  -11.21697 -11.21653 -11.21547 -11.21504 -11.21431
 Alpha  occ. eigenvalues --  -11.21397 -11.21314 -11.21254 -11.21181 -11.21106
 Alpha  occ. eigenvalues --  -11.21053 -11.20971  -1.08523  -1.08336  -1.03620
 Alpha  occ. eigenvalues --   -1.03437  -0.96075  -0.95903  -0.87110  -0.86910
 Alpha  occ. eigenvalues --   -0.79736  -0.79481  -0.78384  -0.78100  -0.65176
 Alpha  occ. eigenvalues --   -0.64963  -0.61016  -0.60858  -0.59437  -0.59275
 Alpha  occ. eigenvalues --   -0.57679  -0.57507  -0.55389  -0.55169  -0.52778
 Alpha  occ. eigenvalues --   -0.52645  -0.52475  -0.52323  -0.50034  -0.49836
 Alpha  occ. eigenvalues --   -0.48132  -0.47793  -0.46779  -0.46525  -0.46129
 Alpha  occ. eigenvalues --   -0.45805  -0.45659  -0.45106  -0.43862  -0.43693
 Alpha virt. eigenvalues --    0.20253   0.22458   0.23588   0.24315   0.25307
 Alpha virt. eigenvalues --    0.26386   0.26795   0.27779   0.28498   0.29994
 Alpha virt. eigenvalues --    0.30562   0.31340   0.31530   0.31815   0.32070

 Mulliken charges:
               1
     1  C   -0.298364
     2  C   -0.299830
     3  C   -0.475773
     4  H    0.149971
     5  H    0.149948
     6  H    0.152172
     7  H    0.152008
     8  H    0.155245
     9  H    0.155321
    10  H    0.160570
    11  C   -0.300697
    12  C   -0.300529
    13  C   -0.481310
    14  H    0.150911
    15  H    0.149545
    16  H    0.152397
    17  H    0.152382
    18  H    0.156017
    19  H    0.159884
    20  H    0.161317
    21  C   -0.297227
    22  C   -0.309776
    23  C   -0.475009
    24  H    0.149210
    25  H    0.148541
    26  H    0.150473
    27  H    0.165742
    28  H    0.154197
    29  H    0.154542
    30  H    0.159761
    31  C   -0.304996
    32  C   -0.298916
    33  C   -0.476468
    34  H    0.148827
    35  H    0.155788
    36  H    0.151762
    37  H    0.152189
    38  H    0.154927
    39  H    0.154973
    40  H    0.160275
 Sum of Mulliken charges =  -0.00000

 Dipole moment (field-independent basis, Debye):
    X=             -0.0709    Y=             -0.0480    Z=             -0.0177  Tot=              0.0874
 Quadrupole moment (field-independent basis, Debye-Ang):
   XX=            -85.9269   YY=            -84.9417   ZZ=            -84.0762
   XY=              1.1546   XZ=             -0.6383   YZ=             -0.0810

 Normal termination of Gaussian 16 at Wed May  5 23:13:05 2021.
