 Gaussian 16, Revision A.03,
 Gaussian 16:  EM64L-G16RevA.03 25-Dec-2016

 -------------
 #p 6-31g* mp2
 -------------

 ------------------------------------------------------
 Input file generated by CHIRIPA (05-May-2021 14:53:17)
 ------------------------------------------------------
 Symbolic Z-matrix:
 Charge =  0 Multiplicity = 1

                         Standard orientation:
 ---------------------------------------------------------------------
 Center     Atomic      Atomic             Coordinates (Angstroms)
 Number     Number       Type             X           Y           Z
 ---------------------------------------------------------------------
      1          6           0       -4.143741   -0.827524    0.115489
      2          6           0       -2.616763   -0.869456    0.047925
      3          6           0       -2.062354   -2.293941    0.083515
      4          1           0       -4.477716   -1.329656    1.033786
      5          1           0       -4.556917   -1.403859   -0.723867
      6          1           0       -2.206595   -0.292059    0.886370
      7          1           0       -2.286376   -0.366997   -0.870223
      8          1           0       -2.443742   -2.876974   -0.761007
      9          1           0       -2.363507   -2.801610    1.005566
     10          1           0       -0.969020   -2.300566    0.034140
     11          6           0       -4.712988    0.589688    0.080884
     12          6           0       -6.239965    0.631621    0.148448
     13          6           0       -6.794375    2.056106    0.112858
     14          1           0       -4.299812    1.166023    0.920240
     15          1           0       -4.379013    1.091821   -0.837413
     16          1           0       -6.570353    0.129162    1.066595
     17          1           0       -6.650134    0.054224   -0.689998
     18          1           0       -6.493222    2.563775   -0.809194
     19          1           0       -6.412987    2.639138    0.957380
     20          1           0       -7.887709    2.062730    0.162233
     21          6           0        5.314868    1.756657    0.318327
     22          6           0        4.122022    2.168480   -0.285031
     23          6           0        3.087359    1.255274   -0.508807
     24          6           0        3.280305   -0.067941   -0.114898
     25          6           0        4.457077   -0.508860    0.488498
     26          6           0        5.478300    0.421655    0.702488
     27          1           0        6.113400    2.472781    0.488360
     28          1           0        3.992313    3.204623   -0.584408
     29          1           0        2.153582    1.547084   -0.973914
     30          1           0        4.557029   -1.548445    0.776058
     31          1           0        6.403599    0.098997    1.171272
     32          7           0        2.192067   -1.043873   -0.346620
     33          8           0        2.386831   -2.203966    0.009594
     34          8           0        1.164948   -0.630237   -0.880070
 ---------------------------------------------------------------------

 SCF Done:  E(RHF) =  -669.536719856     A.U. after   15 cycles
 E2 =    -0.2091357451D+01 EUMP2 =    -0.67162807730745D+03

 The electronic state is 1-A.
 Alpha  occ. eigenvalues --  -20.61066 -20.61055 -15.86062 -11.31351 -11.27905
 Alpha  occ. eigenvalues --  -11.27901 -11.27637 -11.26902 -11.26892 -11.21004
 Alpha  occ. eigenvalues --  -11.20620 -11.20613 -11.20336 -11.20158 -11.19199
 Alpha  occ. eigenvalues --   -1.60103  -1.39659  -1.19512  -1.08924  -1.07490
 Alpha  occ. eigenvalues --   -1.04901  -1.02467  -0.95773  -0.94910  -0.86303
 Alpha  occ. eigenvalues --   -0.85939  -0.82604  -0.78601  -0.77666  -0.77231
 Alpha  occ. eigenvalues --   -0.72272  -0.71409  -0.70620  -0.65166  -0.64904
 Alpha  occ. eigenvalues --   -0.64140  -0.62247  -0.59888  -0.58358  -0.56477
 Alpha  occ. eigenvalues --   -0.55403  -0.54242  -0.53235  -0.52991  -0.51582
 Alpha  occ. eigenvalues --   -0.51364  -0.49038  -0.48971  -0.48910  -0.46858
 Alpha  occ. eigenvalues --   -0.45681  -0.45074  -0.44775  -0.44685  -0.42688
 Alpha  occ. eigenvalues --   -0.37489  -0.36499
 Alpha virt. eigenvalues --    0.04848   0.11157   0.16352   0.21292   0.23700
 Alpha virt. eigenvalues --    0.25448   0.27218   0.27505   0.28110   0.28423
 Alpha virt. eigenvalues --    0.29160   0.30860   0.32329   0.32387   0.32620

 Mulliken charges:
               1
     1  C   -0.297586
     2  C   -0.295284
     3  C   -0.485095
     4  H    0.146470
     5  H    0.147522
     6  H    0.146125
     7  H    0.155820
     8  H    0.148668
     9  H    0.144880
    10  H    0.189148
    11  C   -0.296958
    12  C   -0.298744
    13  C   -0.475053
    14  H    0.146874
    15  H    0.148076
    16  H    0.150913
    17  H    0.151296
    18  H    0.153998
    19  H    0.153659
    20  H    0.158374
    21  C   -0.170421
    22  C   -0.218611
    23  C   -0.170614
    24  C    0.158749
    25  C   -0.170658
    26  C   -0.218636
    27  H    0.226214
    28  H    0.224089
    29  H    0.276174
    30  H    0.276024
    31  H    0.224024
    32  N    0.488697
    33  O   -0.459177
    34  O   -0.458957
 Sum of Mulliken charges =  -0.00000

 Dipole moment (field-independent basis, Debye):
    X=              4.2943    Y=              3.4336    Z=              0.7468  Tot=              5.5487
 Quadrupole moment (field-independent basis, Debye-Ang):
   XX=            -70.0658   YY=            -94.0438   ZZ=            -93.9169
   XY=              9.4263   XZ=              3.9177   YZ=             -2.0414

 Normal termination of Gaussian 16 at Thu May  6 04:21:24 2021.
