 Gaussian 16, Revision A.03,
 Gaussian 16:  EM64L-G16RevA.03 25-Dec-2016

 -------------
 #p 6-31g* mp2
 -------------

 ------------------------------------------------------
 Input file generated by CHIRIPA (05-May-2021 14:57:22)
 ------------------------------------------------------
 Symbolic Z-matrix:
 Charge =  0 Multiplicity = 1

                         Standard orientation:
 ---------------------------------------------------------------------
 Center     Atomic      Atomic             Coordinates (Angstroms)
 Number     Number       Type             X           Y           Z
 ---------------------------------------------------------------------
      1          6           0        2.903155    0.967865   -1.698498
      2          6           0        2.838996   -0.426077   -1.601905
      3          6           0        2.342838   -1.035582   -0.445671
      4          6           0        1.917499   -0.217042    0.599494
      5          6           0        1.968780    1.174467    0.533449
      6          6           0        2.468608    1.762288   -0.632392
      7          1           0        3.290007    1.432921   -2.600421
      8          1           0        3.175767   -1.045537   -2.428283
      9          1           0        2.282014   -2.112352   -0.344249
     10          1           0        1.625652    1.765626    1.373814
     11          1           0        2.517265    2.845090   -0.704615
     12          7           0        1.390296   -0.850819    1.828633
     13          8           0        1.021834   -0.107438    2.735417
     14          8           0        1.355520   -2.078955    1.861974
     15          6           0       -1.933414   -2.277186   -1.203058
     16          6           0       -2.892297   -1.883424   -0.263901
     17          6           0       -2.940929   -0.561953    0.189860
     18          6           0       -2.011250    0.343622   -0.318982
     19          6           0       -1.043933   -0.018111   -1.255324
     20          6           0       -1.013914   -1.344917   -1.694905
     21          1           0       -1.902864   -3.305809   -1.550043
     22          1           0       -3.607647   -2.605285    0.119812
     23          1           0       -3.672711   -0.230130    0.916361
     24          1           0       -0.344049    0.724152   -1.619504
     25          1           0       -0.268127   -1.647890   -2.424325
     26          7           0       -2.052882    1.745428    0.153890
     27          8           0       -1.222679    2.524097   -0.309872
     28          8           0       -2.914930    2.038952    0.979331
 ---------------------------------------------------------------------

 SCF Done:  E(RHF) =  -868.337683626     A.U. after   16 cycles
 E2 =    -0.2605970203D+01 EUMP2 =    -0.87094365382975D+03

 The electronic state is 1-A.
 Alpha  occ. eigenvalues --  -20.60850 -20.60828 -20.60769 -20.60712 -15.85891
 Alpha  occ. eigenvalues --  -15.85780 -11.31267 -11.30962 -11.27977 -11.27770
 Alpha  occ. eigenvalues --  -11.27712 -11.27528 -11.27512 -11.27286 -11.27051
 Alpha  occ. eigenvalues --  -11.26799 -11.26545 -11.26469  -1.59914  -1.59808
 Alpha  occ. eigenvalues --   -1.39466  -1.39370  -1.19557  -1.19135  -1.08915
 Alpha  occ. eigenvalues --   -1.08578  -1.04922  -1.04526  -0.95726  -0.95437
 Alpha  occ. eigenvalues --   -0.86304  -0.85943  -0.82536  -0.82283  -0.77573
 Alpha  occ. eigenvalues --   -0.77345  -0.72117  -0.72021  -0.71325  -0.71056
 Alpha  occ. eigenvalues --   -0.70605  -0.70268  -0.65159  -0.64887  -0.64808
 Alpha  occ. eigenvalues --   -0.64555  -0.62232  -0.61925  -0.55426  -0.55098
 Alpha  occ. eigenvalues --   -0.53651  -0.52972  -0.52701  -0.52345  -0.48882
 Alpha  occ. eigenvalues --   -0.48860  -0.48782  -0.48745  -0.44882  -0.44805
 Alpha  occ. eigenvalues --   -0.37829  -0.37210  -0.36528  -0.35659
 Alpha virt. eigenvalues --    0.04820   0.05305   0.10691   0.11873   0.16345
 Alpha virt. eigenvalues --    0.16759   0.20976   0.21923   0.26674   0.27911
 Alpha virt. eigenvalues --    0.28286   0.28581   0.30658   0.31454   0.32573

 Mulliken charges:
               1
     1  C   -0.177718
     2  C   -0.227219
     3  C   -0.171403
     4  C    0.158459
     5  C   -0.165479
     6  C   -0.215982
     7  H    0.227131
     8  H    0.220563
     9  H    0.272352
    10  H    0.284414
    11  H    0.232582
    12  N    0.488520
    13  O   -0.456908
    14  O   -0.463444
    15  C   -0.167117
    16  C   -0.216553
    17  C   -0.166495
    18  C    0.155020
    19  C   -0.174531
    20  C   -0.219753
    21  H    0.224952
    22  H    0.224809
    23  H    0.276982
    24  H    0.276722
    25  H    0.216432
    26  N    0.489608
    27  O   -0.469984
    28  O   -0.455959
 Sum of Mulliken charges =  -0.00000

 Dipole moment (field-independent basis, Debye):
    X=              1.9449    Y=             -2.5279    Z=             -5.7015  Tot=              6.5330
 Quadrupole moment (field-independent basis, Debye-Ang):
   XX=            -95.8506   YY=           -105.3178   ZZ=           -107.7921
   XY=             14.9983   XZ=             -6.9503   YZ=              4.6614

 Normal termination of Gaussian 16 at Thu May  6 14:34:54 2021.
