 Gaussian 16, Revision A.03,
 Gaussian 16:  EM64L-G16RevA.03 25-Dec-2016

 -------------
 #p 6-31g* mp2
 -------------

 ------------------------------------------------------
 Input file generated by CHIRIPA (05-May-2021 14:57:23)
 ------------------------------------------------------
 Symbolic Z-matrix:
 Charge =  0 Multiplicity = 1

                         Standard orientation:
 ---------------------------------------------------------------------
 Center     Atomic      Atomic             Coordinates (Angstroms)
 Number     Number       Type             X           Y           Z
 ---------------------------------------------------------------------
      1          6           0        5.061517    1.809719    0.218096
      2          6           0        5.560898    0.679592   -0.437611
      3          6           0        4.800443   -0.491079   -0.513685
      4          6           0        3.539034   -0.496616    0.079700
      5          6           0        3.013831    0.613089    0.740007
      6          6           0        3.791816    1.772926    0.803780
      7          1           0        5.659066    2.714916    0.272415
      8          1           0        6.546630    0.705287   -0.893372
      9          1           0        5.162643   -1.380340   -1.015126
     10          1           0        2.027671    0.557145    1.184730
     11          1           0        3.401432    2.649093    1.313659
     12          7           0        2.724695   -1.730217    0.005675
     13          8           0        1.616375   -1.709490    0.536556
     14          8           0        3.210156   -2.694484   -0.581824
     15          6           0       -1.918807    2.066867   -0.469178
     16          6           0       -3.266907    2.426036   -0.368444
     17          6           0       -4.247551    1.451765   -0.159440
     18          6           0       -3.842859    0.121841   -0.055426
     19          6           0       -2.507781   -0.267552   -0.151486
     20          6           0       -1.544207    0.723588   -0.360569
     21          1           0       -1.163650    2.830257   -0.631569
     22          1           0       -3.560737    3.468465   -0.452404
     23          1           0       -5.298321    1.701986   -0.077657
     24          1           0       -2.245545   -1.314903   -0.063700
     25          1           0       -0.498002    0.441735   -0.438401
     26          7           0       -4.871987   -0.918504    0.165879
     27          8           0       -4.489561   -2.083241    0.254061
     28          8           0       -6.041557   -0.549492    0.246965
 ---------------------------------------------------------------------

 SCF Done:  E(RHF) =  -868.338664659     A.U. after   16 cycles
 E2 =    -0.2599331942D+01 EUMP2 =    -0.87093799660082D+03

 The electronic state is 1-A.
 Alpha  occ. eigenvalues --  -20.61695 -20.61628 -20.60316 -20.60293 -15.86693
 Alpha  occ. eigenvalues --  -15.85359 -11.31998 -11.30733 -11.28594 -11.28501
 Alpha  occ. eigenvalues --  -11.28242 -11.27568 -11.27500 -11.27364 -11.27199
 Alpha  occ. eigenvalues --  -11.27149 -11.26421 -11.26259  -1.60719  -1.59384
 Alpha  occ. eigenvalues --   -1.40279  -1.38934  -1.20152  -1.18924  -1.09551
 Alpha  occ. eigenvalues --   -1.08344  -1.05545  -1.04303  -0.96400  -0.95165
 Alpha  occ. eigenvalues --   -0.86944  -0.85725  -0.83235  -0.81972  -0.78304
 Alpha  occ. eigenvalues --   -0.76995  -0.72908  -0.72034  -0.71578  -0.71247
 Alpha  occ. eigenvalues --   -0.70708  -0.70071  -0.65803  -0.65541  -0.64575
 Alpha  occ. eigenvalues --   -0.64311  -0.62895  -0.61619  -0.56024  -0.54893
 Alpha  occ. eigenvalues --   -0.53875  -0.53632  -0.52672  -0.52386  -0.49672
 Alpha  occ. eigenvalues --   -0.49650  -0.48346  -0.48324  -0.45685  -0.44336
 Alpha  occ. eigenvalues --   -0.38114  -0.37150  -0.36967  -0.35908
 Alpha virt. eigenvalues --    0.04186   0.05506   0.10442   0.11694   0.15708
 Alpha virt. eigenvalues --    0.16960   0.20259   0.21887   0.25833   0.27020
 Alpha virt. eigenvalues --    0.28480   0.28678   0.30125   0.31049   0.32365

 Mulliken charges:
               1
     1  C   -0.170334
     2  C   -0.217952
     3  C   -0.170201
     4  C    0.158888
     5  C   -0.176907
     6  C   -0.218677
     7  H    0.227995
     8  H    0.226434
     9  H    0.278022
    10  H    0.273644
    11  H    0.223941
    12  N    0.488721
    13  O   -0.466927
    14  O   -0.453412
    15  C   -0.172453
    16  C   -0.218719
    17  C   -0.171758
    18  C    0.158062
    19  C   -0.171167
    20  C   -0.225534
    21  H    0.219237
    22  H    0.220410
    23  H    0.274133
    24  H    0.286022
    25  H    0.230968
    26  N    0.487797
    27  O   -0.457264
    28  O   -0.462967
 Sum of Mulliken charges =  -0.00000

 Dipole moment (field-independent basis, Debye):
    X=              6.8676    Y=              7.7848    Z=             -0.5474  Tot=             10.3955
 Quadrupole moment (field-independent basis, Debye-Ang):
   XX=           -106.8158   YY=           -105.5531   ZZ=           -104.9157
   XY=             -3.9201   XZ=              1.6038   YZ=              1.3874

 Normal termination of Gaussian 16 at Thu May  6 03:24:40 2021.
