 Gaussian 16, Revision A.03,
 Gaussian 16:  EM64L-G16RevA.03 25-Dec-2016

 -------------
 #p 6-31g* mp2
 -------------

 ------------------------------------------------------
 Input file generated by CHIRIPA (05-May-2021 14:53:16)
 ------------------------------------------------------
 Symbolic Z-matrix:
 Charge =  0 Multiplicity = 1

                         Standard orientation:
 ---------------------------------------------------------------------
 Center     Atomic      Atomic             Coordinates (Angstroms)
 Number     Number       Type             X           Y           Z
 ---------------------------------------------------------------------
      1          6           0        3.570658    0.063833    0.114714
      2          6           0        4.807403    0.840132   -0.338946
      3          6           0        5.643151    1.357473    0.832240
      4          1           0        2.951868    0.711577    0.750694
      5          1           0        3.886437   -0.780949    0.742426
      6          1           0        4.489474    1.682389   -0.966752
      7          1           0        5.423224    0.190526   -0.974077
      8          1           0        5.988495    0.526497    1.455793
      9          1           0        5.049440    2.026837    1.463159
     10          1           0        6.522253    1.909402    0.485234
     11          6           0        2.725000   -0.459767   -1.044784
     12          6           0        1.488256   -1.236067   -0.591124
     13          6           0        0.652507   -1.753407   -1.762311
     14          1           0        2.409221    0.385014   -1.672496
     15          1           0        3.343790   -1.107512   -1.680764
     16          1           0        0.872434   -0.586460    0.044006
     17          1           0        1.806184   -2.078324    0.036682
     18          1           0        1.246218   -2.422772   -2.393230
     19          1           0        0.307163   -0.922432   -2.385863
     20          1           0       -0.226595   -2.305337   -1.415304
     21          6           0       -1.396413   -1.773594    1.595439
     22          6           0       -1.125739   -0.458306    1.986938
     23          6           0       -1.709031    0.617845    1.311500
     24          6           0       -2.561992    0.341079    0.244191
     25          6           0       -2.851329   -0.958250   -0.169714
     26          6           0       -2.256827   -2.018937    0.520258
     27          1           0       -0.938943   -2.603567    2.125780
     28          1           0       -0.457926   -0.264781    2.821575
     29          1           0       -1.516829    1.645913    1.593546
     30          1           0       -3.521221   -1.119663   -1.005542
     31          1           0       -2.468855   -3.039378    0.214009
     32          7           0       -3.185431    1.472166   -0.478559
     33          8           0       -3.933359    1.201737   -1.415634
     34          8           0       -2.914350    2.607722   -0.094289
 ---------------------------------------------------------------------

 SCF Done:  E(RHF) =  -669.533069547     A.U. after   15 cycles
 E2 =    -0.2095468597D+01 EUMP2 =    -0.67162853814430D+03

 The electronic state is 1-A.
 Alpha  occ. eigenvalues --  -20.60850 -20.60845 -15.85904 -11.31307 -11.27858
 Alpha  occ. eigenvalues --  -11.27850 -11.27571 -11.26864 -11.26840 -11.21792
 Alpha  occ. eigenvalues --  -11.21668 -11.21649 -11.21507 -11.21278 -11.21132
 Alpha  occ. eigenvalues --   -1.59925  -1.39477  -1.19486  -1.08883  -1.08603
 Alpha  occ. eigenvalues --   -1.04895  -1.03696  -0.96157  -0.95689  -0.87179
 Alpha  occ. eigenvalues --   -0.86275  -0.82525  -0.79777  -0.78455  -0.77570
 Alpha  occ. eigenvalues --   -0.72121  -0.71250  -0.70563  -0.65262  -0.65123
 Alpha  occ. eigenvalues --   -0.64886  -0.62227  -0.61129  -0.59623  -0.57874
 Alpha  occ. eigenvalues --   -0.55483  -0.55362  -0.53383  -0.52969  -0.52654
 Alpha  occ. eigenvalues --   -0.52418  -0.50100  -0.48883  -0.48874  -0.48117
 Alpha  occ. eigenvalues --   -0.46802  -0.45990  -0.45910  -0.44874  -0.43985
 Alpha  occ. eigenvalues --   -0.37376  -0.36327
 Alpha virt. eigenvalues --    0.04935   0.11091   0.16339   0.21024   0.22807
 Alpha virt. eigenvalues --    0.24262   0.26307   0.26589   0.27442   0.28230
 Alpha virt. eigenvalues --    0.28311   0.30531   0.31321   0.31855   0.32034

 Mulliken charges:
               1
     1  C   -0.297291
     2  C   -0.299848
     3  C   -0.475750
     4  H    0.146026
     5  H    0.146738
     6  H    0.154196
     7  H    0.152588
     8  H    0.154003
     9  H    0.154495
    10  H    0.161607
    11  C   -0.298144
    12  C   -0.305011
    13  C   -0.476746
    14  H    0.152328
    15  H    0.149225
    16  H    0.161749
    17  H    0.142317
    18  H    0.152743
    19  H    0.157716
    20  H    0.157109
    21  C   -0.163719
    22  C   -0.221638
    23  C   -0.172117
    24  C    0.159972
    25  C   -0.167667
    26  C   -0.220721
    27  H    0.226639
    28  H    0.224683
    29  H    0.275900
    30  H    0.276411
    31  H    0.224465
    32  N    0.487944
    33  O   -0.459876
    34  O   -0.460323
 Sum of Mulliken charges =  -0.00000

 Dipole moment (field-independent basis, Debye):
    X=              2.0675    Y=             -3.9379    Z=              2.5850  Tot=              5.1442
 Quadrupole moment (field-independent basis, Debye-Ang):
   XX=           -105.8334   YY=            -95.3772   ZZ=            -92.7040
   XY=             12.2979   XZ=             -4.9804   YZ=              1.5818

 Normal termination of Gaussian 16 at Thu May  6 15:35:15 2021.
