 Gaussian 16, Revision A.03,
 Gaussian 16:  EM64L-G16RevA.03 25-Dec-2016

 -------------
 #p 6-31g* mp2
 -------------

 ------------------------------------------------------
 Input file generated by CHIRIPA (05-May-2021 14:53:16)
 ------------------------------------------------------
 Symbolic Z-matrix:
 Charge =  0 Multiplicity = 1

                         Standard orientation:
 ---------------------------------------------------------------------
 Center     Atomic      Atomic             Coordinates (Angstroms)
 Number     Number       Type             X           Y           Z
 ---------------------------------------------------------------------
      1          6           0        3.918730    0.149786   -0.135175
      2          6           0        3.801716   -1.206653   -0.831138
      3          6           0        5.124468   -1.675926   -1.437691
      4          1           0        4.277566    0.895660   -0.857569
      5          1           0        4.681987    0.085224    0.652649
      6          1           0        3.037926   -1.139936   -1.616497
      7          1           0        3.442934   -1.949343   -0.107051
      8          1           0        5.891668   -1.770634   -0.662426
      9          1           0        5.484358   -0.956628   -2.180449
     10          1           0        5.018016   -2.647538   -1.930133
     11          6           0        2.604557    0.632366    0.476211
     12          6           0        2.721570    1.988805    1.172175
     13          6           0        1.398819    2.458078    1.778728
     14          1           0        1.841300    0.696928   -0.311612
     15          1           0        2.245720   -0.113508    1.198606
     16          1           0        3.080353    2.731495    0.448088
     17          1           0        3.485361    1.922088    1.957534
     18          1           0        1.038928    1.738780    2.521486
     19          1           0        0.631619    2.552786    1.003463
     20          1           0        1.505271    3.429690    2.271170
     21          6           0       -1.933011   -2.322894    1.251611
     22          6           0       -0.929309   -1.528185    0.688104
     23          6           0       -1.258516   -0.408064   -0.080986
     24          6           0       -2.607629   -0.110497   -0.267098
     25          6           0       -3.630526   -0.882748    0.281172
     26          6           0       -3.278045   -1.998211    1.046708
     27          1           0       -1.668235   -3.191223    1.847678
     28          1           0        0.116096   -1.777941    0.845566
     29          1           0       -0.501675    0.224412   -0.528853
     30          1           0       -4.663846   -0.608516    0.106626
     31          1           0       -4.059650   -2.613586    1.483117
     32          7           0       -2.968466    1.072860   -1.079417
     33          8           0       -4.164459    1.313689   -1.228541
     34          8           0       -2.048463    1.737139   -1.551609
 ---------------------------------------------------------------------

 SCF Done:  E(RHF) =  -669.535637088     A.U. after   15 cycles
 E2 =    -0.2092533103D+01 EUMP2 =    -0.67162817019155D+03

 The electronic state is 1-A.
 Alpha  occ. eigenvalues --  -20.60747 -20.60739 -15.85791 -11.31100 -11.27681
 Alpha  occ. eigenvalues --  -11.27630 -11.27415 -11.26693 -11.26640 -11.22221
 Alpha  occ. eigenvalues --  -11.22159 -11.21968 -11.21927 -11.21522 -11.21245
 Alpha  occ. eigenvalues --   -1.59816  -1.39372  -1.19275  -1.09003  -1.08683
 Alpha  occ. eigenvalues --   -1.04668  -1.03977  -0.96422  -0.95526  -0.87436
 Alpha  occ. eigenvalues --   -0.86075  -0.82362  -0.80055  -0.78907  -0.77380
 Alpha  occ. eigenvalues --   -0.72012  -0.71134  -0.70399  -0.65657  -0.64927
 Alpha  occ. eigenvalues --   -0.64650  -0.62047  -0.61348  -0.59795  -0.58046
 Alpha  occ. eigenvalues --   -0.55700  -0.55190  -0.53074  -0.53004  -0.52847
 Alpha  occ. eigenvalues --   -0.52778  -0.50354  -0.48769  -0.48765  -0.48355
 Alpha  occ. eigenvalues --   -0.47077  -0.46361  -0.46291  -0.44785  -0.44276
 Alpha  occ. eigenvalues --   -0.37263  -0.36258
 Alpha virt. eigenvalues --    0.05099   0.11343   0.16577   0.19648   0.22897
 Alpha virt. eigenvalues --    0.23293   0.24468   0.25091   0.27487   0.28504
 Alpha virt. eigenvalues --    0.29910   0.31031   0.31232   0.31548   0.32091

 Mulliken charges:
               1
     1  C   -0.297363
     2  C   -0.301090
     3  C   -0.475886
     4  H    0.154722
     5  H    0.151538
     6  H    0.152784
     7  H    0.145784
     8  H    0.156090
     9  H    0.158336
    10  H    0.161253
    11  C   -0.306865
    12  C   -0.299171
    13  C   -0.480954
    14  H    0.149505
    15  H    0.143619
    16  H    0.156951
    17  H    0.152676
    18  H    0.152375
    19  H    0.163816
    20  H    0.163809
    21  C   -0.171029
    22  C   -0.224149
    23  C   -0.177605
    24  C    0.159402
    25  C   -0.170473
    26  C   -0.218812
    27  H    0.225232
    28  H    0.227523
    29  H    0.283871
    30  H    0.275228
    31  H    0.223023
    32  N    0.487934
    33  O   -0.460202
    34  O   -0.461873
 Sum of Mulliken charges =  -0.00000

 Dipole moment (field-independent basis, Debye):
    X=              1.4361    Y=             -4.0366    Z=              2.8335  Tot=              5.1366
 Quadrupole moment (field-independent basis, Debye-Ang):
   XX=            -96.7687   YY=            -94.0136   ZZ=            -96.4333
   XY=             12.4748   XZ=             -8.2857   YZ=              0.0260

 Normal termination of Gaussian 16 at Wed May  5 15:41:42 2021.
