 Gaussian 16, Revision A.03,
 Gaussian 16:  EM64L-G16RevA.03 25-Dec-2016

 -------------
 #p 6-31g* mp2
 -------------

 ------------------------------------------------------
 Input file generated by CHIRIPA (05-May-2021 14:53:13)
 ------------------------------------------------------
 Symbolic Z-matrix:
 Charge =  0 Multiplicity = 1

                         Standard orientation:
 ---------------------------------------------------------------------
 Center     Atomic      Atomic             Coordinates (Angstroms)
 Number     Number       Type             X           Y           Z
 ---------------------------------------------------------------------
      1          6           0       -5.047423   -0.169148    0.377682
      2          6           0       -6.272786   -0.716308   -0.355180
      3          6           0       -7.484835   -0.882338    0.561972
      4          1           0       -4.792250   -0.843686    1.206434
      5          1           0       -5.301574    0.799478    0.829972
      6          1           0       -6.015991   -1.682963   -0.807120
      7          1           0       -6.524956   -0.040490   -1.182402
      8          1           0       -7.768871    0.078696    1.002808
      9          1           0       -7.257015   -1.573109    1.380222
     10          1           0       -8.349471   -1.274653    0.017588
     11          6           0       -3.827650    0.002376   -0.525900
     12          6           0       -2.602287    0.549536    0.206962
     13          6           0       -1.390238    0.715566   -0.710190
     14          1           0       -3.573499   -0.966250   -0.978190
     15          1           0       -4.082823    0.676914   -1.354652
     16          1           0       -2.350117   -0.126282    1.034184
     17          1           0       -2.859082    1.516191    0.658902
     18          1           0       -1.618058    1.406337   -1.528440
     19          1           0       -1.106202   -0.245468   -1.151027
     20          1           0       -0.525602    1.107881   -0.165806
     21          6           0        4.885702   -2.020123   -0.008201
     22          6           0        4.588462   -1.414241    1.216984
     23          6           0        3.803239   -0.258555    1.265567
     24          6           0        3.329654    0.266742    0.064287
     25          6           0        3.608506   -0.313790   -1.172043
     26          6           0        4.395639   -1.468935   -1.196709
     27          1           0        5.496425   -2.917678   -0.036650
     28          1           0        4.967693   -1.840094    2.141580
     29          1           0        3.557863    0.230901    2.200255
     30          1           0        3.216165    0.133980   -2.077023
     31          1           0        4.624881   -1.937332   -2.149650
     32          7           0        2.497361    1.489928    0.103060
     33          8           0        2.092209    1.933078   -0.969370
     34          8           0        2.265924    1.982352    1.205146
 ---------------------------------------------------------------------

 SCF Done:  E(RHF) =  -669.535917830     A.U. after   15 cycles
 E2 =    -0.2091182303D+01 EUMP2 =    -0.67162710013247D+03

 The electronic state is 1-A.
 Alpha  occ. eigenvalues --  -20.60898 -20.60883 -15.85910 -11.31248 -11.27816
 Alpha  occ. eigenvalues --  -11.27808 -11.27558 -11.26824 -11.26814 -11.21234
 Alpha  occ. eigenvalues --  -11.20914 -11.20812 -11.20769 -11.20752 -11.19981
 Alpha  occ. eigenvalues --   -1.59957  -1.39507  -1.19419  -1.08823  -1.07873
 Alpha  occ. eigenvalues --   -1.04816  -1.02913  -0.95664  -0.95348  -0.86365
 Alpha  occ. eigenvalues --   -0.86216  -0.82496  -0.78994  -0.77675  -0.77548
 Alpha  occ. eigenvalues --   -0.72132  -0.71291  -0.70529  -0.65073  -0.64820
 Alpha  occ. eigenvalues --   -0.64513  -0.62163  -0.60321  -0.58733  -0.56948
 Alpha  occ. eigenvalues --   -0.55323  -0.54653  -0.53154  -0.52909  -0.52003
 Alpha  occ. eigenvalues --   -0.51777  -0.49317  -0.48899  -0.48887  -0.47294
 Alpha  occ. eigenvalues --   -0.46051  -0.45215  -0.45144  -0.44923  -0.43117
 Alpha  occ. eigenvalues --   -0.37398  -0.36417
 Alpha virt. eigenvalues --    0.04952   0.11237   0.16444   0.21368   0.23381
 Alpha virt. eigenvalues --    0.24939   0.27168   0.27286   0.28020   0.28168
 Alpha virt. eigenvalues --    0.28693   0.30879   0.31974   0.32299   0.32527

 Mulliken charges:
               1
     1  C   -0.297650
     2  C   -0.299114
     3  C   -0.475364
     4  H    0.148099
     5  H    0.149904
     6  H    0.150445
     7  H    0.151781
     8  H    0.155283
     9  H    0.154273
    10  H    0.158923
    11  C   -0.297642
    12  C   -0.299632
    13  C   -0.478326
    14  H    0.146381
    15  H    0.149409
    16  H    0.147921
    17  H    0.154037
    18  H    0.157142
    19  H    0.145203
    20  H    0.175520
    21  C   -0.170581
    22  C   -0.218669
    23  C   -0.170909
    24  C    0.158952
    25  C   -0.170463
    26  C   -0.218724
    27  H    0.225820
    28  H    0.223638
    29  H    0.275734
    30  H    0.276213
    31  H    0.223711
    32  N    0.486595
    33  O   -0.457303
    34  O   -0.460602
 Sum of Mulliken charges =  -0.00000

 Dipole moment (field-independent basis, Debye):
    X=              3.1519    Y=             -4.2096    Z=             -0.1446  Tot=              5.2608
 Quadrupole moment (field-independent basis, Debye-Ang):
   XX=            -77.4369   YY=            -96.7997   ZZ=            -90.0670
   XY=            -14.6070   XZ=              0.7274   YZ=             -0.3635

 Normal termination of Gaussian 16 at Wed May  5 21:46:45 2021.
