 Gaussian 16, Revision A.03,
 Gaussian 16:  EM64L-G16RevA.03 25-Dec-2016

 -------------
 #p 6-31g* mp2
 -------------

 ------------------------------------------------------
 Input file generated by CHIRIPA (05-May-2021 14:53:14)
 ------------------------------------------------------
 Symbolic Z-matrix:
 Charge =  0 Multiplicity = 1

                         Standard orientation:
 ---------------------------------------------------------------------
 Center     Atomic      Atomic             Coordinates (Angstroms)
 Number     Number       Type             X           Y           Z
 ---------------------------------------------------------------------
      1          6           0       -3.110027    0.732824   -0.055557
      2          6           0       -3.385968    2.124196    0.515344
      3          6           0       -2.110487    2.941078    0.724258
      4          1           0       -2.434001    0.193053    0.621628
      5          1           0       -2.578379    0.835273   -1.011721
      6          1           0       -3.918161    2.019186    1.469471
      7          1           0       -4.061568    2.660647   -0.163183
      8          1           0       -1.579427    3.075364   -0.223657
      9          1           0       -1.435204    2.430258    1.418274
     10          1           0       -2.330905    3.932140    1.133002
     11          6           0       -4.375329   -0.095878   -0.270010
     12          6           0       -4.099389   -1.487250   -0.840910
     13          6           0       -5.374870   -2.304132   -1.049825
     14          1           0       -4.906978   -0.198328    0.686154
     15          1           0       -5.051356    0.443893   -0.947195
     16          1           0       -3.423788   -2.023702   -0.162383
     17          1           0       -3.567196   -1.382240   -1.795038
     18          1           0       -6.050152   -1.793312   -1.743841
     19          1           0       -5.905930   -2.438419   -0.101910
     20          1           0       -5.154451   -3.295194   -1.458569
     21          6           0        1.314014   -1.145650    1.850441
     22          6           0        2.472948   -1.862584    1.535165
     23          6           0        3.372056   -1.375227    0.581943
     24          6           0        3.079611   -0.162104   -0.039424
     25          6           0        1.933402    0.575420    0.253065
     26          6           0        1.048408    0.068923    1.209515
     27          1           0        0.621047   -1.531675    2.592181
     28          1           0        2.681793   -2.806117    2.031325
     29          1           0        4.276732   -1.909762    0.318783
     30          1           0        1.752321    1.513043   -0.258299
     31          1           0        0.149149    0.627853    1.452361
     32          7           0        4.023987    0.363971   -1.050266
     33          8           0        3.743456    1.435215   -1.583536
     34          8           0        5.026835   -0.304897   -1.290156
 ---------------------------------------------------------------------

 SCF Done:  E(RHF) =  -669.535395818     A.U. after   15 cycles
 E2 =    -0.2091551930D+01 EUMP2 =    -0.67162694774837D+03

 The electronic state is 1-A.
 Alpha  occ. eigenvalues --  -20.60718 -20.60713 -15.85771 -11.31125 -11.27698
 Alpha  occ. eigenvalues --  -11.27677 -11.27440 -11.26716 -11.26663 -11.22387
 Alpha  occ. eigenvalues --  -11.22179 -11.22121 -11.22060 -11.21981 -11.21499
 Alpha  occ. eigenvalues --   -1.59794  -1.39347  -1.19296  -1.09127  -1.08696
 Alpha  occ. eigenvalues --   -1.04696  -1.04213  -0.96677  -0.95532  -0.87694
 Alpha  occ. eigenvalues --   -0.86100  -0.82366  -0.80280  -0.78931  -0.77406
 Alpha  occ. eigenvalues --   -0.71990  -0.71116  -0.70411  -0.65788  -0.64948
 Alpha  occ. eigenvalues --   -0.64704  -0.62102  -0.61565  -0.60033  -0.58277
 Alpha  occ. eigenvalues --   -0.55989  -0.55208  -0.53346  -0.53146  -0.53019
 Alpha  occ. eigenvalues --   -0.52780  -0.50624  -0.48769  -0.48745  -0.48562
 Alpha  occ. eigenvalues --   -0.47298  -0.46459  -0.46371  -0.44755  -0.44459
 Alpha  occ. eigenvalues --   -0.37281  -0.36290
 Alpha virt. eigenvalues --    0.05120   0.11300   0.16598   0.19341   0.22614
 Alpha virt. eigenvalues --    0.23665   0.25204   0.26094   0.26910   0.28424
 Alpha virt. eigenvalues --    0.29400   0.29507   0.31232   0.31399   0.32122

 Mulliken charges:
               1
     1  C   -0.299727
     2  C   -0.300515
     3  C   -0.480289
     4  H    0.141751
     5  H    0.153362
     6  H    0.152984
     7  H    0.156851
     8  H    0.158575
     9  H    0.146076
    10  H    0.166929
    11  C   -0.298785
    12  C   -0.299704
    13  C   -0.476152
    14  H    0.149545
    15  H    0.152622
    16  H    0.149480
    17  H    0.154627
    18  H    0.156809
    19  H    0.154968
    20  H    0.161753
    21  C   -0.173030
    22  C   -0.218404
    23  C   -0.171200
    24  C    0.158748
    25  C   -0.174085
    26  C   -0.224880
    27  H    0.225275
    28  H    0.223041
    29  H    0.275345
    30  H    0.276069
    31  H    0.235089
    32  N    0.488120
    33  O   -0.460501
    34  O   -0.460748
 Sum of Mulliken charges =  -0.00000

 Dipole moment (field-independent basis, Debye):
    X=             -3.5312    Y=             -1.7985    Z=              3.4674  Tot=              5.2656
 Quadrupole moment (field-independent basis, Debye-Ang):
   XX=           -114.0725   YY=            -91.2501   ZZ=            -94.8663
   XY=             -8.7705   XZ=             11.7523   YZ=             -1.7174

 Normal termination of Gaussian 16 at Thu May  6 05:49:47 2021.
