 Gaussian 16, Revision A.03,
 Gaussian 16:  EM64L-G16RevA.03 25-Dec-2016

 -------------
 #p 6-31g* mp2
 -------------

 ------------------------------------------------------
 Input file generated by CHIRIPA (05-May-2021 14:53:18)
 ------------------------------------------------------
 Symbolic Z-matrix:
 Charge =  0 Multiplicity = 1

                         Standard orientation:
 ---------------------------------------------------------------------
 Center     Atomic      Atomic             Coordinates (Angstroms)
 Number     Number       Type             X           Y           Z
 ---------------------------------------------------------------------
      1          6           0       -5.079813   -0.158672   -0.462915
      2          6           0       -6.583849    0.040030   -0.272180
      3          6           0       -7.335926    0.168260   -1.597220
      4          1           0       -4.674499    0.686510   -1.035919
      5          1           0       -4.910018   -1.058327   -1.070521
      6          1           0       -6.750711    0.938269    0.336047
      7          1           0       -6.985596   -0.805627    0.300601
      8          1           0       -7.198979   -0.730974   -2.206503
      9          1           0       -6.962759    1.022830   -2.170855
     10          1           0       -8.409412    0.309601   -1.437501
     11          6           0       -4.314245   -0.288526    0.852673
     12          6           0       -2.810209   -0.487228    0.661938
     13          6           0       -2.058132   -0.615458    1.986978
     14          1           0       -4.484040    0.611129    1.460278
     15          1           0       -4.719559   -1.133708    1.425677
     16          1           0       -2.408462    0.358429    0.089156
     17          1           0       -2.643347   -1.385466    0.053710
     18          1           0       -2.431299   -1.470028    2.560613
     19          1           0       -2.195079    0.283776    2.596260
     20          1           0       -0.984646   -0.756799    1.827259
     21          6           0        1.904751    1.940302    0.213804
     22          6           0        3.245839    2.310487    0.069012
     23          6           0        4.232128    1.340708   -0.134241
     24          6           0        3.840168    0.003994   -0.187638
     25          6           0        2.512326   -0.396408   -0.046914
     26          6           0        1.542912    0.590416    0.155481
     27          1           0        1.145133    2.700271    0.371362
     28          1           0        3.529757    3.358067    0.113869
     29          1           0        5.277693    1.599432   -0.249456
     30          1           0        2.259953   -1.448688   -0.096224
     31          1           0        0.502174    0.300006    0.267602
     32          7           0        4.875376   -1.031691   -0.402359
     33          8           0        4.504181   -2.202583   -0.445524
     34          8           0        6.038363   -0.652957   -0.523426
 ---------------------------------------------------------------------

 SCF Done:  E(RHF) =  -669.535457646     A.U. after   15 cycles
 E2 =    -0.2091047463D+01 EUMP2 =    -0.67162650510874D+03

 The electronic state is 1-A.
 Alpha  occ. eigenvalues --  -20.60734 -20.60729 -15.85787 -11.31151 -11.27723
 Alpha  occ. eigenvalues --  -11.27714 -11.27460 -11.26738 -11.26691 -11.22585
 Alpha  occ. eigenvalues --  -11.22126 -11.22086 -11.22083 -11.21963 -11.21473
 Alpha  occ. eigenvalues --   -1.59810  -1.39363  -1.19322  -1.09135  -1.08717
 Alpha  occ. eigenvalues --   -1.04728  -1.04252  -0.96690  -0.95553  -0.87702
 Alpha  occ. eigenvalues --   -0.86122  -0.82387  -0.80326  -0.78913  -0.77436
 Alpha  occ. eigenvalues --   -0.72006  -0.71133  -0.70433  -0.65766  -0.64974
 Alpha  occ. eigenvalues --   -0.64767  -0.62145  -0.61626  -0.60059  -0.58295
 Alpha  occ. eigenvalues --   -0.55952  -0.55225  -0.53464  -0.53179  -0.53044
 Alpha  occ. eigenvalues --   -0.52653  -0.50611  -0.48765  -0.48761  -0.48636
 Alpha  occ. eigenvalues --   -0.47358  -0.46459  -0.46359  -0.44770  -0.44493
 Alpha  occ. eigenvalues --   -0.37302  -0.36324
 Alpha virt. eigenvalues --    0.05096   0.11292   0.16546   0.19623   0.22502
 Alpha virt. eigenvalues --    0.23702   0.25783   0.26118   0.26885   0.28114
 Alpha virt. eigenvalues --    0.28849   0.30337   0.30714   0.31117   0.32147

 Mulliken charges:
               1
     1  C   -0.298862
     2  C   -0.300221
     3  C   -0.476074
     4  H    0.148951
     5  H    0.151229
     6  H    0.152149
     7  H    0.153290
     8  H    0.156264
     9  H    0.155204
    10  H    0.161775
    11  C   -0.298459
    12  C   -0.303063
    13  C   -0.480050
    14  H    0.150240
    15  H    0.152915
    16  H    0.145721
    17  H    0.155162
    18  H    0.162493
    19  H    0.157187
    20  H    0.154290
    21  C   -0.172325
    22  C   -0.218447
    23  C   -0.171104
    24  C    0.158835
    25  C   -0.173035
    26  C   -0.226202
    27  H    0.225495
    28  H    0.223193
    29  H    0.275486
    30  H    0.275521
    31  H    0.235412
    32  N    0.488101
    33  O   -0.460466
    34  O   -0.460607
 Sum of Mulliken charges =  -0.00000

 Dipole moment (field-independent basis, Debye):
    X=             -3.8720    Y=              3.6159    Z=              0.7843  Tot=              5.3556
 Quadrupole moment (field-independent basis, Debye-Ang):
   XX=           -120.1758   YY=            -91.4047   ZZ=            -96.5802
   XY=             17.3967   XZ=              2.7567   YZ=             -0.7603

 Normal termination of Gaussian 16 at Wed May  5 20:26:45 2021.
