 Gaussian 16, Revision A.03,
 Gaussian 16:  EM64L-G16RevA.03 25-Dec-2016

 -------------
 #p 6-31g* mp2
 -------------

 ------------------------------------------------------
 Input file generated by CHIRIPA (05-May-2021 14:55:22)
 ------------------------------------------------------
 Symbolic Z-matrix:
 Charge =  0 Multiplicity = 1

                         Standard orientation:
 ---------------------------------------------------------------------
 Center     Atomic      Atomic             Coordinates (Angstroms)
 Number     Number       Type             X           Y           Z
 ---------------------------------------------------------------------
      1          6           0       -4.982169    1.666817    0.478367
      2          6           0       -5.084735    0.861518   -0.660709
      3          6           0       -4.079572   -0.058821   -0.972434
      4          6           0       -2.980754   -0.147980   -0.119241
      5          6           0       -2.849732    0.640417    1.022929
      6          6           0       -3.866961    1.553896    1.315076
      7          1           0       -5.767690    2.379094    0.712918
      8          1           0       -5.949683    0.947055   -1.312317
      9          1           0       -4.133533   -0.694559   -1.847845
     10          1           0       -1.975531    0.532396    1.653422
     11          1           0       -3.784641    2.178012    2.200371
     12          7           0       -1.910246   -1.118671   -0.438887
     13          8           0       -0.952298   -1.178010    0.328871
     14          8           0       -2.049400   -1.801778   -1.451131
     15          6           0        4.046085    0.748401    0.076542
     16          6           0        5.317046    1.339766   -0.534139
     17          6           0        5.311927    2.868708   -0.544361
     18          1           0        3.174235    1.109822   -0.485772
     19          1           0        3.932686    1.122488    1.103477
     20          1           0        5.428747    0.963586   -1.559140
     21          1           0        6.185985    0.976742    0.029575
     22          1           0        5.224988    3.260473    0.474246
     23          1           0        4.463448    3.247242   -1.123496
     24          1           0        6.229696    3.270310   -0.985128
     25          6           0        4.036312   -0.779124    0.093850
     26          6           0        2.765351   -1.370489    0.704532
     27          6           0        2.770471   -2.899431    0.714754
     28          1           0        4.149710   -1.153211   -0.933084
     29          1           0        4.908162   -1.140545    0.656165
     30          1           0        1.896412   -1.007466    0.140818
     31          1           0        2.653649   -0.994309    1.729533
     32          1           0        3.618949   -3.277965    1.293889
     33          1           0        2.857409   -3.291197   -0.303853
     34          1           0        1.852701   -3.301033    1.155521
 ---------------------------------------------------------------------

 SCF Done:  E(RHF) =  -669.536112428     A.U. after   15 cycles
 E2 =    -0.2090928792D+01 EUMP2 =    -0.67162704121997D+03

 The electronic state is 1-A.
 Alpha  occ. eigenvalues --  -20.60964 -20.60957 -15.85992 -11.31305 -11.27867
 Alpha  occ. eigenvalues --  -11.27862 -11.27604 -11.26872 -11.26862 -11.21010
 Alpha  occ. eigenvalues --  -11.20636 -11.20616 -11.20338 -11.20083 -11.19638
 Alpha  occ. eigenvalues --   -1.60024  -1.39580  -1.19473  -1.08879  -1.07500
 Alpha  occ. eigenvalues --   -1.04867  -1.02532  -0.95723  -0.95026  -0.86268
 Alpha  occ. eigenvalues --   -0.86056  -0.82557  -0.78654  -0.77615  -0.77233
 Alpha  occ. eigenvalues --   -0.72213  -0.71338  -0.70581  -0.65129  -0.64870
 Alpha  occ. eigenvalues --   -0.64138  -0.62214  -0.59930  -0.58438  -0.56587
 Alpha  occ. eigenvalues --   -0.55372  -0.54340  -0.53200  -0.52958  -0.51714
 Alpha  occ. eigenvalues --   -0.51453  -0.49038  -0.48972  -0.48949  -0.46957
 Alpha  occ. eigenvalues --   -0.45716  -0.45092  -0.44786  -0.44521  -0.42801
 Alpha  occ. eigenvalues --   -0.37452  -0.36468
 Alpha virt. eigenvalues --    0.04897   0.11187   0.16383   0.21317   0.23715
 Alpha virt. eigenvalues --    0.25319   0.27242   0.27552   0.28075   0.28566
 Alpha virt. eigenvalues --    0.28908   0.30885   0.32312   0.32342   0.32754

 Mulliken charges:
               1
     1  C   -0.170559
     2  C   -0.218604
     3  C   -0.170648
     4  C    0.157653
     5  C   -0.170837
     6  C   -0.218559
     7  H    0.226048
     8  H    0.223834
     9  H    0.275829
    10  H    0.276179
    11  H    0.223949
    12  N    0.490301
    13  O   -0.461530
    14  O   -0.459080
    15  C   -0.297011
    16  C   -0.298792
    17  C   -0.475035
    18  H    0.149404
    19  H    0.146288
    20  H    0.151655
    21  H    0.150698
    22  H    0.153343
    23  H    0.153918
    24  H    0.158353
    25  C   -0.298113
    26  C   -0.304086
    27  C   -0.474107
    28  H    0.148392
    29  H    0.145019
    30  H    0.174357
    31  H    0.144144
    32  H    0.145993
    33  H    0.153986
    34  H    0.167618
 Sum of Mulliken charges =  -0.00000

 Dipole moment (field-independent basis, Debye):
    X=             -4.1348    Y=              3.3717    Z=              1.0773  Tot=              5.4429
 Quadrupole moment (field-independent basis, Debye-Ang):
   XX=            -72.6356   YY=            -97.5647   ZZ=            -91.2386
   XY=             -9.2750   XZ=             -0.3465   YZ=              1.0921

 Normal termination of Gaussian 16 at Thu May  6 04:38:17 2021.
