 Gaussian 16, Revision A.03,
 Gaussian 16:  EM64L-G16RevA.03 25-Dec-2016

 -------------
 #p 6-31g* mp2
 -------------

 ------------------------------------------------------
 Input file generated by CHIRIPA (05-May-2021 14:51:10)
 ------------------------------------------------------
 Symbolic Z-matrix:
 Charge =  0 Multiplicity = 1

                         Standard orientation:
 ---------------------------------------------------------------------
 Center     Atomic      Atomic             Coordinates (Angstroms)
 Number     Number       Type             X           Y           Z
 ---------------------------------------------------------------------
      1          6           0        2.341817   -1.462736    0.025075
      2          6           0        1.048136   -1.583670   -0.780995
      3          6           0        0.342800   -2.923627   -0.569317
      4          1           0        3.017912   -2.282643   -0.253482
      5          1           0        2.114425   -1.593928    1.092069
      6          1           0        1.277696   -1.450911   -1.846028
      7          1           0        0.375120   -0.763268   -0.500627
      8          1           0        0.085327   -3.060984    0.485881
      9          1           0        0.993031   -3.752534   -0.867164
     10          1           0       -0.579578   -2.988697   -1.154846
     11          6           0        3.058440   -0.128667   -0.176023
     12          6           0        4.352121   -0.007733    0.630047
     13          6           0        5.057458    1.332224    0.418368
     14          1           0        3.285832    0.002525   -1.243017
     15          1           0        2.382346    0.691240    0.102533
     16          1           0        5.025138   -0.828135    0.349678
     17          1           0        4.122561   -0.140491    1.695079
     18          1           0        4.407226    2.161131    0.716215
     19          1           0        5.314931    1.469581   -0.636830
     20          1           0        5.979836    1.397295    1.003897
     21          6           0       -2.320877    1.280277   -0.377060
     22          6           0       -1.997349    2.613458    0.298176
     23          6           0       -1.238495    3.572243   -0.619792
     24          1           0       -1.386096    0.808743   -0.709904
     25          1           0       -2.914665    1.470102   -1.281924
     26          1           0       -1.405523    2.421078    1.202249
     27          1           0       -2.932995    3.081782    0.629622
     28          1           0       -1.826410    3.793384   -1.516484
     29          1           0       -0.290260    3.128925   -0.940602
     30          1           0       -1.017495    4.518933   -0.117003
     31          6           0       -3.079380    0.311126    0.528009
     32          6           0       -3.402908   -1.022055   -0.147227
     33          6           0       -4.161762   -1.980840    0.770741
     34          1           0       -2.485593    0.121301    1.432872
     35          1           0       -4.014161    0.782660    0.860852
     36          1           0       -2.467263   -1.490380   -0.478673
     37          1           0       -3.994734   -0.829675   -1.051300
     38          1           0       -5.109998   -1.537522    1.091551
     39          1           0       -3.573848   -2.201981    1.667432
     40          1           0       -4.382762   -2.927530    0.267952
 ---------------------------------------------------------------------

 SCF Done:  E(RHF) =  -470.732884010     A.U. after   11 cycles
 E2 =    -0.1584080631D+01 EUMP2 =    -0.47231696464017D+03

 The electronic state is 1-A.
 Alpha  occ. eigenvalues --  -11.21676 -11.21646 -11.21613 -11.21543 -11.21472
 Alpha  occ. eigenvalues --  -11.21413 -11.21392 -11.21332 -11.21144 -11.21100
 Alpha  occ. eigenvalues --  -11.21078 -11.21044  -1.08509  -1.08415  -1.03602
 Alpha  occ. eigenvalues --   -1.03512  -0.96044  -0.95970  -0.87068  -0.86976
 Alpha  occ. eigenvalues --   -0.79688  -0.79559  -0.78368  -0.78188  -0.65308
 Alpha  occ. eigenvalues --   -0.64919  -0.61049  -0.60879  -0.59456  -0.59289
 Alpha  occ. eigenvalues --   -0.57658  -0.57579  -0.55326  -0.55274  -0.52753
 Alpha  occ. eigenvalues --   -0.52654  -0.52498  -0.52370  -0.50043  -0.49863
 Alpha  occ. eigenvalues --   -0.48062  -0.47829  -0.46824  -0.46549  -0.46078
 Alpha  occ. eigenvalues --   -0.45804  -0.45745  -0.45307  -0.43840  -0.43769
 Alpha virt. eigenvalues --    0.20044   0.22762   0.23529   0.24745   0.25880
 Alpha virt. eigenvalues --    0.26768   0.27183   0.27368   0.27761   0.29634
 Alpha virt. eigenvalues --    0.30584   0.31438   0.31760   0.32060   0.32209

 Mulliken charges:
               1
     1  C   -0.297511
     2  C   -0.309696
     3  C   -0.478008
     4  H    0.150149
     5  H    0.149410
     6  H    0.152488
     7  H    0.159850
     8  H    0.155217
     9  H    0.156135
    10  H    0.162462
    11  C   -0.298527
    12  C   -0.299693
    13  C   -0.475819
    14  H    0.149852
    15  H    0.148959
    16  H    0.152166
    17  H    0.151984
    18  H    0.155364
    19  H    0.155321
    20  H    0.160428
    21  C   -0.306754
    22  C   -0.299158
    23  C   -0.476045
    24  H    0.156967
    25  H    0.149885
    26  H    0.151057
    27  H    0.152141
    28  H    0.155422
    29  H    0.155398
    30  H    0.160208
    31  C   -0.297310
    32  C   -0.308097
    33  C   -0.475053
    34  H    0.148568
    35  H    0.149738
    36  H    0.161027
    37  H    0.151494
    38  H    0.154981
    39  H    0.154851
    40  H    0.160149
 Sum of Mulliken charges =  -0.00000

 Dipole moment (field-independent basis, Debye):
    X=              0.0314    Y=             -0.0225    Z=             -0.0200  Tot=              0.0435
 Quadrupole moment (field-independent basis, Debye-Ang):
   XX=            -84.4310   YY=            -85.9352   ZZ=            -84.3550
   XY=             -1.5838   XZ=              0.2351   YZ=              0.6824

 Normal termination of Gaussian 16 at Wed May  5 19:48:15 2021.
