 Gaussian 16, Revision A.03,
 Gaussian 16:  EM64L-G16RevA.03 25-Dec-2016

 -------------
 #p 6-31g* mp2
 -------------

 ------------------------------------------------------
 Input file generated by CHIRIPA (05-May-2021 14:57:21)
 ------------------------------------------------------
 Symbolic Z-matrix:
 Charge =  0 Multiplicity = 1

                         Standard orientation:
 ---------------------------------------------------------------------
 Center     Atomic      Atomic             Coordinates (Angstroms)
 Number     Number       Type             X           Y           Z
 ---------------------------------------------------------------------
      1          6           0        4.456206    1.676008   -0.207283
      2          6           0        4.558467    0.719257    0.807947
      3          6           0        3.621154   -0.313250    0.907561
      4          6           0        2.589757   -0.358919   -0.029148
      5          6           0        2.460893    0.579413   -1.051996
      6          6           0        3.409591    1.603161   -1.132383
      7          1           0        5.188755    2.474681   -0.277197
      8          1           0        5.370230    0.773342    1.527780
      9          1           0        3.676516   -1.067084    1.683504
     10          1           0        1.640604    0.499273   -1.754934
     11          1           0        3.327678    2.344808   -1.921873
     12          7           0        1.591440   -1.447351    0.066131
     13          8           0        0.692135   -1.465444   -0.771461
     14          8           0        1.727167   -2.261761    0.976599
     15          6           0       -3.093765    2.612320    0.621240
     16          6           0       -2.938554    1.666607    1.640092
     17          6           0       -2.749853    0.315953    1.332404
     18          6           0       -2.721473   -0.055661   -0.010872
     19          6           0       -2.873117    0.862845   -1.048485
     20          6           0       -3.060609    2.208133   -0.717436
     21          1           0       -3.239884    3.659457    0.869333
     22          1           0       -2.963873    1.977629    2.680605
     23          1           0       -2.627051   -0.437127    2.101305
     24          1           0       -2.843342    0.522505   -2.076445
     25          1           0       -3.180871    2.940391   -1.510771
     26          7           0       -2.522343   -1.482697   -0.348972
     27          8           0       -2.501169   -1.784511   -1.540231
     28          8           0       -2.391210   -2.272376    0.583685
 ---------------------------------------------------------------------

 SCF Done:  E(RHF) =  -868.335958069     A.U. after   16 cycles
 E2 =    -0.2601829458D+01 EUMP2 =    -0.87093778752676D+03

 The electronic state is 1-A.
 Alpha  occ. eigenvalues --  -20.60416 -20.60375 -20.59349 -20.59327 -15.85458
 Alpha  occ. eigenvalues --  -15.84425 -11.31041 -11.30361 -11.27642 -11.27632
 Alpha  occ. eigenvalues --  -11.27426 -11.27010 -11.26974 -11.26874 -11.26709
 Alpha  occ. eigenvalues --  -11.26692 -11.26184 -11.26151  -1.59466  -1.58363
 Alpha  occ. eigenvalues --   -1.39020  -1.37929  -1.19237  -1.18590  -1.08591
 Alpha  occ. eigenvalues --   -1.07875  -1.04672  -1.04090  -0.95387  -0.94620
 Alpha  occ. eigenvalues --   -0.86060  -0.85456  -0.82221  -0.81474  -0.77233
 Alpha  occ. eigenvalues --   -0.76401  -0.71767  -0.70858  -0.70674  -0.70347
 Alpha  occ. eigenvalues --   -0.69706  -0.69490  -0.64880  -0.64676  -0.64237
 Alpha  occ. eigenvalues --   -0.64108  -0.62017  -0.61431  -0.55166  -0.54585
 Alpha  occ. eigenvalues --   -0.52991  -0.52769  -0.52385  -0.52194  -0.48415
 Alpha  occ. eigenvalues --   -0.48399  -0.47428  -0.47373  -0.44390  -0.43223
 Alpha  occ. eigenvalues --   -0.37234  -0.36594  -0.36287  -0.35732
 Alpha virt. eigenvalues --    0.05261   0.06217   0.11364   0.11917   0.16739
 Alpha virt. eigenvalues --    0.17568   0.21470   0.21964   0.27357   0.27825
 Alpha virt. eigenvalues --    0.28373   0.28927   0.30975   0.31479   0.32596

 Mulliken charges:
               1
     1  C   -0.171594
     2  C   -0.218714
     3  C   -0.171377
     4  C    0.158244
     5  C   -0.171065
     6  C   -0.218737
     7  H    0.224360
     8  H    0.222744
     9  H    0.276062
    10  H    0.275449
    11  H    0.221607
    12  N    0.488596
    13  O   -0.459295
    14  O   -0.455064
    15  C   -0.173493
    16  C   -0.219117
    17  C   -0.172891
    18  C    0.164179
    19  C   -0.172671
    20  C   -0.220130
    21  H    0.221073
    22  H    0.220254
    23  H    0.276971
    24  H    0.274171
    25  H    0.218603
    26  N    0.498074
    27  O   -0.459923
    28  O   -0.456317
 Sum of Mulliken charges =  -0.00000

 Dipole moment (field-independent basis, Debye):
    X=              2.9302    Y=              8.4434    Z=              0.8450  Tot=              8.9772
 Quadrupole moment (field-independent basis, Debye-Ang):
   XX=            -83.9271   YY=           -108.6914   ZZ=            -97.3170
   XY=             -5.4769   XZ=             -1.6464   YZ=             -3.1282

 Normal termination of Gaussian 16 at Wed May  5 19:19:37 2021.
