 Gaussian 16, Revision A.03,
 Gaussian 16:  EM64L-G16RevA.03 25-Dec-2016

 -------------
 #p 6-31g* mp2
 -------------

 ------------------------------------------------------
 Input file generated by CHIRIPA (05-May-2021 14:57:25)
 ------------------------------------------------------
 Symbolic Z-matrix:
 Charge =  0 Multiplicity = 1

                         Standard orientation:
 ---------------------------------------------------------------------
 Center     Atomic      Atomic             Coordinates (Angstroms)
 Number     Number       Type             X           Y           Z
 ---------------------------------------------------------------------
      1          6           0       -2.708548   -2.259803   -0.301512
      2          6           0       -1.912587   -1.111912   -0.228606
      3          6           0       -2.498848    0.155377   -0.159156
      4          6           0       -3.890383    0.238369   -0.164804
      5          6           0       -4.710435   -0.886645   -0.236558
      6          6           0       -4.102474   -2.143710   -0.305248
      7          1           0       -2.244698   -3.240293   -0.355167
      8          1           0       -0.829793   -1.199050   -0.225527
      9          1           0       -1.906480    1.060498   -0.101936
     10          1           0       -5.787155   -0.767939   -0.237751
     11          1           0       -4.723126   -3.033451   -0.361786
     12          7           0       -4.522518    1.574580   -0.091682
     13          8           0       -5.750710    1.620813   -0.098242
     14          8           0       -3.777823    2.550368   -0.029195
     15          6           0        5.689204    1.018401   -1.115457
     16          6           0        5.090864    1.722363   -0.065244
     17          6           0        4.035741    1.157853    0.657662
     18          6           0        3.602224   -0.118355    0.301792
     19          6           0        4.177880   -0.844879   -0.739398
     20          6           0        5.231609   -0.260719   -1.448595
     21          1           0        6.508307    1.464558   -1.671702
     22          1           0        5.444168    2.715910    0.195692
     23          1           0        3.554451    1.680648    1.475258
     24          1           0        3.803862   -1.833551   -0.976163
     25          1           0        5.694392   -0.809751   -2.263726
     26          7           0        2.485951   -0.726378    1.059842
     27          8           0        2.122450   -1.852193    0.726610
     28          8           0        1.995653   -0.065618    1.972882
 ---------------------------------------------------------------------

 SCF Done:  E(RHF) =  -868.339982815     A.U. after   16 cycles
 E2 =    -0.2598400560D+01 EUMP2 =    -0.87093838337451D+03

 The electronic state is 1-A.
 Alpha  occ. eigenvalues --  -20.61735 -20.61699 -20.60123 -20.60117 -15.86736
 Alpha  occ. eigenvalues --  -15.85167 -11.31825 -11.30358 -11.28379 -11.28336
 Alpha  occ. eigenvalues --  -11.28040 -11.27314 -11.27282 -11.26930 -11.26836
 Alpha  occ. eigenvalues --  -11.26548 -11.25926 -11.25701  -1.60789  -1.59201
 Alpha  occ. eigenvalues --   -1.40344  -1.38760  -1.19971  -1.18493  -1.09416
 Alpha  occ. eigenvalues --   -1.07913  -1.05327  -1.03858  -0.96294  -0.94786
 Alpha  occ. eigenvalues --   -0.86738  -0.85256  -0.83132  -0.81619  -0.78215
 Alpha  occ. eigenvalues --   -0.76697  -0.72948  -0.72104  -0.71392  -0.71068
 Alpha  occ. eigenvalues --   -0.70520  -0.69594  -0.65622  -0.65321  -0.64136
 Alpha  occ. eigenvalues --   -0.63825  -0.62675  -0.61201  -0.55831  -0.54348
 Alpha  occ. eigenvalues --   -0.53675  -0.53411  -0.52211  -0.51930  -0.49727
 Alpha  occ. eigenvalues --   -0.49683  -0.48156  -0.48130  -0.45798  -0.44204
 Alpha  occ. eigenvalues --   -0.37934  -0.36917  -0.36459  -0.35455
 Alpha virt. eigenvalues --    0.04257   0.05811   0.10741   0.12201   0.15807
 Alpha virt. eigenvalues --    0.17364   0.20921   0.22405   0.26860   0.27704
 Alpha virt. eigenvalues --    0.28335   0.29209   0.30505   0.31841   0.32107

 Mulliken charges:
               1
     1  C   -0.172112
     2  C   -0.220373
     3  C   -0.171617
     4  C    0.158007
     5  C   -0.172835
     6  C   -0.218843
     7  H    0.227224
     8  H    0.237229
     9  H    0.273886
    10  H    0.272496
    11  H    0.220330
    12  N    0.488249
    13  O   -0.463041
    14  O   -0.462395
    15  C   -0.169590
    16  C   -0.218344
    17  C   -0.170479
    18  C    0.156767
    19  C   -0.171226
    20  C   -0.218383
    21  H    0.228245
    22  H    0.226540
    23  H    0.277693
    24  H    0.274259
    25  H    0.225117
    26  N    0.486479
    27  O   -0.467439
    28  O   -0.455844
 Sum of Mulliken charges =  -0.00000

 Dipole moment (field-independent basis, Debye):
    X=              6.6600    Y=             -2.5248    Z=             -2.8914  Tot=              7.6871
 Quadrupole moment (field-independent basis, Debye-Ang):
   XX=            -90.5273   YY=           -104.0797   ZZ=           -105.9838
   XY=             28.8702   XZ=             -8.2893   YZ=              4.5022

 Normal termination of Gaussian 16 at Thu May  6 18:04:39 2021.
