 Gaussian 16, Revision A.03,
 Gaussian 16:  EM64L-G16RevA.03 25-Dec-2016

 -------------
 #p 6-31g* mp2
 -------------

 ------------------------------------------------------
 Input file generated by CHIRIPA (05-May-2021 14:57:21)
 ------------------------------------------------------
 Symbolic Z-matrix:
 Charge =  0 Multiplicity = 1

                         Standard orientation:
 ---------------------------------------------------------------------
 Center     Atomic      Atomic             Coordinates (Angstroms)
 Number     Number       Type             X           Y           Z
 ---------------------------------------------------------------------
      1          6           0        0.782163    2.911631   -0.348444
      2          6           0        1.685850    2.631513    0.681800
      3          6           0        2.329338    1.391930    0.744300
      4          6           0        2.044330    0.451467   -0.244431
      5          6           0        1.148992    0.700632   -1.283459
      6          6           0        0.517086    1.946997   -1.326062
      7          1           0        0.286784    3.877203   -0.389268
      8          1           0        1.893646    3.378752    1.442392
      9          1           0        3.033380    1.148668    1.530790
     10          1           0        0.962225   -0.064355   -2.027321
     11          1           0       -0.184265    2.161773   -2.127326
     12          7           0        2.719432   -0.864413   -0.188797
     13          8           0        2.451138   -1.675992   -1.071971
     14          8           0        3.504087   -1.059306    0.736929
     15          6           0       -0.463003   -2.714639    0.385904
     16          6           0       -0.423823   -1.757495    1.405149
     17          6           0       -1.233933   -0.619813    1.342306
     18          6           0       -2.075185   -0.470512    0.240809
     19          6           0       -2.136857   -1.406373   -0.790525
     20          6           0       -1.317888   -2.536337   -0.706754
     21          1           0        0.169751   -3.595420    0.442850
     22          1           0        0.239122   -1.893344    2.254911
     23          1           0       -1.223574    0.136851    2.117399
     24          1           0       -2.807936   -1.243326   -1.625083
     25          1           0       -1.350409   -3.278024   -1.499778
     26          7           0       -2.937501    0.729817    0.163203
     27          8           0       -3.670014    0.838028   -0.817793
     28          8           0       -2.864544    1.539693    1.084839
 ---------------------------------------------------------------------

 SCF Done:  E(RHF) =  -868.340065105     A.U. after   16 cycles
 E2 =    -0.2605297559D+01 EUMP2 =    -0.87094536266322D+03

 The electronic state is 1-A.
 Alpha  occ. eigenvalues --  -20.61246 -20.61240 -20.60994 -20.60988 -15.86249
 Alpha  occ. eigenvalues --  -15.86033 -11.31270 -11.31087 -11.27867 -11.27798
 Alpha  occ. eigenvalues --  -11.27708 -11.27675 -11.27447 -11.27226 -11.26760
 Alpha  occ. eigenvalues --  -11.26684 -11.26543 -11.26496  -1.60312  -1.60077
 Alpha  occ. eigenvalues --   -1.39878  -1.39638  -1.19468  -1.19238  -1.08871
 Alpha  occ. eigenvalues --   -1.08665  -1.04800  -1.04642  -0.95764  -0.95555
 Alpha  occ. eigenvalues --   -0.86192  -0.86019  -0.82624  -0.82412  -0.77725
 Alpha  occ. eigenvalues --   -0.77526  -0.72509  -0.72262  -0.71669  -0.71396
 Alpha  occ. eigenvalues --   -0.70497  -0.70260  -0.65081  -0.64896  -0.64774
 Alpha  occ. eigenvalues --   -0.64594  -0.62156  -0.61993  -0.55243  -0.55010
 Alpha  occ. eigenvalues --   -0.53784  -0.52878  -0.52696  -0.52330  -0.49277
 Alpha  occ. eigenvalues --   -0.49230  -0.49033  -0.48988  -0.45371  -0.45116
 Alpha  occ. eigenvalues --   -0.37578  -0.37214  -0.36212  -0.36063
 Alpha virt. eigenvalues --    0.04592   0.05175   0.11234   0.11376   0.16381
 Alpha virt. eigenvalues --    0.16617   0.21434   0.21813   0.27246   0.27615
 Alpha virt. eigenvalues --    0.28373   0.28699   0.31020   0.31510   0.32300

 Mulliken charges:
               1
     1  C   -0.164045
     2  C   -0.219975
     3  C   -0.176471
     4  C    0.159666
     5  C   -0.166615
     6  C   -0.226300
     7  H    0.232940
     8  H    0.224701
     9  H    0.272796
    10  H    0.273281
    11  H    0.229967
    12  N    0.488826
    13  O   -0.463779
    14  O   -0.464583
    15  C   -0.158053
    16  C   -0.233750
    17  C   -0.166372
    18  C    0.158779
    19  C   -0.178852
    20  C   -0.219659
    21  H    0.237400
    22  H    0.229367
    23  H    0.273001
    24  H    0.272538
    25  H    0.225690
    26  N    0.487913
    27  O   -0.465002
    28  O   -0.463409
 Sum of Mulliken charges =  -0.00000

 Dipole moment (field-independent basis, Debye):
    X=              0.7252    Y=              0.3572    Z=              0.0639  Tot=              0.8109
 Quadrupole moment (field-independent basis, Debye-Ang):
   XX=           -127.7550   YY=            -95.4757   ZZ=            -97.8467
   XY=             17.3736   XZ=              4.4544   YZ=              0.3935

 Normal termination of Gaussian 16 at Thu May  6 04:53:29 2021.
