 Gaussian 16, Revision A.03,
 Gaussian 16:  EM64L-G16RevA.03 25-Dec-2016

 -------------
 #p 6-31g* mp2
 -------------

 ------------------------------------------------------
 Input file generated by CHIRIPA (05-May-2021 14:53:18)
 ------------------------------------------------------
 Symbolic Z-matrix:
 Charge =  0 Multiplicity = 1

                         Standard orientation:
 ---------------------------------------------------------------------
 Center     Atomic      Atomic             Coordinates (Angstroms)
 Number     Number       Type             X           Y           Z
 ---------------------------------------------------------------------
      1          6           0       -3.550926   -0.318433    0.095701
      2          6           0       -3.624979   -1.557124   -0.797690
      3          6           0       -4.269994   -2.753444   -0.097284
      4          1           0       -2.983654   -0.562819    1.004229
      5          1           0       -4.564881   -0.049886    0.423074
      6          1           0       -2.611330   -1.822435   -1.124403
      7          1           0       -4.191978   -1.309707   -1.704284
      8          1           0       -5.291569   -2.512657    0.214175
      9          1           0       -3.701940   -3.028299    0.797351
     10          1           0       -4.312753   -3.627964   -0.753977
     11          6           0       -2.908562    0.885853   -0.590439
     12          6           0       -2.834509    2.124544    0.302952
     13          6           0       -2.189495    3.320864   -0.397454
     14          1           0       -1.894607    0.617306   -0.917812
     15          1           0       -3.475834    1.130239   -1.498966
     16          1           0       -2.267510    1.877127    1.209547
     17          1           0       -3.848158    2.389855    0.629665
     18          1           0       -2.757548    3.595719   -1.292088
     19          1           0       -1.167919    3.080077   -0.708912
     20          1           0       -2.146735    4.195384    0.259240
     21          6           0        4.879560   -0.085297   -0.698412
     22          6           0        4.192579    1.083552   -0.354362
     23          6           0        2.886647    1.019958    0.140657
     24          6           0        2.295437   -0.234830    0.279460
     25          6           0        2.953796   -1.417312   -0.054593
     26          6           0        4.259071   -1.329804   -0.547695
     27          1           0        5.893785   -0.026609   -1.082210
     28          1           0        4.671963    2.051426   -0.470360
     29          1           0        2.331782    1.909023    0.414716
     30          1           0        2.449610   -2.367658    0.072110
     31          1           0        4.790175   -2.239206   -0.814082
     32          7           0        0.913253   -0.314812    0.802500
     33          8           0        0.414612   -1.432506    0.915439
     34          8           0        0.354710    0.741706    1.089615
 ---------------------------------------------------------------------

 SCF Done:  E(RHF) =  -669.536873276     A.U. after   15 cycles
 E2 =    -0.2092621656D+01 EUMP2 =    -0.67162949493260D+03

 The electronic state is 1-A.
 Alpha  occ. eigenvalues --  -20.61202 -20.61194 -15.86195 -11.31427 -11.27976
 Alpha  occ. eigenvalues --  -11.27973 -11.27698 -11.26962 -11.26952 -11.20276
 Alpha  occ. eigenvalues --  -11.19961 -11.19920 -11.19873 -11.19838 -11.19763
 Alpha  occ. eigenvalues --   -1.60238  -1.39797  -1.19585  -1.09008  -1.06909
 Alpha  occ. eigenvalues --   -1.04966  -1.02138  -0.95863  -0.94633  -0.86371
 Alpha  occ. eigenvalues --   -0.85661  -0.82701  -0.78212  -0.77764  -0.76737
 Alpha  occ. eigenvalues --   -0.72429  -0.71547  -0.70692  -0.65245  -0.64972
 Alpha  occ. eigenvalues --   -0.63477  -0.62313  -0.59493  -0.58019  -0.56260
 Alpha  occ. eigenvalues --   -0.55474  -0.53906  -0.53301  -0.53056  -0.51387
 Alpha  occ. eigenvalues --   -0.51088  -0.49248  -0.49169  -0.48495  -0.46563
 Alpha  occ. eigenvalues --   -0.45271  -0.45123  -0.44279  -0.44111  -0.42376
 Alpha  occ. eigenvalues --   -0.37558  -0.36561
 Alpha virt. eigenvalues --    0.04721   0.11093   0.16215   0.21152   0.24397
 Alpha virt. eigenvalues --    0.25443   0.27086   0.27652   0.28554   0.28950
 Alpha virt. eigenvalues --    0.29250   0.30814   0.31804   0.32852   0.33107

 Mulliken charges:
               1
     1  C   -0.300844
     2  C   -0.298036
     3  C   -0.475721
     4  H    0.166192
     5  H    0.141896
     6  H    0.154770
     7  H    0.144890
     8  H    0.151118
     9  H    0.159829
    10  H    0.154381
    11  C   -0.293286
    12  C   -0.301204
    13  C   -0.474646
    14  H    0.150569
    15  H    0.139681
    16  H    0.173560
    17  H    0.142962
    18  H    0.148236
    19  H    0.153733
    20  H    0.154281
    21  C   -0.170211
    22  C   -0.218544
    23  C   -0.170876
    24  C    0.157709
    25  C   -0.170340
    26  C   -0.218616
    27  H    0.226576
    28  H    0.224501
    29  H    0.276397
    30  H    0.276087
    31  H    0.224335
    32  N    0.490764
    33  O   -0.459051
    34  O   -0.461094
 Sum of Mulliken charges =  -0.00000

 Dipole moment (field-independent basis, Debye):
    X=              5.3338    Y=              0.1564    Z=             -1.6103  Tot=              5.5738
 Quadrupole moment (field-independent basis, Debye-Ang):
   XX=            -73.6907   YY=            -91.6188   ZZ=            -96.7866
   XY=             -1.1198   XZ=             -3.2937   YZ=              1.3598

 Normal termination of Gaussian 16 at Wed May  5 17:18:11 2021.
