 Gaussian 16, Revision A.03,
 Gaussian 16:  EM64L-G16RevA.03 25-Dec-2016

 -------------
 #p 6-31g* mp2
 -------------

 ------------------------------------------------------
 Input file generated by CHIRIPA (05-May-2021 14:53:15)
 ------------------------------------------------------
 Symbolic Z-matrix:
 Charge =  0 Multiplicity = 1

                         Standard orientation:
 ---------------------------------------------------------------------
 Center     Atomic      Atomic             Coordinates (Angstroms)
 Number     Number       Type             X           Y           Z
 ---------------------------------------------------------------------
      1          6           0        3.672482    0.177930    0.626193
      2          6           0        3.008072   -0.676827    1.705977
      3          6           0        1.822336    0.024837    2.368920
      4          1           0        4.007138    1.124867    1.071457
      5          1           0        2.925764    0.437972   -0.136818
      6          1           0        3.756150   -0.936335    2.466011
      7          1           0        2.675130   -1.621920    1.258132
      8          1           0        1.055465    0.269483    1.626857
      9          1           0        2.142627    0.958962    2.841598
     10          1           0        1.362293   -0.603982    3.137560
     11          6           0        4.859526   -0.509913   -0.045765
     12          6           0        5.523936    0.344843   -1.125550
     13          6           0        6.709672   -0.356820   -1.788493
     14          1           0        5.606244   -0.769955    0.717245
     15          1           0        4.524870   -1.456850   -0.491030
     16          1           0        5.856878    1.289936   -0.677705
     17          1           0        4.775858    0.604352   -1.885583
     18          1           0        6.389381   -1.290946   -2.261171
     19          1           0        7.476543   -0.601466   -1.046429
     20          1           0        7.169714    0.271999   -2.557133
     21          6           0       -4.845122   -1.882113   -0.404315
     22          6           0       -3.468488   -2.054748   -0.226556
     23          6           0       -2.621058   -0.947283   -0.126885
     24          6           0       -3.186611    0.324174   -0.209561
     25          6           0       -4.554148    0.528768   -0.386411
     26          6           0       -5.382610   -0.593179   -0.483535
     27          1           0       -5.496059   -2.748043   -0.480751
     28          1           0       -3.048290   -3.054572   -0.164686
     29          1           0       -1.551751   -1.052171    0.010954
     30          1           0       -4.943747    1.537858   -0.444435
     31          1           0       -6.451349   -0.456094   -0.621561
     32          7           0       -2.299515    1.504262   -0.105392
     33          8           0       -2.822485    2.613936   -0.181313
     34          8           0       -1.098035    1.297197    0.050202
 ---------------------------------------------------------------------

 SCF Done:  E(RHF) =  -669.536112463     A.U. after   15 cycles
 E2 =    -0.2090902052D+01 EUMP2 =    -0.67162701451543D+03

 The electronic state is 1-A.
 Alpha  occ. eigenvalues --  -20.60927 -20.60915 -15.85965 -11.31279 -11.27845
 Alpha  occ. eigenvalues --  -11.27840 -11.27582 -11.26852 -11.26842 -11.21149
 Alpha  occ. eigenvalues --  -11.20991 -11.20895 -11.20724 -11.20690 -11.20135
 Alpha  occ. eigenvalues --   -1.59985  -1.39543  -1.19449  -1.08853  -1.07863
 Alpha  occ. eigenvalues --   -1.04846  -1.02955  -0.95699  -0.95384  -0.86398
 Alpha  occ. eigenvalues --   -0.86246  -0.82533  -0.79026  -0.77674  -0.77570
 Alpha  occ. eigenvalues --   -0.72193  -0.71299  -0.70559  -0.65108  -0.64850
 Alpha  occ. eigenvalues --   -0.64498  -0.62195  -0.60354  -0.58779  -0.56996
 Alpha  occ. eigenvalues --   -0.55351  -0.54659  -0.53177  -0.52938  -0.52103
 Alpha  occ. eigenvalues --   -0.51788  -0.49337  -0.48938  -0.48910  -0.47325
 Alpha  occ. eigenvalues --   -0.46066  -0.45215  -0.45135  -0.44901  -0.43218
 Alpha  occ. eigenvalues --   -0.37428  -0.36447
 Alpha virt. eigenvalues --    0.04931   0.11207   0.16417   0.21090   0.23310
 Alpha virt. eigenvalues --    0.24547   0.26767   0.27371   0.27720   0.28188
 Alpha virt. eigenvalues --    0.29027   0.30627   0.31682   0.32236   0.32366

 Mulliken charges:
               1
     1  C   -0.299234
     2  C   -0.298188
     3  C   -0.487497
     4  H    0.150615
     5  H    0.156571
     6  H    0.148600
     7  H    0.144512
     8  H    0.178994
     9  H    0.155985
    10  H    0.151856
    11  C   -0.297651
    12  C   -0.299466
    13  C   -0.475327
    14  H    0.147688
    15  H    0.146465
    16  H    0.152517
    17  H    0.153194
    18  H    0.153566
    19  H    0.154218
    20  H    0.159545
    21  C   -0.170576
    22  C   -0.218735
    23  C   -0.170495
    24  C    0.158001
    25  C   -0.170856
    26  C   -0.218572
    27  H    0.225958
    28  H    0.223905
    29  H    0.276078
    30  H    0.275817
    31  H    0.223776
    32  N    0.493540
    33  O   -0.458842
    34  O   -0.465960
 Sum of Mulliken charges =  -0.00000

 Dipole moment (field-independent basis, Debye):
    X=             -3.3522    Y=             -4.0247    Z=             -0.4361  Tot=              5.2560
 Quadrupole moment (field-independent basis, Debye-Ang):
   XX=            -72.8161   YY=            -96.0381   ZZ=            -95.6743
   XY=             10.6916   XZ=              3.1877   YZ=              0.6459

 Normal termination of Gaussian 16 at Thu May  6 18:50:27 2021.
