 Gaussian 16, Revision A.03,
 Gaussian 16:  EM64L-G16RevA.03 25-Dec-2016

 -------------
 #p 6-31g* mp2
 -------------

 ------------------------------------------------------
 Input file generated by CHIRIPA (05-May-2021 14:51:07)
 ------------------------------------------------------
 Symbolic Z-matrix:
 Charge =  0 Multiplicity = 1

                         Standard orientation:
 ---------------------------------------------------------------------
 Center     Atomic      Atomic             Coordinates (Angstroms)
 Number     Number       Type             X           Y           Z
 ---------------------------------------------------------------------
      1          6           0       -3.864957   -0.189710   -0.364720
      2          6           0       -5.191138   -0.072182    0.387222
      3          6           0       -6.359141    0.295977   -0.528213
      4          1           0       -3.651213    0.762482   -0.869288
      5          1           0       -3.965351   -0.946560   -1.154970
      6          1           0       -5.087852    0.683233    1.176712
      7          1           0       -5.401655   -1.024703    0.890215
      8          1           0       -6.490765   -0.460989   -1.308135
      9          1           0       -6.175179    1.256652   -1.020010
     10          1           0       -7.297303    0.374724    0.029919
     11          6           0       -2.687809   -0.557237    0.536931
     12          6           0       -1.361629   -0.674765   -0.215011
     13          6           0       -0.193625   -1.042925    0.700423
     14          1           0       -2.587416    0.199613    1.327180
     15          1           0       -2.901554   -1.509430    1.041498
     16          1           0       -1.151111    0.277756   -0.718005
     17          1           0       -1.464915   -1.430181   -1.004502
     18          1           0       -0.377588   -2.003599    1.192220
     19          1           0       -0.062001   -0.285958    1.480345
     20          1           0        0.744537   -1.121672    0.142291
     21          6           0        3.548234   -0.255517    0.251386
     22          6           0        3.746465   -1.424339   -0.714299
     23          6           0        4.290814   -2.675469   -0.024263
     24          1           0        4.506318   -0.021549    0.735411
     25          1           0        2.860587   -0.562629    1.051522
     26          1           0        4.432450   -1.114666   -1.513138
     27          1           0        2.787839   -1.655427   -1.196223
     28          1           0        3.605474   -3.011596    0.760548
     29          1           0        5.259429   -2.467763    0.441833
     30          1           0        4.424907   -3.498631   -0.732983
     31          6           0        3.004533    1.002465   -0.423595
     32          6           0        2.806302    2.171286    0.542088
     33          6           0        2.261952    3.422416   -0.147948
     34          1           0        3.692180    1.309577   -1.223732
     35          1           0        2.046449    0.768496   -0.907621
     36          1           0        3.764927    2.402374    1.024014
     37          1           0        2.120317    1.861613    1.340928
     38          1           0        1.293338    3.214711   -0.614044
     39          1           0        2.947293    3.758543   -0.932758
     40          1           0        2.127859    4.245579    0.560773
 ---------------------------------------------------------------------

 SCF Done:  E(RHF) =  -470.732245108     A.U. after   11 cycles
 E2 =    -0.1584373001D+01 EUMP2 =    -0.47231661810824D+03

 The electronic state is 1-A.
 Alpha  occ. eigenvalues --  -11.21681 -11.21628 -11.21602 -11.21581 -11.21450
 Alpha  occ. eigenvalues --  -11.21388 -11.21350 -11.21276 -11.21109 -11.21090
 Alpha  occ. eigenvalues --  -11.21073 -11.21053  -1.08500  -1.08396  -1.03586
 Alpha  occ. eigenvalues --   -1.03516  -0.96079  -0.95921  -0.87077  -0.86964
 Alpha  occ. eigenvalues --   -0.79658  -0.79580  -0.78305  -0.78203  -0.65254
 Alpha  occ. eigenvalues --   -0.65042  -0.61071  -0.60870  -0.59361  -0.59315
 Alpha  occ. eigenvalues --   -0.57652  -0.57561  -0.55410  -0.55166  -0.52724
 Alpha  occ. eigenvalues --   -0.52649  -0.52445  -0.52361  -0.49982  -0.49887
 Alpha  occ. eigenvalues --   -0.47992  -0.47868  -0.46708  -0.46612  -0.45857
 Alpha  occ. eigenvalues --   -0.45795  -0.45733  -0.45605  -0.43804  -0.43733
 Alpha virt. eigenvalues --    0.20210   0.23028   0.23612   0.24967   0.25563
 Alpha virt. eigenvalues --    0.26252   0.26919   0.27685   0.28138   0.29722
 Alpha virt. eigenvalues --    0.30203   0.30874   0.31558   0.31991   0.32234

 Mulliken charges:
               1
     1  C   -0.298315
     2  C   -0.299683
     3  C   -0.475739
     4  H    0.149713
     5  H    0.149619
     6  H    0.152011
     7  H    0.151990
     8  H    0.155224
     9  H    0.155266
    10  H    0.160359
    11  C   -0.298673
    12  C   -0.300434
    13  C   -0.485623
    14  H    0.149669
    15  H    0.149921
    16  H    0.151871
    17  H    0.152149
    18  H    0.155234
    19  H    0.155365
    20  H    0.171558
    21  C   -0.305459
    22  C   -0.302258
    23  C   -0.475684
    24  H    0.150912
    25  H    0.155292
    26  H    0.152538
    27  H    0.152009
    28  H    0.155818
    29  H    0.155320
    30  H    0.160080
    31  C   -0.299918
    32  C   -0.300545
    33  C   -0.475694
    34  H    0.149548
    35  H    0.151666
    36  H    0.151944
    37  H    0.152990
    38  H    0.154619
    39  H    0.155281
    40  H    0.160060
 Sum of Mulliken charges =  -0.00000

 Dipole moment (field-independent basis, Debye):
    X=             -0.0078    Y=             -0.0154    Z=              0.0132  Tot=              0.0217
 Quadrupole moment (field-independent basis, Debye-Ang):
   XX=            -84.8760   YY=            -84.7497   ZZ=            -85.1549
   XY=              1.0961   XZ=             -0.7372   YZ=              0.5911

 Normal termination of Gaussian 16 at Wed May  5 22:54:13 2021.
