 Gaussian 16, Revision A.03,
 Gaussian 16:  EM64L-G16RevA.03 25-Dec-2016

 -------------
 #p 6-31g* mp2
 -------------

 ------------------------------------------------------
 Input file generated by CHIRIPA (05-May-2021 14:55:22)
 ------------------------------------------------------
 Symbolic Z-matrix:
 Charge =  0 Multiplicity = 1

                         Standard orientation:
 ---------------------------------------------------------------------
 Center     Atomic      Atomic             Coordinates (Angstroms)
 Number     Number       Type             X           Y           Z
 ---------------------------------------------------------------------
      1          6           0       -3.020799   -2.295363   -0.335141
      2          6           0       -4.394795   -2.042908   -0.405306
      3          6           0       -4.885354   -0.740904   -0.268610
      4          6           0       -3.969500    0.289510   -0.061854
      5          6           0       -2.594896    0.069993    0.012753
      6          6           0       -2.126811   -1.239967   -0.126703
      7          1           0       -2.648450   -3.309881   -0.442401
      8          1           0       -5.091404   -2.860590   -0.567097
      9          1           0       -5.944063   -0.517217   -0.318783
     10          1           0       -1.924993    0.905665    0.174927
     11          1           0       -1.059224   -1.433067   -0.071777
     12          7           0       -4.476937    1.672095    0.084321
     13          8           0       -3.649374    2.562528    0.265720
     14          8           0       -5.692620    1.839152    0.014725
     15          6           0        5.429191    0.499730   -0.093298
     16          6           0        6.900136    0.100211   -0.214504
     17          6           0        7.798389    1.268520   -0.621923
     18          1           0        5.086914    0.909839   -1.053299
     19          1           0        5.335915    1.309486    0.643582
     20          1           0        6.990437   -0.709496   -0.949922
     21          1           0        7.238900   -0.309172    0.745840
     22          1           0        7.737932    2.076085    0.114816
     23          1           0        7.488058    1.673486   -1.590581
     24          1           0        8.845555    0.960651   -0.702674
     25          6           0        4.518631   -0.657539    0.313317
     26          6           0        3.047686   -0.258018    0.434524
     27          6           0        2.149434   -1.426327    0.841943
     28          1           0        4.611907   -1.467293   -0.423562
     29          1           0        4.860910   -1.067647    1.273318
     30          1           0        2.708924    0.151364   -0.525821
     31          1           0        2.957387    0.551688    1.169942
     32          1           0        2.459764   -1.831294    1.810601
     33          1           0        2.209890   -2.233892    0.105203
     34          1           0        1.102268   -1.118459    0.922694
 ---------------------------------------------------------------------

 SCF Done:  E(RHF) =  -669.535557902     A.U. after   15 cycles
 E2 =    -0.2090664972D+01 EUMP2 =    -0.67162622287411D+03

 The electronic state is 1-A.
 Alpha  occ. eigenvalues --  -20.60731 -20.60726 -15.85785 -11.31145 -11.27715
 Alpha  occ. eigenvalues --  -11.27706 -11.27450 -11.26730 -11.26687 -11.22290
 Alpha  occ. eigenvalues --  -11.22074 -11.21910 -11.21900 -11.21743 -11.21298
 Alpha  occ. eigenvalues --   -1.59807  -1.39361  -1.19315  -1.08918  -1.08710
 Alpha  occ. eigenvalues --   -1.04719  -1.04063  -0.96532  -0.95547  -0.87556
 Alpha  occ. eigenvalues --   -0.86114  -0.82381  -0.80128  -0.78691  -0.77431
 Alpha  occ. eigenvalues --   -0.72003  -0.71130  -0.70424  -0.65541  -0.64967
 Alpha  occ. eigenvalues --   -0.64747  -0.62111  -0.61446  -0.59922  -0.58123
 Alpha  occ. eigenvalues --   -0.55805  -0.55220  -0.53374  -0.53047  -0.52989
 Alpha  occ. eigenvalues --   -0.52641  -0.50453  -0.48762  -0.48758  -0.48439
 Alpha  occ. eigenvalues --   -0.47139  -0.46243  -0.46141  -0.44768  -0.44308
 Alpha  occ. eigenvalues --   -0.37296  -0.36321
 Alpha virt. eigenvalues --    0.05103   0.11321   0.16580   0.20050   0.22574
 Alpha virt. eigenvalues --    0.23740   0.25963   0.26223   0.27038   0.28298
 Alpha virt. eigenvalues --    0.28570   0.30266   0.30895   0.31564   0.32383

 Mulliken charges:
               1
     1  C   -0.172083
     2  C   -0.218460
     3  C   -0.171176
     4  C    0.158613
     5  C   -0.173111
     6  C   -0.225784
     7  H    0.226151
     8  H    0.223200
     9  H    0.275449
    10  H    0.275191
    11  H    0.233664
    12  N    0.488120
    13  O   -0.460496
    14  O   -0.460642
    15  C   -0.298944
    16  C   -0.300040
    17  C   -0.476038
    18  H    0.150625
    19  H    0.151212
    20  H    0.151905
    21  H    0.152378
    22  H    0.156137
    23  H    0.155817
    24  H    0.161086
    25  C   -0.299039
    26  C   -0.299947
    27  C   -0.481408
    28  H    0.149595
    29  H    0.150953
    30  H    0.152480
    31  H    0.155698
    32  H    0.160808
    33  H    0.154646
    34  H    0.153440
 Sum of Mulliken charges =  -0.00000

 Dipole moment (field-independent basis, Debye):
    X=              1.9967    Y=             -4.8642    Z=             -0.4993  Tot=              5.2817
 Quadrupole moment (field-independent basis, Debye-Ang):
   XX=           -104.4124   YY=            -98.1018   ZZ=            -94.5830
   XY=             21.3743   XZ=              3.0520   YZ=              0.8316

 Normal termination of Gaussian 16 at Thu May  6 04:39:21 2021.
