 Gaussian 16, Revision A.03,
 Gaussian 16:  EM64L-G16RevA.03 25-Dec-2016

 -------------
 #p 6-31g* mp2
 -------------

 ------------------------------------------------------
 Input file generated by CHIRIPA (05-May-2021 14:51:14)
 ------------------------------------------------------
 Symbolic Z-matrix:
 Charge =  0 Multiplicity = 1

                         Standard orientation:
 ---------------------------------------------------------------------
 Center     Atomic      Atomic             Coordinates (Angstroms)
 Number     Number       Type             X           Y           Z
 ---------------------------------------------------------------------
      1          6           0        1.752997   -0.447013    0.916961
      2          6           0        1.480142   -1.842160    1.480077
      3          6           0        0.424388   -1.837176    2.586039
      4          1           0        2.077429    0.213648    1.732569
      5          1           0        0.815322   -0.026315    0.528150
      6          1           0        2.418323   -2.260659    1.866458
      7          1           0        1.156505   -2.499626    0.663000
      8          1           0       -0.525702   -1.444180    2.209895
      9          1           0        0.743285   -1.203856    3.420191
     10          1           0        0.244906   -2.844611    2.974267
     11          6           0        2.806188   -0.435653   -0.189559
     12          6           0        3.079043    0.959494   -0.752675
     13          6           0        4.134797    0.954511   -1.858637
     14          1           0        3.743863   -0.856351    0.199252
     15          1           0        2.481756   -1.096313   -1.005167
     16          1           0        3.402679    1.616960    0.064402
     17          1           0        2.140862    1.377994   -1.139056
     18          1           0        3.815900    0.321190   -2.692789
     19          1           0        5.084887    0.561514   -1.482494
     20          1           0        4.314279    1.961945   -2.246865
     21          6           0       -2.432769    0.942736    0.191785
     22          6           0       -1.616430    2.231415    0.087471
     23          6           0       -1.934061    3.224560    1.205758
     24          1           0       -3.502693    1.191235    0.170472
     25          1           0       -2.240353    0.472910    1.166278
     26          1           0       -1.809267    2.697952   -0.887093
     27          1           0       -0.548324    1.979802    0.108841
     28          1           0       -1.724150    2.782189    2.184964
     29          1           0       -2.992257    3.504418    1.183372
     30          1           0       -1.339358    4.138549    1.111870
     31          6           0       -2.126417   -0.060069   -0.919187
     32          6           0       -2.942754   -1.348750   -0.814872
     33          6           0       -2.625124   -2.341895   -1.933160
     34          1           0       -2.318832    0.409756   -1.893680
     35          1           0       -1.056492   -0.308569   -0.897874
     36          1           0       -4.010860   -1.097136   -0.836243
     37          1           0       -2.749918   -1.815286    0.159690
     38          1           0       -1.566927   -2.621752   -1.910773
     39          1           0       -2.835035   -1.899523   -2.912366
     40          1           0       -3.219827   -3.255883   -1.839271
 ---------------------------------------------------------------------

 SCF Done:  E(RHF) =  -470.732781076     A.U. after   11 cycles
 E2 =    -0.1585215553D+01 EUMP2 =    -0.47231799662956D+03

 The electronic state is 1-A.
 Alpha  occ. eigenvalues --  -11.21676 -11.21656 -11.21638 -11.21602 -11.21456
 Alpha  occ. eigenvalues --  -11.21449 -11.21395 -11.21388 -11.21155 -11.21124
 Alpha  occ. eigenvalues --  -11.21092 -11.21064  -1.08548  -1.08430  -1.03586
 Alpha  occ. eigenvalues --   -1.03560  -0.96038  -0.96014  -0.87053  -0.87030
 Alpha  occ. eigenvalues --   -0.79651  -0.79628  -0.78441  -0.78184  -0.65552
 Alpha  occ. eigenvalues --   -0.64738  -0.61030  -0.60906  -0.59401  -0.59379
 Alpha  occ. eigenvalues --   -0.57677  -0.57599  -0.55373  -0.55274  -0.52734
 Alpha  occ. eigenvalues --   -0.52702  -0.52464  -0.52436  -0.50020  -0.49946
 Alpha  occ. eigenvalues --   -0.47979  -0.47945  -0.46722  -0.46705  -0.46390
 Alpha  occ. eigenvalues --   -0.45816  -0.45740  -0.45063  -0.43838  -0.43814
 Alpha virt. eigenvalues --    0.18827   0.22396   0.23043   0.24951   0.25291
 Alpha virt. eigenvalues --    0.25650   0.26855   0.27669   0.28876   0.30250
 Alpha virt. eigenvalues --    0.31187   0.31542   0.31635   0.31797   0.32424

 Mulliken charges:
               1
     1  C   -0.310646
     2  C   -0.299160
     3  C   -0.480500
     4  H    0.149843
     5  H    0.161395
     6  H    0.152642
     7  H    0.151540
     8  H    0.158388
     9  H    0.155560
    10  H    0.160869
    11  C   -0.297955
    12  C   -0.302125
    13  C   -0.475717
    14  H    0.149963
    15  H    0.149313
    16  H    0.152010
    17  H    0.153979
    18  H    0.155402
    19  H    0.155298
    20  H    0.160488
    21  C   -0.301757
    22  C   -0.306281
    23  C   -0.475450
    24  H    0.150501
    25  H    0.152230
    26  H    0.151808
    27  H    0.157982
    28  H    0.155688
    29  H    0.155052
    30  H    0.160364
    31  C   -0.303770
    32  C   -0.300997
    33  C   -0.475693
    34  H    0.150108
    35  H    0.153263
    36  H    0.152464
    37  H    0.153197
    38  H    0.154645
    39  H    0.155378
    40  H    0.160678
 Sum of Mulliken charges =  -0.00000

 Dipole moment (field-independent basis, Debye):
    X=              0.0035    Y=              0.0070    Z=              0.0019  Tot=              0.0080
 Quadrupole moment (field-independent basis, Debye-Ang):
   XX=            -84.1977   YY=            -85.2856   ZZ=            -85.1425
   XY=             -0.2004   XZ=              1.6415   YZ=             -0.6228

 Normal termination of Gaussian 16 at Wed May  5 15:22:28 2021.
