 Gaussian 16, Revision A.03,
 Gaussian 16:  EM64L-G16RevA.03 25-Dec-2016

 -------------
 #p 6-31g* mp2
 -------------

 ------------------------------------------------------
 Input file generated by CHIRIPA (05-May-2021 14:57:26)
 ------------------------------------------------------
 Symbolic Z-matrix:
 Charge =  0 Multiplicity = 1

                         Standard orientation:
 ---------------------------------------------------------------------
 Center     Atomic      Atomic             Coordinates (Angstroms)
 Number     Number       Type             X           Y           Z
 ---------------------------------------------------------------------
      1          6           0        2.232779   -1.975466    1.195112
      2          6           0        1.605234   -0.969260    0.453318
      3          6           0        2.360051    0.028263   -0.170979
      4          6           0        3.746574   -0.011101   -0.032073
      5          6           0        4.401092   -1.000346    0.700246
      6          6           0        3.626249   -1.987776    1.315995
      7          1           0        1.638641   -2.746446    1.676761
      8          1           0        0.523217   -0.957193    0.357731
      9          1           0        1.900063    0.818938   -0.751205
     10          1           0        5.481480   -0.985964    0.777534
     11          1           0        4.116316   -2.767983    1.891457
     12          7           0        4.556266    1.039590   -0.688464
     13          8           0        5.776293    0.982613   -0.550893
     14          8           0        3.955544    1.900203   -1.328085
     15          6           0       -3.175251    2.436941    0.972532
     16          6           0       -4.448958    1.864147    1.050626
     17          6           0       -4.702996    0.616490    0.473246
     18          6           0       -3.655460   -0.033513   -0.177487
     19          6           0       -2.375715    0.511088   -0.272120
     20          6           0       -2.144512    1.759778    0.312572
     21          1           0       -2.986778    3.406552    1.423895
     22          1           0       -5.251347    2.387759    1.562530
     23          1           0       -5.679599    0.150031    0.518854
     24          1           0       -1.595916   -0.034920   -0.789041
     25          1           0       -1.154344    2.202205    0.250367
     26          7           0       -3.912311   -1.354898   -0.792604
     27          8           0       -2.972492   -1.907252   -1.360303
     28          8           0       -5.048586   -1.813226   -0.695384
 ---------------------------------------------------------------------

 SCF Done:  E(RHF) =  -868.337593564     A.U. after   16 cycles
 E2 =    -0.2599714507D+01 EUMP2 =    -0.87093730807080D+03

 The electronic state is 1-A.
 Alpha  occ. eigenvalues --  -20.61428 -20.61403 -20.61041 -20.61027 -15.86471
 Alpha  occ. eigenvalues --  -15.86091 -11.31873 -11.31457 -11.28512 -11.28368
 Alpha  occ. eigenvalues --  -11.28093 -11.28089 -11.27986 -11.27697 -11.27460
 Alpha  occ. eigenvalues --  -11.27378 -11.27054 -11.26975  -1.60492  -1.60112
 Alpha  occ. eigenvalues --   -1.40047  -1.39667  -1.20023  -1.19617  -1.09392
 Alpha  occ. eigenvalues --   -1.08994  -1.05442  -1.05036  -0.96235  -0.95838
 Alpha  occ. eigenvalues --   -0.86824  -0.86417  -0.83076  -0.82685  -0.78149
 Alpha  occ. eigenvalues --   -0.77738  -0.72684  -0.72309  -0.71818  -0.71434
 Alpha  occ. eigenvalues --   -0.71116  -0.70700  -0.65672  -0.65460  -0.65270
 Alpha  occ. eigenvalues --   -0.65013  -0.62881  -0.62309  -0.55884  -0.55474
 Alpha  occ. eigenvalues --   -0.53755  -0.53568  -0.53336  -0.53068  -0.49452
 Alpha  occ. eigenvalues --   -0.49436  -0.49071  -0.49060  -0.45446  -0.45074
 Alpha  occ. eigenvalues --   -0.37961  -0.37556  -0.37043  -0.36634
 Alpha virt. eigenvalues --    0.04369   0.04805   0.10561   0.11026   0.15883
 Alpha virt. eigenvalues --    0.16310   0.18493   0.22082   0.24705   0.26663
 Alpha virt. eigenvalues --    0.28120   0.29161   0.30315   0.31062   0.32459

 Mulliken charges:
               1
     1  C   -0.170611
     2  C   -0.220201
     3  C   -0.173304
     4  C    0.159159
     5  C   -0.170597
     6  C   -0.218187
     7  H    0.230313
     8  H    0.224583
     9  H    0.268532
    10  H    0.276509
    11  H    0.225204
    12  N    0.488258
    13  O   -0.458882
    14  O   -0.462432
    15  C   -0.170493
    16  C   -0.217512
    17  C   -0.170570
    18  C    0.160395
    19  C   -0.179249
    20  C   -0.217942
    21  H    0.229522
    22  H    0.226377
    23  H    0.277509
    24  H    0.271017
    25  H    0.224986
    26  N    0.487863
    27  O   -0.463014
    28  O   -0.457233
 Sum of Mulliken charges =  -0.00000

 Dipole moment (field-independent basis, Debye):
    X=             -2.0831    Y=              0.9424    Z=              4.6168  Tot=              5.1519
 Quadrupole moment (field-independent basis, Debye-Ang):
   XX=           -123.5894   YY=           -104.8225   ZZ=           -106.0292
   XY=            -34.0469   XZ=              0.6524   YZ=             -1.5870

 Normal termination of Gaussian 16 at Thu May  6 21:21:11 2021.
