 Gaussian 16, Revision A.03,
 Gaussian 16:  EM64L-G16RevA.03 25-Dec-2016

 -------------
 #p 6-31g* mp2
 -------------

 ------------------------------------------------------
 Input file generated by CHIRIPA (05-May-2021 14:57:21)
 ------------------------------------------------------
 Symbolic Z-matrix:
 Charge =  0 Multiplicity = 1

                         Standard orientation:
 ---------------------------------------------------------------------
 Center     Atomic      Atomic             Coordinates (Angstroms)
 Number     Number       Type             X           Y           Z
 ---------------------------------------------------------------------
      1          6           0        0.667542   -1.771925    0.427583
      2          6           0        1.744644   -1.874628    1.314051
      3          6           0        2.922850   -1.157469    1.085885
      4          6           0        2.989913   -0.343380   -0.043740
      5          6           0        1.933978   -0.220074   -0.945454
      6          6           0        0.765475   -0.946431   -0.697357
      7          1           0       -0.243948   -2.332605    0.612569
      8          1           0        1.671410   -2.514944    2.188510
      9          1           0        3.771891   -1.218465    1.755832
     10          1           0        2.036715    0.426384   -1.808562
     11          1           0       -0.069425   -0.864730   -1.387511
     12          7           0        4.232091    0.420713   -0.295838
     13          8           0        4.266070    1.131038   -1.298296
     14          8           0        5.148211    0.294817    0.513798
     15          6           0       -1.540605    2.539972    0.729726
     16          6           0       -1.465490    2.108645   -0.598746
     17          6           0       -2.150929    0.962743   -1.013026
     18          6           0       -2.905508    0.269128   -0.068144
     19          6           0       -3.000080    0.673595    1.262552
     20          6           0       -2.306310    1.822335    1.654504
     21          1           0       -1.004903    3.431239    1.042876
     22          1           0       -0.871602    2.663993   -1.319114
     23          1           0       -2.110190    0.606522   -2.035213
     24          1           0       -3.600196    0.099156    1.957747
     25          1           0       -2.366469    2.154972    2.686870
     26          7           0       -3.635562   -0.945490   -0.494906
     27          8           0       -4.293508   -1.538968    0.356873
     28          8           0       -3.536007   -1.281030   -1.673100
 ---------------------------------------------------------------------

 SCF Done:  E(RHF) =  -868.336888469     A.U. after   16 cycles
 E2 =    -0.2602778285D+01 EUMP2 =    -0.87093966675455D+03

 The electronic state is 1-A.
 Alpha  occ. eigenvalues --  -20.61773 -20.61763 -20.61002 -20.60989 -15.86808
 Alpha  occ. eigenvalues --  -15.86047 -11.32051 -11.31336 -11.28626 -11.28571
 Alpha  occ. eigenvalues --  -11.28211 -11.27885 -11.27849 -11.27533 -11.27511
 Alpha  occ. eigenvalues --  -11.27508 -11.26853 -11.26804  -1.60855  -1.60076
 Alpha  occ. eigenvalues --   -1.40408  -1.39632  -1.20207  -1.19473  -1.09594
 Alpha  occ. eigenvalues --   -1.08872  -1.05601  -1.04861  -0.96460  -0.95727
 Alpha  occ. eigenvalues --   -0.86997  -0.86257  -0.83293  -0.82569  -0.78390
 Alpha  occ. eigenvalues --   -0.77646  -0.73010  -0.72277  -0.72200  -0.71402
 Alpha  occ. eigenvalues --   -0.71282  -0.70548  -0.65838  -0.65590  -0.65119
 Alpha  occ. eigenvalues --   -0.64869  -0.62970  -0.62213  -0.56018  -0.55324
 Alpha  occ. eigenvalues --   -0.54144  -0.53677  -0.53078  -0.52804  -0.49792
 Alpha  occ. eigenvalues --   -0.49760  -0.49029  -0.49012  -0.45825  -0.45056
 Alpha  occ. eigenvalues --   -0.38168  -0.37553  -0.37277  -0.36123
 Alpha virt. eigenvalues --    0.04081   0.04899   0.10217   0.11344   0.15573
 Alpha virt. eigenvalues --    0.16531   0.20083   0.21699   0.25624   0.27005
 Alpha virt. eigenvalues --    0.27987   0.28642   0.29772   0.30830   0.31972

 Mulliken charges:
               1
     1  C   -0.173906
     2  C   -0.218791
     3  C   -0.172598
     4  C    0.158266
     5  C   -0.175491
     6  C   -0.211762
     7  H    0.230595
     8  H    0.224265
     9  H    0.275005
    10  H    0.270416
    11  H    0.224996
    12  N    0.487915
    13  O   -0.462724
    14  O   -0.459966
    15  C   -0.168340
    16  C   -0.213565
    17  C   -0.183898
    18  C    0.158762
    19  C   -0.172541
    20  C   -0.216851
    21  H    0.231331
    22  H    0.227178
    23  H    0.273258
    24  H    0.276368
    25  H    0.226736
    26  N    0.485862
    27  O   -0.458057
    28  O   -0.462464
 Sum of Mulliken charges =  -0.00000

 Dipole moment (field-independent basis, Debye):
    X=             -1.9509    Y=              1.7233    Z=              2.5804  Tot=              3.6652
 Quadrupole moment (field-independent basis, Debye-Ang):
   XX=           -146.2428   YY=           -100.5166   ZZ=            -97.6249
   XY=            -19.3138   XZ=             -1.8256   YZ=             -2.4140

 Normal termination of Gaussian 16 at Thu May  6 19:27:32 2021.
