 Gaussian 16, Revision A.03,
 Gaussian 16:  EM64L-G16RevA.03 25-Dec-2016

 -------------
 #p 6-31g* mp2
 -------------

 ------------------------------------------------------
 Input file generated by CHIRIPA (05-May-2021 14:53:14)
 ------------------------------------------------------
 Symbolic Z-matrix:
 Charge =  0 Multiplicity = 1

                         Standard orientation:
 ---------------------------------------------------------------------
 Center     Atomic      Atomic             Coordinates (Angstroms)
 Number     Number       Type             X           Y           Z
 ---------------------------------------------------------------------
      1          6           0        2.811782    0.748055    0.108474
      2          6           0        3.542968    1.959496   -0.470977
      3          6           0        2.769564    3.264370   -0.278766
      4          1           0        1.823763    0.663415   -0.364390
      5          1           0        2.632393    0.914665    1.179667
      6          1           0        3.722151    1.790051   -1.540462
      7          1           0        4.529437    2.041149    0.003183
      8          1           0        2.603154    3.460381    0.785418
      9          1           0        1.791281    3.207856   -0.766997
     10          1           0        3.310351    4.117412   -0.700345
     11          6           0        3.572418   -0.563876   -0.075913
     12          6           0        2.841232   -1.775316    0.503538
     13          6           0        3.614636   -3.080190    0.311327
     14          1           0        3.751807   -0.730485   -1.147106
     15          1           0        4.560437   -0.479236    0.396951
     16          1           0        1.854763   -1.856970    0.029378
     17          1           0        2.662049   -1.605871    1.573023
     18          1           0        4.592919   -3.023676    0.799558
     19          1           0        3.781046   -3.276201   -0.752857
     20          1           0        3.073849   -3.933232    0.732906
     21          6           0       -2.566511    0.304680    2.481032
     22          6           0       -3.750822    0.314288    1.736831
     23          6           0       -3.722486    0.106736    0.354562
     24          6           0       -2.486801   -0.108356   -0.253805
     25          6           0       -1.289662   -0.123722    0.460274
     26          6           0       -1.341870    0.086091    1.841506
     27          1           0       -2.597796    0.466789    3.554409
     28          1           0       -4.703333    0.483798    2.230830
     29          1           0       -4.624179    0.109063   -0.245738
     30          1           0       -0.355301   -0.295323   -0.060244
     31          1           0       -0.420529    0.078093    2.416930
     32          7           0       -2.444167   -0.329278   -1.716602
     33          8           0       -1.342739   -0.516558   -2.228873
     34          8           0       -3.512985   -0.310974   -2.323176
 ---------------------------------------------------------------------

 SCF Done:  E(RHF) =  -669.535676668     A.U. after   15 cycles
 E2 =    -0.2092109007D+01 EUMP2 =    -0.67162778567508D+03

 The electronic state is 1-A.
 Alpha  occ. eigenvalues --  -20.60769 -20.60760 -15.85816 -11.31136 -11.27712
 Alpha  occ. eigenvalues --  -11.27663 -11.27448 -11.26727 -11.26694 -11.22042
 Alpha  occ. eigenvalues --  -11.21886 -11.21816 -11.21682 -11.21304 -11.21242
 Alpha  occ. eigenvalues --   -1.59840  -1.39396  -1.19309  -1.08788  -1.08716
 Alpha  occ. eigenvalues --   -1.04703  -1.03814  -0.96256  -0.95557  -0.87270
 Alpha  occ. eigenvalues --   -0.86110  -0.82388  -0.79899  -0.78676  -0.77421
 Alpha  occ. eigenvalues --   -0.72038  -0.71162  -0.70433  -0.65444  -0.64961
 Alpha  occ. eigenvalues --   -0.64676  -0.62059  -0.61196  -0.59629  -0.57881
 Alpha  occ. eigenvalues --   -0.55536  -0.55215  -0.53044  -0.52945  -0.52813
 Alpha  occ. eigenvalues --   -0.52662  -0.50186  -0.48796  -0.48791  -0.48213
 Alpha  occ. eigenvalues --   -0.46926  -0.46143  -0.46058  -0.44810  -0.44094
 Alpha  occ. eigenvalues --   -0.37296  -0.36299
 Alpha virt. eigenvalues --    0.05066   0.11308   0.16578   0.19677   0.23018
 Alpha virt. eigenvalues --    0.24011   0.24462   0.25191   0.27711   0.28326
 Alpha virt. eigenvalues --    0.30533   0.30899   0.31302   0.31690   0.31762

 Mulliken charges:
               1
     1  C   -0.305998
     2  C   -0.299116
     3  C   -0.476970
     4  H    0.152760
     5  H    0.142772
     6  H    0.157318
     7  H    0.152359
     8  H    0.151955
     9  H    0.158837
    10  H    0.162265
    11  C   -0.297702
    12  C   -0.304820
    13  C   -0.475579
    14  H    0.156191
    15  H    0.150717
    16  H    0.154300
    17  H    0.145659
    18  H    0.155523
    19  H    0.159964
    20  H    0.161046
    21  C   -0.170703
    22  C   -0.218827
    23  C   -0.170228
    24  C    0.159048
    25  C   -0.181244
    26  C   -0.222597
    27  H    0.225383
    28  H    0.223228
    29  H    0.275337
    30  H    0.289205
    31  H    0.225009
    32  N    0.487032
    33  O   -0.461959
    34  O   -0.460162
 Sum of Mulliken charges =  -0.00000

 Dipole moment (field-independent basis, Debye):
    X=             -0.0084    Y=              0.7706    Z=              5.0351  Tot=              5.0937
 Quadrupole moment (field-independent basis, Debye-Ang):
   XX=            -88.4563   YY=            -96.5035   ZZ=            -97.2249
   XY=             -2.0872   XZ=            -12.6976   YZ=             -0.7256

 Normal termination of Gaussian 16 at Thu May  6 17:07:20 2021.
