 Gaussian 16, Revision A.03,
 Gaussian 16:  EM64L-G16RevA.03 25-Dec-2016

 -------------
 #p 6-31g* mp2
 -------------

 ------------------------------------------------------
 Input file generated by CHIRIPA (05-May-2021 14:51:12)
 ------------------------------------------------------
 Symbolic Z-matrix:
 Charge =  0 Multiplicity = 1

                         Standard orientation:
 ---------------------------------------------------------------------
 Center     Atomic      Atomic             Coordinates (Angstroms)
 Number     Number       Type             X           Y           Z
 ---------------------------------------------------------------------
      1          6           0       -3.496009    0.439966   -0.078206
      2          6           0       -3.411336    1.966539   -0.058425
      3          6           0       -1.974147    2.480129   -0.150651
      4          1           0       -2.906361    0.035540    0.755880
      5          1           0       -3.030407    0.065786   -1.000485
      6          1           0       -3.878193    2.337805    0.862890
      7          1           0       -4.001411    2.367385   -0.892542
      8          1           0       -1.501415    2.137814   -1.076904
      9          1           0       -1.377497    2.108066    0.688502
     10          1           0       -1.936874    3.573848   -0.134837
     11          6           0       -4.926356   -0.088679    0.013286
     12          6           0       -5.011028   -1.615251   -0.006495
     13          6           0       -6.448217   -2.128842    0.085730
     14          1           0       -5.391957    0.285502    0.935565
     15          1           0       -5.516004    0.315747   -0.820801
     16          1           0       -4.420953   -2.016097    0.827622
     17          1           0       -4.544171   -1.986517   -0.927811
     18          1           0       -7.044868   -1.756778   -0.753423
     19          1           0       -6.920950   -1.786526    1.011984
     20          1           0       -6.485491   -3.222561    0.069917
     21          6           0        3.612376    0.179119    0.347115
     22          6           0        2.283399   -0.158321   -0.329598
     23          6           0        1.094853    0.559058    0.311117
     24          1           0        3.552388   -0.086362    1.411477
     25          1           0        3.772159    1.265416    0.304445
     26          1           0        2.126831   -1.243806   -0.286888
     27          1           0        2.346625    0.107816   -1.392514
     28          1           0        1.224481    1.644731    0.255320
     29          1           0        1.003439    0.285430    1.367228
     30          1           0        0.155013    0.303503   -0.188135
     31          6           0        4.809988   -0.530406   -0.282194
     32          6           0        6.138965   -0.192967    0.394518
     33          6           0        7.327512   -0.910347   -0.246197
     34          1           0        4.650205   -1.616704   -0.239525
     35          1           0        4.869978   -0.264926   -1.346557
     36          1           0        6.075739   -0.459103    1.457434
     37          1           0        6.295533    0.892519    0.351808
     38          1           0        7.418926   -0.636718   -1.302309
     39          1           0        7.197883   -1.996018   -0.190401
     40          1           0        8.267352   -0.654790    0.253055
 ---------------------------------------------------------------------

 SCF Done:  E(RHF) =  -470.732242005     A.U. after   11 cycles
 E2 =    -0.1583004123D+01 EUMP2 =    -0.47231524612830D+03

 The electronic state is 1-A.
 Alpha  occ. eigenvalues --  -11.21594 -11.21576 -11.21539 -11.21522 -11.21392
 Alpha  occ. eigenvalues --  -11.21363 -11.21333 -11.21302 -11.21065 -11.21052
 Alpha  occ. eigenvalues --  -11.20925 -11.20908  -1.08413  -1.08379  -1.03534
 Alpha  occ. eigenvalues --   -1.03438  -0.96031  -0.95844  -0.87105  -0.86812
 Alpha  occ. eigenvalues --   -0.79709  -0.79407  -0.78245  -0.78171  -0.65037
 Alpha  occ. eigenvalues --   -0.65016  -0.60888  -0.60880  -0.59495  -0.59170
 Alpha  occ. eigenvalues --   -0.57626  -0.57463  -0.55238  -0.55214  -0.52905
 Alpha  occ. eigenvalues --   -0.52639  -0.52350  -0.52096  -0.49889  -0.49853
 Alpha  occ. eigenvalues --   -0.47864  -0.47837  -0.46586  -0.46570  -0.45798
 Alpha  occ. eigenvalues --   -0.45729  -0.45670  -0.45651  -0.43760  -0.43637
 Alpha virt. eigenvalues --    0.22250   0.23006   0.23560   0.24871   0.26340
 Alpha virt. eigenvalues --    0.26637   0.26824   0.27413   0.27824   0.29161
 Alpha virt. eigenvalues --    0.29922   0.31250   0.31394   0.31820   0.32236

 Mulliken charges:
               1
     1  C   -0.299507
     2  C   -0.299765
     3  C   -0.479204
     4  H    0.150488
     5  H    0.148810
     6  H    0.151508
     7  H    0.151278
     8  H    0.154969
     9  H    0.163563
    10  H    0.158784
    11  C   -0.298153
    12  C   -0.299646
    13  C   -0.475696
    14  H    0.149617
    15  H    0.149680
    16  H    0.151931
    17  H    0.151818
    18  H    0.155175
    19  H    0.155186
    20  H    0.160201
    21  C   -0.298391
    22  C   -0.300806
    23  C   -0.478537
    24  H    0.149333
    25  H    0.149444
    26  H    0.151379
    27  H    0.151428
    28  H    0.156535
    29  H    0.152910
    30  H    0.166058
    31  C   -0.298181
    32  C   -0.299569
    33  C   -0.475667
    34  H    0.149392
    35  H    0.149519
    36  H    0.151835
    37  H    0.151879
    38  H    0.155129
    39  H    0.155120
    40  H    0.160154
 Sum of Mulliken charges =  -0.00000

 Dipole moment (field-independent basis, Debye):
    X=             -0.0143    Y=              0.0145    Z=              0.0102  Tot=              0.0228
 Quadrupole moment (field-independent basis, Debye-Ang):
   XX=            -86.9089   YY=            -84.6956   ZZ=            -83.4517
   XY=              0.0820   XZ=              0.3428   YZ=             -0.6389

 Normal termination of Gaussian 16 at Thu May  6 03:55:04 2021.
