 Gaussian 16, Revision A.03,
 Gaussian 16:  EM64L-G16RevA.03 25-Dec-2016

 -------------
 #p 6-31g* mp2
 -------------

 ------------------------------------------------------
 Input file generated by CHIRIPA (05-May-2021 14:57:24)
 ------------------------------------------------------
 Symbolic Z-matrix:
 Charge =  0 Multiplicity = 1

                         Standard orientation:
 ---------------------------------------------------------------------
 Center     Atomic      Atomic             Coordinates (Angstroms)
 Number     Number       Type             X           Y           Z
 ---------------------------------------------------------------------
      1          6           0       -0.613709   -0.453452   -0.879071
      2          6           0       -1.091137    0.829966   -0.593725
      3          6           0       -2.415478    1.021053   -0.188565
      4          6           0       -3.238579   -0.098654   -0.078781
      5          6           0       -2.792408   -1.389925   -0.355982
      6          6           0       -1.464369   -1.557355   -0.759499
      7          1           0        0.416507   -0.592704   -1.193171
      8          1           0       -0.432763    1.689108   -0.685722
      9          1           0       -2.811119    2.003540    0.038601
     10          1           0       -3.472519   -2.227005   -0.255165
     11          1           0       -1.096321   -2.555237   -0.980446
     12          7           0       -4.642557    0.091119    0.349274
     13          8           0       -5.347608   -0.911684    0.438303
     14          8           0       -5.011361    1.239073    0.587650
     15          6           0        2.574897    2.600392   -0.126114
     16          6           0        2.772869    1.794576   -1.252164
     17          6           0        3.013167    0.424537   -1.111461
     18          6           0        3.048979   -0.108905    0.175958
     19          6           0        2.855545    0.667751    1.317308
     20          6           0        2.616793    2.035404    1.152774
     21          1           0        2.388828    3.663744   -0.244672
     22          1           0        2.740880    2.230627   -2.246589
     23          1           0        3.169792   -0.222416   -1.966059
     24          1           0        2.893213    0.204353    2.295705
     25          1           0        2.463398    2.658787    2.029077
     26          7           0        3.302553   -1.558040    0.337529
     27          8           0        3.329224   -2.003756    1.482634
     28          8           0        3.469834   -2.220719   -0.683995
 ---------------------------------------------------------------------

 SCF Done:  E(RHF) =  -868.337307743     A.U. after   16 cycles
 E2 =    -0.2603096498D+01 EUMP2 =    -0.87094040424068D+03

 The electronic state is 1-A.
 Alpha  occ. eigenvalues --  -20.61943 -20.61913 -20.60715 -20.60703 -15.86976
 Alpha  occ. eigenvalues --  -15.85762 -11.32470 -11.31076 -11.29051 -11.28957
 Alpha  occ. eigenvalues --  -11.28765 -11.28120 -11.28002 -11.27663 -11.27592
 Alpha  occ. eigenvalues --  -11.27241 -11.26615 -11.26548  -1.61004  -1.59788
 Alpha  occ. eigenvalues --   -1.40551  -1.39343  -1.20677  -1.19227  -1.10030
 Alpha  occ. eigenvalues --   -1.08623  -1.06061  -1.04622  -0.96835  -0.95475
 Alpha  occ. eigenvalues --   -0.87442  -0.86011  -0.83635  -0.82315  -0.78672
 Alpha  occ. eigenvalues --   -0.77376  -0.73178  -0.72384  -0.71980  -0.71722
 Alpha  occ. eigenvalues --   -0.71111  -0.70330  -0.66284  -0.66002  -0.64871
 Alpha  occ. eigenvalues --   -0.64636  -0.63363  -0.61987  -0.56517  -0.55396
 Alpha  occ. eigenvalues --   -0.54159  -0.54090  -0.52941  -0.52661  -0.49958
 Alpha  occ. eigenvalues --   -0.49932  -0.48742  -0.48734  -0.45915  -0.44761
 Alpha  occ. eigenvalues --   -0.38649  -0.37694  -0.37139  -0.36227
 Alpha virt. eigenvalues --    0.03779   0.05153   0.09836   0.11418   0.15251
 Alpha virt. eigenvalues --    0.16672   0.20220   0.21784   0.26170   0.26848
 Alpha virt. eigenvalues --    0.27649   0.28428   0.30055   0.30861   0.32127

 Mulliken charges:
               1
     1  C   -0.175742
     2  C   -0.223219
     3  C   -0.173007
     4  C    0.158487
     5  C   -0.171103
     6  C   -0.219834
     7  H    0.230249
     8  H    0.219944
     9  H    0.272277
    10  H    0.276043
    11  H    0.229489
    12  N    0.488053
    13  O   -0.459760
    14  O   -0.462493
    15  C   -0.178229
    16  C   -0.218672
    17  C   -0.191057
    18  C    0.161956
    19  C   -0.167868
    20  C   -0.216037
    21  H    0.230726
    22  H    0.228834
    23  H    0.278003
    24  H    0.280910
    25  H    0.229963
    26  N    0.487597
    27  O   -0.453802
    28  O   -0.461710
 Sum of Mulliken charges =  -0.00000

 Dipole moment (field-independent basis, Debye):
    X=              4.4183    Y=              4.4152    Z=             -1.8831  Tot=              6.5239
 Quadrupole moment (field-independent basis, Debye-Ang):
   XX=           -143.2621   YY=           -101.0152   ZZ=           -100.3630
   XY=             18.8239   XZ=              2.7493   YZ=              2.2162

 Normal termination of Gaussian 16 at Thu May  6 08:16:25 2021.
