 Gaussian 16, Revision A.03,
 Gaussian 16:  EM64L-G16RevA.03 25-Dec-2016

 -------------
 #p 6-31g* mp2
 -------------

 ------------------------------------------------------
 Input file generated by CHIRIPA (05-May-2021 14:51:12)
 ------------------------------------------------------
 Symbolic Z-matrix:
 Charge =  0 Multiplicity = 1

                         Standard orientation:
 ---------------------------------------------------------------------
 Center     Atomic      Atomic             Coordinates (Angstroms)
 Number     Number       Type             X           Y           Z
 ---------------------------------------------------------------------
      1          6           0       -3.173172    0.566494   -0.525029
      2          6           0       -3.520151    1.970153   -0.027703
      3          6           0       -2.640261    3.053108   -0.652838
      4          1           0       -2.117784    0.356451   -0.303709
      5          1           0       -3.275072    0.536947   -1.618710
      6          1           0       -3.418965    1.996663    1.064852
      7          1           0       -4.574887    2.176806   -0.250060
      8          1           0       -2.748020    3.055656   -1.742325
      9          1           0       -1.585531    2.874490   -0.419942
     10          1           0       -2.905404    4.048624   -0.283369
     11          6           0       -4.044208   -0.526975    0.090883
     12          6           0       -3.697229   -1.930633   -0.406443
     13          6           0       -4.577119   -3.013589    0.218693
     14          1           0       -3.942308   -0.497428    1.184564
     15          1           0       -5.099597   -0.316931   -0.130436
     16          1           0       -2.642493   -2.137286   -0.184085
     17          1           0       -3.798415   -1.957144   -1.498997
     18          1           0       -5.631849   -2.834970   -0.014203
     19          1           0       -4.469360   -3.016137    1.308180
     20          1           0       -4.311976   -4.009104   -0.150777
     21          6           0        4.093703   -0.494405   -0.133507
     22          6           0        5.542804   -0.007043   -0.109687
     23          6           0        6.501106   -0.967267   -0.814968
     24          1           0        4.038485   -1.483889    0.340643
     25          1           0        3.776773   -0.629658   -1.176895
     26          1           0        5.856461    0.128574    0.933310
     27          1           0        5.594548    0.981480   -0.583777
     28          1           0        6.215652   -1.094936   -1.864167
     29          1           0        6.479053   -1.952688   -0.338461
     30          1           0        7.531503   -0.599427   -0.786060
     31          6           0        3.123677    0.454885    0.567652
     32          6           0        1.674576   -0.032477    0.543833
     33          6           0        0.716274    0.927748    1.249114
     34          1           0        3.440607    0.590138    1.611039
     35          1           0        3.178895    1.444370    0.093503
     36          1           0        1.622832   -1.021000    1.017923
     37          1           0        1.360919   -0.168094   -0.499165
     38          1           0        0.738326    1.913168    0.772606
     39          1           0        1.001728    1.055417    2.298313
     40          1           0       -0.314123    0.559908    1.220205
 ---------------------------------------------------------------------

 SCF Done:  E(RHF) =  -470.733129560     A.U. after   11 cycles
 E2 =    -0.1583065793D+01 EUMP2 =    -0.47231619535363D+03

 The electronic state is 1-A.
 Alpha  occ. eigenvalues --  -11.21673 -11.21624 -11.21592 -11.21558 -11.21446
 Alpha  occ. eigenvalues --  -11.21384 -11.21376 -11.21308 -11.21160 -11.21087
 Alpha  occ. eigenvalues --  -11.21063 -11.21002  -1.08477  -1.08403  -1.03588
 Alpha  occ. eigenvalues --   -1.03493  -0.96036  -0.95949  -0.87055  -0.86965
 Alpha  occ. eigenvalues --   -0.79658  -0.79550  -0.78283  -0.78221  -0.65133
 Alpha  occ. eigenvalues --   -0.65039  -0.61043  -0.60855  -0.59428  -0.59284
 Alpha  occ. eigenvalues --   -0.57690  -0.57527  -0.55367  -0.55194  -0.52757
 Alpha  occ. eigenvalues --   -0.52640  -0.52517  -0.52312  -0.50033  -0.49833
 Alpha  occ. eigenvalues --   -0.47959  -0.47876  -0.46714  -0.46546  -0.45826
 Alpha  occ. eigenvalues --   -0.45752  -0.45743  -0.45671  -0.43796  -0.43751
 Alpha virt. eigenvalues --    0.20472   0.23018   0.23728   0.24814   0.26242
 Alpha virt. eigenvalues --    0.26303   0.26879   0.27296   0.27925   0.29302
 Alpha virt. eigenvalues --    0.30602   0.31638   0.31716   0.31934   0.32158

 Mulliken charges:
               1
     1  C   -0.305304
     2  C   -0.299020
     3  C   -0.479410
     4  H    0.156067
     5  H    0.149501
     6  H    0.152032
     7  H    0.151812
     8  H    0.154533
     9  H    0.159269
    10  H    0.159922
    11  C   -0.298301
    12  C   -0.299621
    13  C   -0.475676
    14  H    0.149210
    15  H    0.149781
    16  H    0.151724
    17  H    0.151964
    18  H    0.155197
    19  H    0.155141
    20  H    0.160220
    21  C   -0.298375
    22  C   -0.299719
    23  C   -0.475742
    24  H    0.149693
    25  H    0.149756
    26  H    0.151956
    27  H    0.152065
    28  H    0.155272
    29  H    0.155200
    30  H    0.160347
    31  C   -0.298439
    32  C   -0.300563
    33  C   -0.482681
    34  H    0.149722
    35  H    0.149980
    36  H    0.152009
    37  H    0.152878
    38  H    0.157118
    39  H    0.155815
    40  H    0.164670
 Sum of Mulliken charges =  -0.00000

 Dipole moment (field-independent basis, Debye):
    X=              0.0413    Y=             -0.0039    Z=              0.0067  Tot=              0.0420
 Quadrupole moment (field-independent basis, Debye-Ang):
   XX=            -85.3263   YY=            -85.7291   ZZ=            -83.7685
   XY=             -0.1247   XZ=              1.2276   YZ=             -0.4644

 Normal termination of Gaussian 16 at Wed May  5 18:17:46 2021.
