 Gaussian 16, Revision A.03,
 Gaussian 16:  EM64L-G16RevA.03 25-Dec-2016

 -------------
 #p 6-31g* mp2
 -------------

 ------------------------------------------------------
 Input file generated by CHIRIPA (05-May-2021 14:51:09)
 ------------------------------------------------------
 Symbolic Z-matrix:
 Charge =  0 Multiplicity = 1

                         Standard orientation:
 ---------------------------------------------------------------------
 Center     Atomic      Atomic             Coordinates (Angstroms)
 Number     Number       Type             X           Y           Z
 ---------------------------------------------------------------------
      1          6           0       -3.680680    0.104757   -0.056522
      2          6           0       -3.368280   -1.209607   -0.772649
      3          6           0       -4.490127   -2.239247   -0.634463
      4          1           0       -3.864069   -0.099260    1.007287
      5          1           0       -4.613829    0.521425   -0.460273
      6          1           0       -2.435266   -1.622972   -0.368632
      7          1           0       -3.185424   -1.002412   -1.834840
      8          1           0       -5.423393   -1.850901   -1.054943
      9          1           0       -4.668972   -2.474987    0.419597
     10          1           0       -4.245934   -3.171175   -1.153830
     11          6           0       -2.568601    1.144157   -0.185580
     12          6           0       -2.881001    2.458522    0.530547
     13          6           0       -1.759154    3.488162    0.392361
     14          1           0       -1.635451    0.727489    0.218171
     15          1           0       -2.385211    1.348175   -1.249389
     16          1           0       -3.063856    2.251327    1.592738
     17          1           0       -3.814015    2.871887    0.126530
     18          1           0       -1.580309    3.723901   -0.661699
     19          1           0       -0.825888    3.099816    0.812841
     20          1           0       -2.003346    4.420089    0.911728
     21          6           0        3.743299   -0.212208    0.296389
     22          6           0        4.445375    0.378021   -0.927009
     23          6           0        5.681218    1.200097   -0.560025
     24          1           0        3.455254    0.602674    0.974580
     25          1           0        4.453340   -0.842746    0.849253
     26          1           0        3.733827    1.006153   -1.478159
     27          1           0        4.731611   -0.438346   -1.602457
     28          1           0        6.412157    0.581069   -0.029804
     29          1           0        5.408704    2.033775    0.095198
     30          1           0        6.167624    1.612616   -1.449461
     31          6           0        2.505982   -1.036707   -0.054287
     32          6           0        1.803906   -1.626936    1.169112
     33          6           0        0.568063   -2.449012    0.802127
     34          1           0        1.795941   -0.406168   -0.607151
     35          1           0        2.794026   -1.851588   -0.732478
     36          1           0        1.517670   -0.810568    1.844559
     37          1           0        2.515453   -2.255067    1.720262
     38          1           0        0.840577   -3.282690    0.146904
     39          1           0       -0.162876   -1.829984    0.271908
     40          1           0        0.081656   -2.861530    1.691563
 ---------------------------------------------------------------------

 SCF Done:  E(RHF) =  -470.733296921     A.U. after   11 cycles
 E2 =    -0.1582931630D+01 EUMP2 =    -0.47231622855130D+03

 The electronic state is 1-A.
 Alpha  occ. eigenvalues --  -11.21639 -11.21636 -11.21601 -11.21557 -11.21434
 Alpha  occ. eigenvalues --  -11.21417 -11.21361 -11.21357 -11.21114 -11.21104
 Alpha  occ. eigenvalues --  -11.21069 -11.21041  -1.08456  -1.08435  -1.03558
 Alpha  occ. eigenvalues --   -1.03527  -0.96001  -0.95987  -0.87034  -0.86990
 Alpha  occ. eigenvalues --   -0.79663  -0.79556  -0.78299  -0.78219  -0.65165
 Alpha  occ. eigenvalues --   -0.65000  -0.61028  -0.60864  -0.59368  -0.59356
 Alpha  occ. eigenvalues --   -0.57620  -0.57587  -0.55299  -0.55276  -0.52704
 Alpha  occ. eigenvalues --   -0.52678  -0.52456  -0.52386  -0.50036  -0.49874
 Alpha  occ. eigenvalues --   -0.48034  -0.47842  -0.46793  -0.46528  -0.45920
 Alpha  occ. eigenvalues --   -0.45774  -0.45753  -0.45442  -0.43803  -0.43792
 Alpha virt. eigenvalues --    0.20657   0.23163   0.23913   0.24217   0.25679
 Alpha virt. eigenvalues --    0.26941   0.27023   0.27652   0.27908   0.29186
 Alpha virt. eigenvalues --    0.30757   0.31647   0.31674   0.31939   0.31998

 Mulliken charges:
               1
     1  C   -0.297621
     2  C   -0.308452
     3  C   -0.475056
     4  H    0.149655
     5  H    0.149600
     6  H    0.161036
     7  H    0.151492
     8  H    0.154895
     9  H    0.155126
    10  H    0.160440
    11  C   -0.300715
    12  C   -0.299615
    13  C   -0.475659
    14  H    0.150346
    15  H    0.149667
    16  H    0.152147
    17  H    0.152307
    18  H    0.155207
    19  H    0.154595
    20  H    0.160494
    21  C   -0.298258
    22  C   -0.299736
    23  C   -0.475727
    24  H    0.149536
    25  H    0.149532
    26  H    0.152246
    27  H    0.151930
    28  H    0.155125
    29  H    0.155261
    30  H    0.160305
    31  C   -0.298975
    32  C   -0.299126
    33  C   -0.484368
    34  H    0.150312
    35  H    0.149819
    36  H    0.151317
    37  H    0.152173
    38  H    0.155829
    39  H    0.162855
    40  H    0.160064
 Sum of Mulliken charges =  -0.00000

 Dipole moment (field-independent basis, Debye):
    X=              0.0032    Y=             -0.0078    Z=             -0.0068  Tot=              0.0108
 Quadrupole moment (field-independent basis, Debye-Ang):
   XX=            -85.6260   YY=            -85.0171   ZZ=            -84.0793
   XY=             -1.8512   XZ=              0.2053   YZ=             -0.2955

 Normal termination of Gaussian 16 at Wed May  5 15:08:06 2021.
