 Gaussian 16, Revision A.03,
 Gaussian 16:  EM64L-G16RevA.03 25-Dec-2016

 -------------
 #p 6-31g* mp2
 -------------

 ------------------------------------------------------
 Input file generated by CHIRIPA (05-May-2021 14:55:23)
 ------------------------------------------------------
 Symbolic Z-matrix:
 Charge =  0 Multiplicity = 1

                         Standard orientation:
 ---------------------------------------------------------------------
 Center     Atomic      Atomic             Coordinates (Angstroms)
 Number     Number       Type             X           Y           Z
 ---------------------------------------------------------------------
      1          6           0        1.137193    0.278992    2.403587
      2          6           0        0.509151   -0.553278    1.471164
      3          6           0        1.150068   -0.890429    0.275296
      4          6           0        2.424437   -0.375239    0.043232
      5          6           0        3.076351    0.456308    0.952533
      6          6           0        2.416533    0.780245    2.141757
      7          1           0        0.631971    0.535766    3.329985
      8          1           0       -0.484377   -0.944017    1.671841
      9          1           0        0.686960   -1.532683   -0.463933
     10          1           0        4.067011    0.830438    0.724417
     11          1           0        2.906700    1.426812    2.864067
     12          7           0        3.112953   -0.725171   -1.219263
     13          8           0        4.235451   -0.258305   -1.400011
     14          8           0        2.517075   -1.459687   -2.004153
     15          6           0       -3.571673   -0.045693   -0.370768
     16          6           0       -3.367580   -1.416969    0.274162
     17          6           0       -4.603990   -2.310157    0.167850
     18          1           0       -4.427592    0.452408    0.104883
     19          1           0       -3.837213   -0.181492   -1.428332
     20          1           0       -3.101150   -1.278585    1.329851
     21          1           0       -2.511928   -1.911784   -0.202949
     22          1           0       -4.869171   -2.477686   -0.881060
     23          1           0       -5.461740   -1.840890    0.660449
     24          1           0       -4.436097   -3.285441    0.635280
     25          6           0       -2.344389    0.858663   -0.272578
     26          6           0       -2.548482    2.229938   -0.917507
     27          6           0       -1.312072    3.123125   -0.811195
     28          1           0       -2.078848    0.994460    0.784986
     29          1           0       -1.488470    0.360562   -0.748228
     30          1           0       -3.404134    2.724753   -0.440397
     31          1           0       -2.814912    2.091554   -1.973196
     32          1           0       -0.454321    2.653859   -1.303794
     33          1           0       -1.046891    3.290655    0.237715
     34          1           0       -1.479965    4.098410   -1.278625
 ---------------------------------------------------------------------

 SCF Done:  E(RHF) =  -669.534511929     A.U. after   15 cycles
 E2 =    -0.2093948727D+01 EUMP2 =    -0.67162846065586D+03

 The electronic state is 1-A.
 Alpha  occ. eigenvalues --  -20.60750 -20.60744 -15.85800 -11.31149 -11.27675
 Alpha  occ. eigenvalues --  -11.27666 -11.27406 -11.26722 -11.26637 -11.22530
 Alpha  occ. eigenvalues --  -11.22003 -11.21969 -11.21883 -11.21714 -11.21320
 Alpha  occ. eigenvalues --   -1.59825  -1.39379  -1.19300  -1.09048  -1.08696
 Alpha  occ. eigenvalues --   -1.04694  -1.04083  -0.96495  -0.95544  -0.87515
 Alpha  occ. eigenvalues --   -0.86100  -0.82386  -0.80199  -0.78908  -0.77384
 Alpha  occ. eigenvalues --   -0.72019  -0.71148  -0.70412  -0.65699  -0.64942
 Alpha  occ. eigenvalues --   -0.64675  -0.62054  -0.61478  -0.59885  -0.58123
 Alpha  occ. eigenvalues --   -0.55765  -0.55202  -0.53246  -0.53155  -0.52803
 Alpha  occ. eigenvalues --   -0.52765  -0.50439  -0.48782  -0.48776  -0.48484
 Alpha  occ. eigenvalues --   -0.47239  -0.46343  -0.46296  -0.44787  -0.44337
 Alpha  occ. eigenvalues --   -0.37270  -0.36200
 Alpha virt. eigenvalues --    0.05070   0.11259   0.16544   0.19721   0.22798
 Alpha virt. eigenvalues --    0.23680   0.24475   0.25229   0.27462   0.28632
 Alpha virt. eigenvalues --    0.29699   0.30241   0.31085   0.31473   0.31866

 Mulliken charges:
               1
     1  C   -0.174558
     2  C   -0.214797
     3  C   -0.175695
     4  C    0.158293
     5  C   -0.171851
     6  C   -0.217475
     7  H    0.224933
     8  H    0.232236
     9  H    0.274691
    10  H    0.275202
    11  H    0.223107
    12  N    0.488043
    13  O   -0.460344
    14  O   -0.461005
    15  C   -0.297743
    16  C   -0.304224
    17  C   -0.475261
    18  H    0.151131
    19  H    0.154157
    20  H    0.144805
    21  H    0.149008
    22  H    0.159597
    23  H    0.157225
    24  H    0.161452
    25  C   -0.300740
    26  C   -0.300200
    27  C   -0.475534
    28  H    0.143193
    29  H    0.152736
    30  H    0.151430
    31  H    0.154975
    32  H    0.159136
    33  H    0.152403
    34  H    0.161676
 Sum of Mulliken charges =  -0.00000

 Dipole moment (field-independent basis, Debye):
    X=             -2.5581    Y=              1.2668    Z=              4.3557  Tot=              5.2078
 Quadrupole moment (field-independent basis, Debye-Ang):
   XX=           -103.7858   YY=            -95.1000   ZZ=            -93.8004
   XY=              5.8702   XZ=             11.9918   YZ=             -0.4329

 Normal termination of Gaussian 16 at Wed May  5 23:58:26 2021.
