 Gaussian 16, Revision A.03,
 Gaussian 16:  EM64L-G16RevA.03 25-Dec-2016

 -------------
 #p 6-31g* mp2
 -------------

 ------------------------------------------------------
 Input file generated by CHIRIPA (05-May-2021 14:53:12)
 ------------------------------------------------------
 Symbolic Z-matrix:
 Charge =  0 Multiplicity = 1

                         Standard orientation:
 ---------------------------------------------------------------------
 Center     Atomic      Atomic             Coordinates (Angstroms)
 Number     Number       Type             X           Y           Z
 ---------------------------------------------------------------------
      1          6           0       -2.736641   -0.925260    0.071728
      2          6           0       -1.647191   -1.112761   -0.984646
      3          6           0       -0.483982   -1.971977   -0.488171
      4          1           0       -2.295405   -0.465754    0.966776
      5          1           0       -3.112758   -1.910777    0.379440
      6          1           0       -1.274208   -0.127127   -1.291280
      7          1           0       -2.091110   -1.571699   -1.877354
      8          1           0       -0.836069   -2.967875   -0.200380
      9          1           0       -0.014526   -1.515095    0.389024
     10          1           0        0.283331   -2.093094   -1.259159
     11          6           0       -3.906251   -0.068534   -0.409686
     12          6           0       -4.995701    0.118968    0.646688
     13          6           0       -6.158910    0.978183    0.150213
     14          1           0       -3.530134    0.916983   -0.717398
     15          1           0       -4.347487   -0.528040   -1.304734
     16          1           0       -4.551782    0.577905    1.539396
     17          1           0       -5.368684   -0.866667    0.953322
     18          1           0       -6.628366    0.521301   -0.726982
     19          1           0       -5.806823    1.974081   -0.137578
     20          1           0       -6.926223    1.099301    0.921201
     21          6           0        1.993989    2.817723   -0.187794
     22          6           0        2.510616    2.077858   -1.256542
     23          6           0        2.847028    0.731044   -1.090809
     24          6           0        2.652972    0.153324    0.162933
     25          6           0        2.140260    0.863989    1.247079
     26          6           0        1.810783    2.209498    1.058407
     27          1           0        1.735349    3.863453   -0.325449
     28          1           0        2.653962    2.547599   -2.225480
     29          1           0        3.248762    0.134903   -1.901145
     30          1           0        2.008596    0.368179    2.201152
     31          1           0        1.409750    2.781636    1.890197
     32          7           0        3.005445   -1.271798    0.350528
     33          8           0        2.825000   -1.757513    1.465049
     34          8           0        3.455485   -1.876107   -0.620507
 ---------------------------------------------------------------------

 SCF Done:  E(RHF) =  -669.535819463     A.U. after   15 cycles
 E2 =    -0.2092875169D+01 EUMP2 =    -0.67162869463212D+03

 The electronic state is 1-A.
 Alpha  occ. eigenvalues --  -20.60844 -20.60838 -15.85854 -11.31230 -11.27798
 Alpha  occ. eigenvalues --  -11.27794 -11.27544 -11.26832 -11.26822 -11.21658
 Alpha  occ. eigenvalues --  -11.21416 -11.21399 -11.21278 -11.21165 -11.20630
 Alpha  occ. eigenvalues --   -1.59888  -1.39448  -1.19408  -1.08803  -1.08376
 Alpha  occ. eigenvalues --   -1.04814  -1.03436  -0.95876  -0.95636  -0.86892
 Alpha  occ. eigenvalues --   -0.86212  -0.82472  -0.79513  -0.78190  -0.77518
 Alpha  occ. eigenvalues --   -0.72093  -0.71207  -0.70517  -0.65066  -0.65011
 Alpha  occ. eigenvalues --   -0.64819  -0.62163  -0.60842  -0.59251  -0.57484
 Alpha  occ. eigenvalues --   -0.55322  -0.55185  -0.53118  -0.52907  -0.52543
 Alpha  occ. eigenvalues --   -0.52291  -0.49822  -0.48854  -0.48850  -0.47824
 Alpha  occ. eigenvalues --   -0.46566  -0.45739  -0.45664  -0.44790  -0.43678
 Alpha  occ. eigenvalues --   -0.37360  -0.36413
 Alpha virt. eigenvalues --    0.05010   0.11149   0.16488   0.21346   0.22860
 Alpha virt. eigenvalues --    0.24310   0.26627   0.27217   0.27551   0.27790
 Alpha virt. eigenvalues --    0.28416   0.30812   0.31297   0.31784   0.31965

 Mulliken charges:
               1
     1  C   -0.297312
     2  C   -0.300090
     3  C   -0.482290
     4  H    0.147250
     5  H    0.151343
     6  H    0.148371
     7  H    0.151484
     8  H    0.159436
     9  H    0.154548
    10  H    0.165009
    11  C   -0.297734
    12  C   -0.299308
    13  C   -0.475453
    14  H    0.146574
    15  H    0.150080
    16  H    0.150266
    17  H    0.153237
    18  H    0.155718
    19  H    0.153410
    20  H    0.160208
    21  C   -0.171188
    22  C   -0.218474
    23  C   -0.171632
    24  C    0.161237
    25  C   -0.173683
    26  C   -0.218385
    27  H    0.225706
    28  H    0.223723
    29  H    0.275669
    30  H    0.275637
    31  H    0.223564
    32  N    0.491647
    33  O   -0.459133
    34  O   -0.459436
 Sum of Mulliken charges =  -0.00000

 Dipole moment (field-independent basis, Debye):
    X=             -1.1419    Y=              4.9473    Z=             -0.6624  Tot=              5.1204
 Quadrupole moment (field-independent basis, Debye-Ang):
   XX=           -102.4344   YY=            -93.2563   ZZ=            -90.4328
   XY=             14.1687   XZ=             -3.6597   YZ=              1.4165

 Normal termination of Gaussian 16 at Thu May  6 13:40:54 2021.
