 Gaussian 16, Revision A.03,
 Gaussian 16:  EM64L-G16RevA.03 25-Dec-2016

 -------------
 #p 6-31g* mp2
 -------------

 ------------------------------------------------------
 Input file generated by CHIRIPA (05-May-2021 14:57:21)
 ------------------------------------------------------
 Symbolic Z-matrix:
 Charge =  0 Multiplicity = 1

                         Standard orientation:
 ---------------------------------------------------------------------
 Center     Atomic      Atomic             Coordinates (Angstroms)
 Number     Number       Type             X           Y           Z
 ---------------------------------------------------------------------
      1          6           0       -1.901859    1.854647    0.764354
      2          6           0       -2.316160    0.818304    1.607486
      3          6           0       -3.286500   -0.095421    1.185473
      4          6           0       -3.823823    0.057561   -0.091700
      5          6           0       -3.431768    1.079534   -0.954923
      6          6           0       -2.460002    1.981730   -0.511909
      7          1           0       -1.147522    2.559972    1.100341
      8          1           0       -1.884435    0.717171    2.599166
      9          1           0       -3.625523   -0.907041    1.817734
     10          1           0       -3.880424    1.154655   -1.938021
     11          1           0       -2.140167    2.785591   -1.168840
     12          7           0       -4.851833   -0.903656   -0.549583
     13          8           0       -5.309772   -0.747186   -1.679382
     14          8           0       -5.180184   -1.795326    0.229998
     15          6           0        6.063511   -0.006755   -0.703700
     16          6           0        5.261046    1.134581   -0.604074
     17          6           0        3.924862    1.030537   -0.206161
     18          6           0        3.421490   -0.236208    0.085837
     19          6           0        4.195682   -1.392000   -0.003951
     20          6           0        5.529209   -1.264186   -0.403849
     21          1           0        7.100458    0.083301   -1.013579
     22          1           0        5.673313    2.112408   -0.836317
     23          1           0        3.281278    1.897665   -0.120677
     24          1           0        3.756486   -2.353164    0.234140
     25          1           0        6.150071   -2.152288   -0.480343
     26          7           0        2.008337   -0.358937    0.508139
     27          8           0        1.588698   -1.486407    0.759835
     28          8           0        1.347108    0.674662    0.579449
 ---------------------------------------------------------------------

 SCF Done:  E(RHF) =  -868.338833387     A.U. after   16 cycles
 E2 =    -0.2599215016D+01 EUMP2 =    -0.87093804840276D+03

 The electronic state is 1-A.
 Alpha  occ. eigenvalues --  -20.61507 -20.61455 -20.59713 -20.59701 -15.86528
 Alpha  occ. eigenvalues --  -15.84757 -11.31741 -11.29834 -11.28323 -11.28262
 Alpha  occ. eigenvalues --  -11.27991 -11.27281 -11.27243 -11.26466 -11.26376
 Alpha  occ. eigenvalues --  -11.26034 -11.25383 -11.25250  -1.60547  -1.58792
 Alpha  occ. eigenvalues --   -1.40110  -1.38354  -1.19896  -1.17987  -1.09316
 Alpha  occ. eigenvalues --   -1.07408  -1.05278  -1.03373  -0.96181  -0.94299
 Alpha  occ. eigenvalues --   -0.86682  -0.84778  -0.83024  -0.81164  -0.78089
 Alpha  occ. eigenvalues --   -0.76265  -0.72775  -0.71858  -0.71002  -0.70988
 Alpha  occ. eigenvalues --   -0.70110  -0.69069  -0.65553  -0.65277  -0.63648
 Alpha  occ. eigenvalues --   -0.63395  -0.62631  -0.60761  -0.55776  -0.53831
 Alpha  occ. eigenvalues --   -0.53612  -0.53368  -0.51699  -0.51487  -0.49505
 Alpha  occ. eigenvalues --   -0.49464  -0.47753  -0.47717  -0.45549  -0.43826
 Alpha  occ. eigenvalues --   -0.37862  -0.36874  -0.35827  -0.34962
 Alpha virt. eigenvalues --    0.04439   0.06303   0.10783   0.12713   0.15968
 Alpha virt. eigenvalues --    0.17887   0.20935   0.22733   0.26848   0.27781
 Alpha virt. eigenvalues --    0.28572   0.29593   0.30547   0.31929   0.32364

 Mulliken charges:
               1
     1  C   -0.150250
     2  C   -0.210194
     3  C   -0.170506
     4  C    0.156707
     5  C   -0.172324
     6  C   -0.221592
     7  H    0.225511
     8  H    0.222513
     9  H    0.272212
    10  H    0.270123
    11  H    0.216445
    12  N    0.488439
    13  O   -0.465290
    14  O   -0.463240
    15  C   -0.170175
    16  C   -0.218291
    17  C   -0.170769
    18  C    0.158212
    19  C   -0.170266
    20  C   -0.218369
    21  H    0.227435
    22  H    0.224104
    23  H    0.271697
    24  H    0.277322
    25  H    0.225619
    26  N    0.491038
    27  O   -0.455808
    28  O   -0.470303
 Sum of Mulliken charges =  -0.00000

 Dipole moment (field-independent basis, Debye):
    X=              9.1220    Y=              3.7570    Z=              0.2679  Tot=              9.8690
 Quadrupole moment (field-independent basis, Debye-Ang):
   XX=           -100.5973   YY=            -99.1730   ZZ=           -102.6456
   XY=            -13.5261   XZ=            -11.5190   YZ=             -2.6100

 Normal termination of Gaussian 16 at Thu May  6 00:07:37 2021.
