 Gaussian 16, Revision A.03,
 Gaussian 16:  EM64L-G16RevA.03 25-Dec-2016

 -------------
 #p 6-31g* mp2
 -------------

 ------------------------------------------------------
 Input file generated by CHIRIPA (05-May-2021 14:51:10)
 ------------------------------------------------------
 Symbolic Z-matrix:
 Charge =  0 Multiplicity = 1

                         Standard orientation:
 ---------------------------------------------------------------------
 Center     Atomic      Atomic             Coordinates (Angstroms)
 Number     Number       Type             X           Y           Z
 ---------------------------------------------------------------------
      1          6           0        2.788123   -0.092821    1.161830
      2          6           0        1.465226    0.657750    1.318577
      3          6           0        1.024392    0.780378    2.777489
      4          1           0        2.688343   -1.094592    1.601652
      5          1           0        3.566444    0.425699    1.738674
      6          1           0        0.689942    0.138746    0.740490
      7          1           0        1.568108    1.657782    0.878160
      8          1           0        1.777170    1.317464    3.363548
      9          1           0        0.894015   -0.210203    3.225095
     10          1           0        0.076527    1.320284    2.866443
     11          6           0        3.242026   -0.223559   -0.290963
     12          6           0        4.564923   -0.974130   -0.447711
     13          6           0        5.005757   -1.096758   -1.906622
     14          1           0        2.463705   -0.742079   -0.867808
     15          1           0        3.341806    0.778212   -0.730786
     16          1           0        4.462041   -1.974162   -0.007294
     17          1           0        5.340207   -0.455126    0.130377
     18          1           0        5.136134   -0.106177   -2.354229
     19          1           0        4.252979   -1.633844   -2.492681
     20          1           0        5.953622   -1.636664   -1.995576
     21          6           0       -3.483699   -0.410060   -0.637708
     22          6           0       -3.685083   -1.451169    0.463893
     23          6           0       -4.625099   -2.581654    0.044173
     24          1           0       -4.459274    0.008384   -0.920731
     25          1           0       -3.084820   -0.906427   -1.533202
     26          1           0       -4.082162   -0.952755    1.357497
     27          1           0       -2.708894   -1.867044    0.744461
     28          1           0       -4.230792   -3.104913   -0.832937
     29          1           0       -5.611862   -2.185428   -0.216418
     30          1           0       -4.754900   -3.314605    0.846542
     31          6           0       -2.546450    0.726440   -0.233159
     32          6           0       -2.345066    1.767548   -1.334759
     33          6           0       -1.405049    2.898034   -0.915040
     34          1           0       -2.945328    1.222808    0.662336
     35          1           0       -1.570875    0.307996    0.049865
     36          1           0       -3.321255    2.183425   -1.615328
     37          1           0       -1.947988    1.269135   -2.228364
     38          1           0       -0.418288    2.501808   -0.654449
     39          1           0       -1.799358    3.421293   -0.037929
     40          1           0       -1.275250    3.630985   -1.717408
 ---------------------------------------------------------------------

 SCF Done:  E(RHF) =  -470.733004519     A.U. after   11 cycles
 E2 =    -0.1583645136D+01 EUMP2 =    -0.47231664965530D+03

 The electronic state is 1-A.
 Alpha  occ. eigenvalues --  -11.21636 -11.21634 -11.21607 -11.21565 -11.21446
 Alpha  occ. eigenvalues --  -11.21385 -11.21385 -11.21316 -11.21098 -11.21077
 Alpha  occ. eigenvalues --  -11.21075 -11.20989  -1.08480  -1.08406  -1.03576
 Alpha  occ. eigenvalues --   -1.03494  -0.96005  -0.95955  -0.87023  -0.86972
 Alpha  occ. eigenvalues --   -0.79705  -0.79520  -0.78376  -0.78137  -0.65167
 Alpha  occ. eigenvalues --   -0.64996  -0.60982  -0.60906  -0.59437  -0.59260
 Alpha  occ. eigenvalues --   -0.57620  -0.57561  -0.55334  -0.55209  -0.52699
 Alpha  occ. eigenvalues --   -0.52647  -0.52440  -0.52377  -0.50021  -0.49844
 Alpha  occ. eigenvalues --   -0.48137  -0.47784  -0.46737  -0.46604  -0.46064
 Alpha  occ. eigenvalues --   -0.45760  -0.45724  -0.45266  -0.43809  -0.43762
 Alpha virt. eigenvalues --    0.21036   0.23201   0.23570   0.24769   0.25513
 Alpha virt. eigenvalues --    0.25988   0.26951   0.27872   0.28092   0.29230
 Alpha virt. eigenvalues --    0.30584   0.31323   0.31522   0.31861   0.32128

 Mulliken charges:
               1
     1  C   -0.297296
     2  C   -0.308388
     3  C   -0.476001
     4  H    0.149617
     5  H    0.149784
     6  H    0.156663
     7  H    0.154522
     8  H    0.155238
     9  H    0.154989
    10  H    0.161955
    11  C   -0.298475
    12  C   -0.299625
    13  C   -0.475745
    14  H    0.148841
    15  H    0.149735
    16  H    0.152000
    17  H    0.152143
    18  H    0.155312
    19  H    0.155089
    20  H    0.160397
    21  C   -0.297699
    22  C   -0.299455
    23  C   -0.475681
    24  H    0.149727
    25  H    0.149134
    26  H    0.152119
    27  H    0.151161
    28  H    0.155059
    29  H    0.155296
    30  H    0.160218
    31  C   -0.306792
    32  C   -0.298803
    33  C   -0.481270
    34  H    0.149100
    35  H    0.158107
    36  H    0.151710
    37  H    0.151479
    38  H    0.161818
    39  H    0.154373
    40  H    0.159642
 Sum of Mulliken charges =  -0.00000

 Dipole moment (field-independent basis, Debye):
    X=              0.0321    Y=             -0.0006    Z=              0.0215  Tot=              0.0386
 Quadrupole moment (field-independent basis, Debye-Ang):
   XX=            -84.5488   YY=            -84.5872   ZZ=            -85.6853
   XY=             -0.4271   XZ=              0.0793   YZ=             -0.0024

 Normal termination of Gaussian 16 at Wed May  5 19:46:00 2021.
