 Gaussian 16, Revision A.03,
 Gaussian 16:  EM64L-G16RevA.03 25-Dec-2016

 -------------
 #p 6-31g* mp2
 -------------

 ------------------------------------------------------
 Input file generated by CHIRIPA (05-May-2021 14:57:26)
 ------------------------------------------------------
 Symbolic Z-matrix:
 Charge =  0 Multiplicity = 1

                         Standard orientation:
 ---------------------------------------------------------------------
 Center     Atomic      Atomic             Coordinates (Angstroms)
 Number     Number       Type             X           Y           Z
 ---------------------------------------------------------------------
      1          6           0       -0.666891   -0.871566    1.086893
      2          6           0       -1.332641    0.263052    1.562225
      3          6           0       -2.588679    0.612755    1.057622
      4          6           0       -3.152186   -0.198327    0.073805
      5          6           0       -2.513913   -1.334958   -0.420127
      6          6           0       -1.258609   -1.665550    0.098976
      7          1           0        0.308544   -1.135801    1.484513
      8          1           0       -0.875513    0.881521    2.329411
      9          1           0       -3.126166    1.485682    1.407655
     10          1           0       -2.994975   -1.931972   -1.185353
     11          1           0       -0.743894   -2.547281   -0.272055
     12          7           0       -4.481509    0.161771   -0.468071
     13          8           0       -4.956537   -0.569262   -1.334428
     14          8           0       -5.023233    1.168232   -0.016175
     15          6           0        3.540144   -2.185371    0.006991
     16          6           0        3.534446   -1.550643   -1.239447
     17          6           0        3.199704   -0.197414   -1.345583
     18          6           0        2.874411    0.493862   -0.179558
     19          6           0        2.871037   -0.110424    1.076674
     20          6           0        3.209005   -1.464507    1.159043
     21          1           0        3.801433   -3.236924    0.080209
     22          1           0        3.791186   -2.107984   -2.135829
     23          1           0        3.187308    0.318776   -2.297850
     24          1           0        2.610595    0.471417    1.952487
     25          1           0        3.212593   -1.954845    2.128373
     26          7           0        2.518326    1.926916   -0.279338
     27          8           0        2.235551    2.513763    0.762912
     28          8           0        2.528744    2.436163   -1.397908
 ---------------------------------------------------------------------

 SCF Done:  E(RHF) =  -868.336570439     A.U. after   16 cycles
 E2 =    -0.2602401086D+01 EUMP2 =    -0.87093897152467D+03

 The electronic state is 1-A.
 Alpha  occ. eigenvalues --  -20.61615 -20.61582 -20.60564 -20.60552 -15.86662
 Alpha  occ. eigenvalues --  -15.85615 -11.32228 -11.30978 -11.28892 -11.28773
 Alpha  occ. eigenvalues --  -11.28593 -11.27921 -11.27807 -11.27588 -11.27516
 Alpha  occ. eigenvalues --  -11.27227 -11.26618 -11.26515  -1.60665  -1.59635
 Alpha  occ. eigenvalues --   -1.40217  -1.39189  -1.20447  -1.19156  -1.09776
 Alpha  occ. eigenvalues --   -1.08558  -1.05891  -1.04559  -0.96584  -0.95391
 Alpha  occ. eigenvalues --   -0.87246  -0.85961  -0.83419  -0.82223  -0.78432
 Alpha  occ. eigenvalues --   -0.77263  -0.72877  -0.71994  -0.71834  -0.71527
 Alpha  occ. eigenvalues --   -0.70957  -0.70310  -0.66079  -0.65848  -0.64809
 Alpha  occ. eigenvalues --   -0.64578  -0.63203  -0.61907  -0.56326  -0.55467
 Alpha  occ. eigenvalues --   -0.53940  -0.53858  -0.52855  -0.52650  -0.49648
 Alpha  occ. eigenvalues --   -0.49618  -0.48595  -0.48586  -0.45580  -0.44595
 Alpha  occ. eigenvalues --   -0.38461  -0.37576  -0.36974  -0.36159
 Alpha virt. eigenvalues --    0.04075   0.05257   0.10077   0.11498   0.15421
 Alpha virt. eigenvalues --    0.16760   0.20010   0.21921   0.25817   0.26821
 Alpha virt. eigenvalues --    0.27804   0.29355   0.29844   0.31359   0.32024

 Mulliken charges:
               1
     1  C   -0.172978
     2  C   -0.219563
     3  C   -0.168958
     4  C    0.158330
     5  C   -0.171109
     6  C   -0.221472
     7  H    0.224506
     8  H    0.227000
     9  H    0.277404
    10  H    0.273944
    11  H    0.218720
    12  N    0.488162
    13  O   -0.461894
    14  O   -0.459263
    15  C   -0.172221
    16  C   -0.219081
    17  C   -0.168689
    18  C    0.166270
    19  C   -0.181680
    20  C   -0.226536
    21  H    0.229005
    22  H    0.227775
    23  H    0.280303
    24  H    0.274572
    25  H    0.225493
    26  N    0.488989
    27  O   -0.462293
    28  O   -0.454734
 Sum of Mulliken charges =  -0.00000

 Dipole moment (field-independent basis, Debye):
    X=              6.1690    Y=             -6.1452    Z=              2.0692  Tot=              8.9500
 Quadrupole moment (field-independent basis, Debye-Ang):
   XX=           -127.9512   YY=           -106.9694   ZZ=            -98.3094
   XY=            -11.4043   XZ=             -6.4167   YZ=              3.7115

 Normal termination of Gaussian 16 at Wed May  5 18:02:29 2021.
