 Gaussian 16, Revision A.03,
 Gaussian 16:  EM64L-G16RevA.03 25-Dec-2016

 -------------
 #p 6-31g* mp2
 -------------

 ------------------------------------------------------
 Input file generated by CHIRIPA (05-May-2021 14:51:09)
 ------------------------------------------------------
 Symbolic Z-matrix:
 Charge =  0 Multiplicity = 1

                         Standard orientation:
 ---------------------------------------------------------------------
 Center     Atomic      Atomic             Coordinates (Angstroms)
 Number     Number       Type             X           Y           Z
 ---------------------------------------------------------------------
      1          6           0        1.483598   -1.358748   -0.065557
      2          6           0        1.349240   -2.828299    0.334885
      3          6           0       -0.092195   -3.332471    0.258282
      4          1           0        0.844757   -0.747689    0.586696
      5          1           0        1.102329   -1.228157   -1.087798
      6          1           0        1.731926   -2.956334    1.355559
      7          1           0        1.988622   -3.435911   -0.318273
      8          1           0       -0.481276   -3.233619   -0.760268
      9          1           0       -0.739430   -2.751317    0.923074
     10          1           0       -0.165273   -4.385174    0.548690
     11          6           0        2.918748   -0.840137    0.005945
     12          6           0        3.053105    0.629413   -0.394498
     13          6           0        4.494541    1.133586   -0.317895
     14          1           0        3.300017   -0.970728    1.028185
     15          1           0        3.557589   -1.451197   -0.646308
     16          1           0        2.413724    1.237025    0.258660
     17          1           0        2.670420    0.757448   -1.415171
     18          1           0        5.141776    0.552432   -0.982686
     19          1           0        4.883621    1.034734    0.700656
     20          1           0        4.567618    2.186289   -0.608302
     21          6           0       -2.482736    0.421236    0.240021
     22          6           0       -3.658151   -0.040848   -0.621874
     23          6           0       -4.210540   -1.399260   -0.189005
     24          1           0       -1.684462   -0.332179    0.194538
     25          1           0       -2.804511    0.472732    1.289404
     26          1           0       -3.334639   -0.090125   -1.669504
     27          1           0       -4.453642    0.713847   -0.574487
     28          1           0       -4.559971   -1.360385    0.847812
     29          1           0       -3.434611   -2.168925   -0.253427
     30          1           0       -5.050064   -1.710348   -0.818515
     31          6           0       -1.919610    1.777649   -0.180409
     32          6           0       -0.744195    2.239733    0.681487
     33          6           0       -0.191806    3.598145    0.248617
     34          1           0       -1.597835    1.726154   -1.229791
     35          1           0       -2.717883    2.531065   -0.134927
     36          1           0        0.051297    1.485039    0.634099
     37          1           0       -1.067707    2.289010    1.729116
     38          1           0       -0.967735    4.367810    0.313039
     39          1           0        0.157625    3.559270   -0.788199
     40          1           0        0.647719    3.909233    0.878127
 ---------------------------------------------------------------------

 SCF Done:  E(RHF) =  -470.732141428     A.U. after   11 cycles
 E2 =    -0.1585679238D+01 EUMP2 =    -0.47231782066602D+03

 The electronic state is 1-A.
 Alpha  occ. eigenvalues --  -11.21680 -11.21638 -11.21531 -11.21511 -11.21475
 Alpha  occ. eigenvalues --  -11.21414 -11.21326 -11.21255 -11.21150 -11.21101
 Alpha  occ. eigenvalues --  -11.21038 -11.20984  -1.08534  -1.08344  -1.03609
 Alpha  occ. eigenvalues --   -1.03458  -0.96052  -0.95915  -0.87067  -0.86933
 Alpha  occ. eigenvalues --   -0.79706  -0.79516  -0.78541  -0.78002  -0.65308
 Alpha  occ. eigenvalues --   -0.64850  -0.61078  -0.60823  -0.59447  -0.59256
 Alpha  occ. eigenvalues --   -0.57680  -0.57513  -0.55341  -0.55203  -0.52743
 Alpha  occ. eigenvalues --   -0.52616  -0.52478  -0.52338  -0.49997  -0.49858
 Alpha  occ. eigenvalues --   -0.48138  -0.47785  -0.46896  -0.46757  -0.46287
 Alpha  occ. eigenvalues --   -0.45780  -0.45685  -0.44699  -0.43844  -0.43710
 Alpha virt. eigenvalues --    0.21077   0.21864   0.23575   0.24362   0.25452
 Alpha virt. eigenvalues --    0.26356   0.26601   0.27550   0.28000   0.30507
 Alpha virt. eigenvalues --    0.30725   0.31098   0.31676   0.31966   0.32391

 Mulliken charges:
               1
     1  C   -0.307020
     2  C   -0.299250
     3  C   -0.480197
     4  H    0.158001
     5  H    0.148783
     6  H    0.152268
     7  H    0.152275
     8  H    0.155071
     9  H    0.159449
    10  H    0.161093
    11  C   -0.297954
    12  C   -0.305780
    13  C   -0.475414
    14  H    0.149504
    15  H    0.149936
    16  H    0.158853
    17  H    0.151336
    18  H    0.155205
    19  H    0.155199
    20  H    0.160710
    21  C   -0.307749
    22  C   -0.298808
    23  C   -0.478964
    24  H    0.159770
    25  H    0.148178
    26  H    0.151336
    27  H    0.151571
    28  H    0.154559
    29  H    0.159159
    30  H    0.159793
    31  C   -0.296628
    32  C   -0.311876
    33  C   -0.475089
    34  H    0.149138
    35  H    0.149288
    36  H    0.163273
    37  H    0.150806
    38  H    0.155110
    39  H    0.155690
    40  H    0.159376
 Sum of Mulliken charges =  -0.00000

 Dipole moment (field-independent basis, Debye):
    X=              0.0616    Y=             -0.0438    Z=              0.0078  Tot=              0.0760
 Quadrupole moment (field-independent basis, Debye-Ang):
   XX=            -85.7386   YY=            -85.7126   ZZ=            -83.4712
   XY=             -1.2885   XZ=             -0.4324   YZ=              0.6907

 Normal termination of Gaussian 16 at Wed May  5 15:09:00 2021.
