 Gaussian 16, Revision A.03,
 Gaussian 16:  EM64L-G16RevA.03 25-Dec-2016

 -------------
 #p 6-31g* mp2
 -------------

 ------------------------------------------------------
 Input file generated by CHIRIPA (05-May-2021 14:57:26)
 ------------------------------------------------------
 Symbolic Z-matrix:
 Charge =  0 Multiplicity = 1

                         Standard orientation:
 ---------------------------------------------------------------------
 Center     Atomic      Atomic             Coordinates (Angstroms)
 Number     Number       Type             X           Y           Z
 ---------------------------------------------------------------------
      1          6           0       -4.400703    1.834780    0.033411
      2          6           0       -4.552398    0.934472   -1.026284
      3          6           0       -3.849902   -0.274217   -1.037142
      4          6           0       -3.000359   -0.551708    0.032702
      5          6           0       -2.827960    0.324802    1.102888
      6          6           0       -3.540484    1.527613    1.092748
      7          1           0       -4.950314    2.771435    0.033690
      8          1           0       -5.219760    1.170381   -1.850311
      9          1           0       -3.948580   -0.989285   -1.844829
     10          1           0       -2.155379    0.061814    1.910285
     11          1           0       -3.420709    2.224909    1.917052
     12          7           0       -2.251349   -1.828182    0.032322
     13          8           0       -1.509083   -2.049164    0.986704
     14          8           0       -2.420724   -2.583530   -0.922350
     15          6           0        2.107435    2.648745   -0.126326
     16          6           0        3.464894    2.469659   -0.412250
     17          6           0        4.038707    1.195724   -0.363500
     18          6           0        3.222063    0.118257   -0.023720
     19          6           0        1.866434    0.264425    0.266445
     20          6           0        1.313936    1.547498    0.211514
     21          1           0        1.669962    3.641918   -0.166597
     22          1           0        4.083546    3.323076   -0.674915
     23          1           0        5.086820    1.028615   -0.580184
     24          1           0        1.275130   -0.605537    0.525181
     25          1           0        0.259423    1.683595    0.434056
     26          7           0        3.818250   -1.235238    0.031162
     27          8           0        3.077344   -2.168249    0.333127
     28          8           0        5.015160   -1.337466   -0.228826
 ---------------------------------------------------------------------

 SCF Done:  E(RHF) =  -868.337780047     A.U. after   16 cycles
 E2 =    -0.2600392134D+01 EUMP2 =    -0.87093817218068D+03

 The electronic state is 1-A.
 Alpha  occ. eigenvalues --  -20.61390 -20.61348 -20.60185 -20.60133 -15.86403
 Alpha  occ. eigenvalues --  -15.85219 -11.31906 -11.30736 -11.28517 -11.28417
 Alpha  occ. eigenvalues --  -11.28194 -11.27546 -11.27455 -11.27389 -11.27238
 Alpha  occ. eigenvalues --  -11.27210 -11.26447 -11.26418  -1.60423  -1.59242
 Alpha  occ. eigenvalues --   -1.39976  -1.38784  -1.20077  -1.18955  -1.09435
 Alpha  occ. eigenvalues --   -1.08340  -1.05492  -1.04380  -0.96248  -0.95133
 Alpha  occ. eigenvalues --   -0.86874  -0.85776  -0.83072  -0.81960  -0.78115
 Alpha  occ. eigenvalues --   -0.76957  -0.72597  -0.71756  -0.71429  -0.71151
 Alpha  occ. eigenvalues --   -0.70573  -0.70070  -0.65715  -0.65470  -0.64610
 Alpha  occ. eigenvalues --   -0.64404  -0.62827  -0.61697  -0.55955  -0.54924
 Alpha  occ. eigenvalues --   -0.53829  -0.53562  -0.52717  -0.52458  -0.49367
 Alpha  occ. eigenvalues --   -0.49362  -0.48222  -0.48168  -0.45335  -0.44156
 Alpha  occ. eigenvalues --   -0.38047  -0.37109  -0.36984  -0.35996
 Alpha virt. eigenvalues --    0.04357   0.05567   0.10490   0.11651   0.15810
 Alpha virt. eigenvalues --    0.16996   0.20515   0.21773   0.26109   0.27171
 Alpha virt. eigenvalues --    0.28185   0.28676   0.30471   0.31105   0.31995

 Mulliken charges:
               1
     1  C   -0.171185
     2  C   -0.217792
     3  C   -0.170016
     4  C    0.158858
     5  C   -0.179247
     6  C   -0.221158
     7  H    0.227476
     8  H    0.226362
     9  H    0.278844
    10  H    0.275834
    11  H    0.224460
    12  N    0.487401
    13  O   -0.460250
    14  O   -0.452538
    15  C   -0.171367
    16  C   -0.219227
    17  C   -0.170772
    18  C    0.157772
    19  C   -0.177633
    20  C   -0.222968
    21  H    0.221286
    22  H    0.221204
    23  H    0.274797
    24  H    0.291261
    25  H    0.217902
    26  N    0.486908
    27  O   -0.452146
    28  O   -0.464063
 Sum of Mulliken charges =  -0.00000

 Dipole moment (field-independent basis, Debye):
    X=             -5.0458    Y=              8.9629    Z=             -0.2713  Tot=             10.2892
 Quadrupole moment (field-independent basis, Debye-Ang):
   XX=            -97.9418   YY=           -108.7574   ZZ=           -101.5738
   XY=              5.2738   XZ=              0.5444   YZ=              0.7013

 Normal termination of Gaussian 16 at Thu May  6 14:47:57 2021.
