 Gaussian 16, Revision A.03,
 Gaussian 16:  EM64L-G16RevA.03 25-Dec-2016

 -------------
 #p 6-31g* mp2
 -------------

 ------------------------------------------------------
 Input file generated by CHIRIPA (05-May-2021 14:53:14)
 ------------------------------------------------------
 Symbolic Z-matrix:
 Charge =  0 Multiplicity = 1

                         Standard orientation:
 ---------------------------------------------------------------------
 Center     Atomic      Atomic             Coordinates (Angstroms)
 Number     Number       Type             X           Y           Z
 ---------------------------------------------------------------------
      1          6           0        3.615885   -0.302854   -0.069661
      2          6           0        4.536044   -0.857675    1.018213
      3          6           0        4.891864   -2.328300    0.798109
      4          1           0        2.696255   -0.902876   -0.104277
      5          1           0        4.103056   -0.420812   -1.047488
      6          1           0        4.047871   -0.737446    1.993840
      7          1           0        5.453509   -0.256144    1.050373
      8          1           0        5.401581   -2.461867   -0.161553
      9          1           0        3.987957   -2.945904    0.787275
     10          1           0        5.550347   -2.704484    1.587251
     11          6           0        3.251243    1.166245    0.136520
     12          6           0        2.331084    1.721065   -0.951353
     13          6           0        1.975264    3.191691   -0.731249
     14          1           0        2.764072    1.284202    1.114348
     15          1           0        4.170873    1.766267    0.171137
     16          1           0        1.413619    1.119535   -0.983513
     17          1           0        2.819257    1.600837   -1.926980
     18          1           0        2.879171    3.809295   -0.720416
     19          1           0        1.465547    3.325258    0.228412
     20          1           0        1.316781    3.567875   -1.520392
     21          6           0       -3.536851    1.834414    0.932936
     22          6           0       -2.331064    1.808397    0.224471
     23          6           0       -1.848066    0.610816   -0.311310
     24          6           0       -2.599874   -0.547212   -0.118835
     25          6           0       -3.804763   -0.553590    0.582230
     26          6           0       -4.268562    0.655416    1.109245
     27          1           0       -3.904598    2.769161    1.345739
     28          1           0       -1.760701    2.722484    0.085993
     29          1           0       -0.917704    0.562176   -0.864012
     30          1           0       -4.351122   -1.481011    0.703885
     31          1           0       -5.205318    0.672634    1.659004
     32          7           0       -2.098708   -1.821084   -0.681401
     33          8           0       -2.779799   -2.827620   -0.497995
     34          8           0       -1.034291   -1.788889   -1.295095
 ---------------------------------------------------------------------

 SCF Done:  E(RHF) =  -669.535700128     A.U. after   15 cycles
 E2 =    -0.2091556199D+01 EUMP2 =    -0.67162725632726D+03

 The electronic state is 1-A.
 Alpha  occ. eigenvalues --  -20.60804 -20.60797 -15.85853 -11.31199 -11.27769
 Alpha  occ. eigenvalues --  -11.27750 -11.27507 -11.26784 -11.26761 -11.21975
 Alpha  occ. eigenvalues --  -11.21661 -11.21494 -11.21399 -11.21159 -11.20749
 Alpha  occ. eigenvalues --   -1.59877  -1.39431  -1.19372  -1.08771  -1.08463
 Alpha  occ. eigenvalues --   -1.04772  -1.03616  -0.96057  -0.95609  -0.87075
 Alpha  occ. eigenvalues --   -0.86172  -0.82439  -0.79705  -0.78205  -0.77487
 Alpha  occ. eigenvalues --   -0.72072  -0.71199  -0.70492  -0.65133  -0.65019
 Alpha  occ. eigenvalues --   -0.64760  -0.62167  -0.60977  -0.59466  -0.57646
 Alpha  occ. eigenvalues --   -0.55371  -0.55246  -0.53103  -0.52886  -0.52787
 Alpha  occ. eigenvalues --   -0.52464  -0.49989  -0.48830  -0.48828  -0.47997
 Alpha  occ. eigenvalues --   -0.46735  -0.45753  -0.45639  -0.44837  -0.43836
 Alpha  occ. eigenvalues --   -0.37354  -0.36373
 Alpha virt. eigenvalues --    0.05028   0.11262   0.16522   0.19450   0.23108
 Alpha virt. eigenvalues --    0.23987   0.25366   0.26567   0.27299   0.28431
 Alpha virt. eigenvalues --    0.29559   0.30769   0.31484   0.31572   0.31936

 Mulliken charges:
               1
     1  C   -0.301533
     2  C   -0.299700
     3  C   -0.476400
     4  H    0.159828
     5  H    0.150679
     6  H    0.150794
     7  H    0.150057
     8  H    0.155524
     9  H    0.160067
    10  H    0.158968
    11  C   -0.297704
    12  C   -0.305787
    13  C   -0.478722
    14  H    0.147965
    15  H    0.149816
    16  H    0.151580
    17  H    0.157437
    18  H    0.159971
    19  H    0.150389
    20  H    0.157242
    21  C   -0.170675
    22  C   -0.223737
    23  C   -0.180843
    24  C    0.158690
    25  C   -0.170234
    26  C   -0.218829
    27  H    0.225787
    28  H    0.226148
    29  H    0.288583
    30  H    0.275609
    31  H    0.223494
    32  N    0.486833
    33  O   -0.460054
    34  O   -0.461242
 Sum of Mulliken charges =  -0.00000

 Dipole moment (field-independent basis, Debye):
    X=             -1.6864    Y=              4.4004    Z=              1.9559  Tot=              5.1023
 Quadrupole moment (field-independent basis, Debye-Ang):
   XX=            -81.7545   YY=           -100.1463   ZZ=            -95.0413
   XY=             -8.1637   XZ=             -7.4511   YZ=             -2.7629

 Normal termination of Gaussian 16 at Wed May  5 20:14:19 2021.
