 Gaussian 16, Revision A.03,
 Gaussian 16:  EM64L-G16RevA.03 25-Dec-2016

 -------------
 #p 6-31g* mp2
 -------------

 ------------------------------------------------------
 Input file generated by CHIRIPA (05-May-2021 14:53:13)
 ------------------------------------------------------
 Symbolic Z-matrix:
 Charge =  0 Multiplicity = 1

                         Standard orientation:
 ---------------------------------------------------------------------
 Center     Atomic      Atomic             Coordinates (Angstroms)
 Number     Number       Type             X           Y           Z
 ---------------------------------------------------------------------
      1          6           0        4.284523    0.244492    0.417395
      2          6           0        3.809096    1.697746    0.420396
      3          6           0        2.390931    1.854646    0.969927
      4          1           0        3.589178   -0.360876   -0.180075
      5          1           0        4.241572   -0.150159    1.441993
      6          1           0        3.854244    2.089966   -0.603685
      7          1           0        4.505760    2.299759    1.017770
      8          1           0        2.334514    1.489411    2.000471
      9          1           0        1.679296    1.278426    0.369804
     10          1           0        2.071201    2.901348    0.962969
     11          6           0        5.700519    0.071451   -0.129177
     12          6           0        6.175946   -1.381802   -0.132177
     13          6           0        7.594111   -1.538703   -0.681709
     14          1           0        5.743470    0.466102   -1.153774
     15          1           0        6.395864    0.676819    0.468293
     16          1           0        5.479283   -1.983816   -0.729551
     17          1           0        6.130798   -1.774023    0.891903
     18          1           0        8.305746   -0.962483   -0.081586
     19          1           0        7.650528   -1.173468   -1.712253
     20          1           0        7.913841   -2.585404   -0.674751
     21          6           0       -1.524658    0.657890   -0.446202
     22          6           0       -2.590858    1.460526   -0.865145
     23          6           0       -3.911259    1.037718   -0.685361
     24          6           0       -4.130086   -0.198949   -0.080332
     25          6           0       -3.089042   -1.021286    0.347778
     26          6           0       -1.776708   -0.578275    0.157858
     27          1           0       -0.502073    0.994185   -0.589799
     28          1           0       -2.398100    2.421014   -1.334560
     29          1           0       -4.755415    1.639105   -1.000245
     30          1           0       -3.312668   -1.973832    0.812606
     31          1           0       -0.950647   -1.203708    0.484205
     32          7           0       -5.523665   -0.657251    0.115362
     33          8           0       -5.689877   -1.750907    0.651018
     34          8           0       -6.423352    0.085866   -0.270613
 ---------------------------------------------------------------------

 SCF Done:  E(RHF) =  -669.535465181     A.U. after   15 cycles
 E2 =    -0.2090726976D+01 EUMP2 =    -0.67162619215689D+03

 The electronic state is 1-A.
 Alpha  occ. eigenvalues --  -20.60722 -20.60717 -15.85776 -11.31132 -11.27704
 Alpha  occ. eigenvalues --  -11.27700 -11.27417 -11.26712 -11.26702 -11.22521
 Alpha  occ. eigenvalues --  -11.22268 -11.22209 -11.22160 -11.22020 -11.21530
 Alpha  occ. eigenvalues --   -1.59798  -1.39352  -1.19304  -1.09186  -1.08698
 Alpha  occ. eigenvalues --   -1.04707  -1.04301  -0.96768  -0.95536  -0.87787
 Alpha  occ. eigenvalues --   -0.86104  -0.82372  -0.80371  -0.78971  -0.77419
 Alpha  occ. eigenvalues --   -0.71994  -0.71121  -0.70432  -0.65816  -0.64956
 Alpha  occ. eigenvalues --   -0.64713  -0.62057  -0.61706  -0.60141  -0.58364
 Alpha  occ. eigenvalues --   -0.56160  -0.55160  -0.53449  -0.53177  -0.53028
 Alpha  occ. eigenvalues --   -0.52799  -0.50702  -0.48757  -0.48749  -0.48675
 Alpha  occ. eigenvalues --   -0.47396  -0.46521  -0.46421  -0.44759  -0.44540
 Alpha  occ. eigenvalues --   -0.37276  -0.36314
 Alpha virt. eigenvalues --    0.05114   0.11339   0.16592   0.19735   0.22395
 Alpha virt. eigenvalues --    0.23742   0.25391   0.26261   0.26949   0.27420
 Alpha virt. eigenvalues --    0.28725   0.30453   0.30899   0.31355   0.32204

 Mulliken charges:
               1
     1  C   -0.298426
     2  C   -0.299773
     3  C   -0.479065
     4  H    0.146069
     5  H    0.151011
     6  H    0.152642
     7  H    0.156264
     8  H    0.160321
     9  H    0.143811
    10  H    0.163199
    11  C   -0.298769
    12  C   -0.300129
    13  C   -0.476100
    14  H    0.150290
    15  H    0.151499
    16  H    0.151604
    17  H    0.152693
    18  H    0.156155
    19  H    0.155767
    20  H    0.161815
    21  C   -0.174920
    22  C   -0.220098
    23  C   -0.170789
    24  C    0.158268
    25  C   -0.170979
    26  C   -0.220782
    27  H    0.233884
    28  H    0.223702
    29  H    0.275348
    30  H    0.275436
    31  H    0.223210
    32  N    0.488037
    33  O   -0.460606
    34  O   -0.460586
 Sum of Mulliken charges =  -0.00000

 Dipole moment (field-independent basis, Debye):
    X=              5.1537    Y=              1.6498    Z=             -0.6430  Tot=              5.4494
 Quadrupole moment (field-independent basis, Debye-Ang):
   XX=           -135.3269   YY=            -91.9989   ZZ=            -93.6494
   XY=             -8.9125   XZ=              4.1660   YZ=             -2.0003

 Normal termination of Gaussian 16 at Thu May  6 20:18:45 2021.
