 Gaussian 16, Revision A.03,
 Gaussian 16:  EM64L-G16RevA.03 25-Dec-2016

 -------------
 #p 6-31g* mp2
 -------------

 ------------------------------------------------------
 Input file generated by CHIRIPA (05-May-2021 14:57:22)
 ------------------------------------------------------
 Symbolic Z-matrix:
 Charge =  0 Multiplicity = 1

                         Standard orientation:
 ---------------------------------------------------------------------
 Center     Atomic      Atomic             Coordinates (Angstroms)
 Number     Number       Type             X           Y           Z
 ---------------------------------------------------------------------
      1          6           0        1.235294   -0.174269    2.528510
      2          6           0        2.249163    0.751676    2.261643
      3          6           0        2.962520    0.696968    1.060529
      4          6           0        2.634268   -0.301341    0.144603
      5          6           0        1.629533   -1.238203    0.381430
      6          6           0        0.929254   -1.164507    1.589208
      7          1           0        0.686220   -0.124395    3.464153
      8          1           0        2.488995    1.521791    2.989275
      9          1           0        3.752195    1.401167    0.828289
     10          1           0        1.413200   -1.994480   -0.363327
     11          1           0        0.142371   -1.884932    1.793772
     12          7           0        3.382545   -0.369309   -1.130490
     13          8           0        3.074152   -1.258454   -1.921028
     14          8           0        4.263268    0.467851   -1.315226
     15          6           0       -4.074558   -1.654397    0.019157
     16          6           0       -2.765727   -1.882689   -0.418295
     17          6           0       -1.890680   -0.812859   -0.628780
     18          6           0       -2.359779    0.478129   -0.390902
     19          6           0       -3.658069    0.737921    0.045262
     20          6           0       -4.515774   -0.347125    0.249134
     21          1           0       -4.747580   -2.491377    0.180099
     22          1           0       -2.420344   -2.896872   -0.597706
     23          1           0       -0.872370   -0.961060   -0.967157
     24          1           0       -3.973610    1.760096    0.215585
     25          1           0       -5.531700   -0.166839    0.588894
     26          7           0       -1.442585    1.618765   -0.610232
     27          8           0       -1.880136    2.746683   -0.393466
     28          8           0       -0.303504    1.363280   -0.994758
 ---------------------------------------------------------------------

 SCF Done:  E(RHF) =  -868.336008438     A.U. after   16 cycles
 E2 =    -0.2603972790D+01 EUMP2 =    -0.87093998122721D+03

 The electronic state is 1-A.
 Alpha  occ. eigenvalues --  -20.61050 -20.61007 -20.60268 -20.60237 -15.86082
 Alpha  occ. eigenvalues --  -15.85310 -11.31553 -11.30713 -11.28160 -11.28139
 Alpha  occ. eigenvalues --  -11.27933 -11.27424 -11.27223 -11.27210 -11.27165
 Alpha  occ. eigenvalues --  -11.27086 -11.26453 -11.26304  -1.60098  -1.59313
 Alpha  occ. eigenvalues --   -1.39650  -1.38876  -1.19763  -1.18893  -1.09127
 Alpha  occ. eigenvalues --   -1.08289  -1.05205  -1.04360  -0.95947  -0.95132
 Alpha  occ. eigenvalues --   -0.86574  -0.85761  -0.82791  -0.81996  -0.77826
 Alpha  occ. eigenvalues --   -0.77023  -0.72325  -0.71557  -0.71428  -0.70883
 Alpha  occ. eigenvalues --   -0.70585  -0.70076  -0.65413  -0.65208  -0.64594
 Alpha  occ. eigenvalues --   -0.64413  -0.62599  -0.61688  -0.55679  -0.54878
 Alpha  occ. eigenvalues --   -0.53544  -0.53349  -0.52514  -0.52470  -0.49076
 Alpha  occ. eigenvalues --   -0.49044  -0.48311  -0.48289  -0.45001  -0.44281
 Alpha  occ. eigenvalues --   -0.37797  -0.37029  -0.36730  -0.35699
 Alpha virt. eigenvalues --    0.04644   0.05606   0.10748   0.11696   0.16090
 Alpha virt. eigenvalues --    0.17082   0.20387   0.22016   0.25823   0.27546
 Alpha virt. eigenvalues --    0.28072   0.29595   0.30154   0.31192   0.32134

 Mulliken charges:
               1
     1  C   -0.172443
     2  C   -0.214736
     3  C   -0.164380
     4  C    0.175537
     5  C   -0.175916
     6  C   -0.217414
     7  H    0.223081
     8  H    0.223464
     9  H    0.276624
    10  H    0.264979
    11  H    0.216917
    12  N    0.489388
    13  O   -0.465928
    14  O   -0.458309
    15  C   -0.170534
    16  C   -0.225949
    17  C   -0.170981
    18  C    0.155788
    19  C   -0.170660
    20  C   -0.219584
    21  H    0.226536
    22  H    0.222498
    23  H    0.281580
    24  H    0.276473
    25  H    0.224391
    26  N    0.489095
    27  O   -0.461140
    28  O   -0.458377
 Sum of Mulliken charges =  -0.00000

 Dipole moment (field-independent basis, Debye):
    X=             -5.7488    Y=             -3.4479    Z=              5.2088  Tot=              8.4893
 Quadrupole moment (field-independent basis, Debye-Ang):
   XX=            -99.6492   YY=           -104.7188   ZZ=           -104.9243
   XY=              9.7917   XZ=             10.7020   YZ=              3.0411

 Normal termination of Gaussian 16 at Wed May  5 17:48:37 2021.
