 Gaussian 16, Revision A.03,
 Gaussian 16:  EM64L-G16RevA.03 25-Dec-2016

 -------------
 #p 6-31g* mp2
 -------------

 ------------------------------------------------------
 Input file generated by CHIRIPA (05-May-2021 14:51:10)
 ------------------------------------------------------
 Symbolic Z-matrix:
 Charge =  0 Multiplicity = 1

                         Standard orientation:
 ---------------------------------------------------------------------
 Center     Atomic      Atomic             Coordinates (Angstroms)
 Number     Number       Type             X           Y           Z
 ---------------------------------------------------------------------
      1          6           0       -3.551949    0.312182    0.023858
      2          6           0       -2.993453    1.184125    1.148927
      3          6           0       -1.645850    1.813950    0.795258
      4          1           0       -2.826924   -0.478513   -0.212965
      5          1           0       -3.657966    0.921323   -0.884494
      6          1           0       -2.889822    0.573860    2.055268
      7          1           0       -3.719975    1.972721    1.383230
      8          1           0       -1.737472    2.445781   -0.094122
      9          1           0       -0.902602    1.038972    0.581734
     10          1           0       -1.264970    2.433070    1.613475
     11          6           0       -4.898739   -0.324408    0.362442
     12          6           0       -5.457235   -1.196351   -0.762628
     13          6           0       -6.804837   -1.826176   -0.408958
     14          1           0       -4.792722   -0.933549    1.270794
     15          1           0       -5.623763    0.466288    0.599265
     16          1           0       -4.730713   -1.984947   -0.996931
     17          1           0       -5.560866   -0.586086   -1.668969
     18          1           0       -7.548086   -1.051198   -0.195435
     19          1           0       -6.713216   -2.458006    0.480421
     20          1           0       -7.185718   -2.445296   -1.227176
     21          6           0        4.942045   -0.202059   -0.030558
     22          6           0        5.103916   -1.708441    0.175831
     23          6           0        6.543270   -2.109354    0.500368
     24          1           0        5.606852    0.123930   -0.842167
     25          1           0        5.274428    0.322957    0.875683
     26          1           0        4.770028   -2.230529   -0.730016
     27          1           0        4.438505   -2.030916    0.986913
     28          1           0        6.883823   -1.614836    1.415833
     29          1           0        7.217231   -1.815583   -0.310852
     30          1           0        6.636248   -3.190365    0.644001
     31          6           0        3.508643    0.214285   -0.355740
     32          6           0        3.346771    1.720668   -0.562131
     33          6           0        1.907417    2.121580   -0.886667
     34          1           0        3.176259   -0.310732   -1.261983
     35          1           0        2.843835   -0.111705    0.455866
     36          1           0        4.012182    2.043142   -1.373213
     37          1           0        3.680659    2.242754    0.343717
     38          1           0        1.233457    1.827808   -0.075448
     39          1           0        1.566864    1.627061   -1.802133
     40          1           0        1.814439    3.202590   -1.030301
 ---------------------------------------------------------------------

 SCF Done:  E(RHF) =  -470.732957721     A.U. after   11 cycles
 E2 =    -0.1582404288D+01 EUMP2 =    -0.47231536200944D+03

 The electronic state is 1-A.
 Alpha  occ. eigenvalues --  -11.21592 -11.21588 -11.21581 -11.21525 -11.21391
 Alpha  occ. eigenvalues --  -11.21376 -11.21332 -11.21316 -11.21064 -11.21061
 Alpha  occ. eigenvalues --  -11.21041 -11.20905  -1.08419  -1.08390  -1.03531
 Alpha  occ. eigenvalues --   -1.03466  -0.96011  -0.95888  -0.87068  -0.86868
 Alpha  occ. eigenvalues --   -0.79666  -0.79465  -0.78245  -0.78190  -0.65059
 Alpha  occ. eigenvalues --   -0.65014  -0.60974  -0.60832  -0.59338  -0.59295
 Alpha  occ. eigenvalues --   -0.57666  -0.57471  -0.55371  -0.55124  -0.52754
 Alpha  occ. eigenvalues --   -0.52601  -0.52539  -0.52152  -0.50031  -0.49742
 Alpha  occ. eigenvalues --   -0.48049  -0.47696  -0.46684  -0.46487  -0.45833
 Alpha  occ. eigenvalues --   -0.45704  -0.45696  -0.45597  -0.43773  -0.43731
 Alpha virt. eigenvalues --    0.22534   0.22984   0.23689   0.24710   0.26085
 Alpha virt. eigenvalues --    0.26728   0.26945   0.27602   0.27666   0.29095
 Alpha virt. eigenvalues --    0.30581   0.31458   0.31657   0.31821   0.32256

 Mulliken charges:
               1
     1  C   -0.298365
     2  C   -0.300311
     3  C   -0.476916
     4  H    0.149791
     5  H    0.149667
     6  H    0.151561
     7  H    0.151789
     8  H    0.156981
     9  H    0.156313
    10  H    0.159718
    11  C   -0.298261
    12  C   -0.299633
    13  C   -0.475695
    14  H    0.149433
    15  H    0.149628
    16  H    0.151939
    17  H    0.151945
    18  H    0.155165
    19  H    0.155148
    20  H    0.160226
    21  C   -0.298184
    22  C   -0.299614
    23  C   -0.475680
    24  H    0.149689
    25  H    0.149494
    26  H    0.151835
    27  H    0.151749
    28  H    0.155169
    29  H    0.155189
    30  H    0.160147
    31  C   -0.298181
    32  C   -0.299459
    33  C   -0.482091
    34  H    0.149316
    35  H    0.148842
    36  H    0.151374
    37  H    0.151515
    38  H    0.165180
    39  H    0.154088
    40  H    0.159497
 Sum of Mulliken charges =  -0.00000

 Dipole moment (field-independent basis, Debye):
    X=             -0.0277    Y=              0.0119    Z=              0.0038  Tot=              0.0304
 Quadrupole moment (field-independent basis, Debye-Ang):
   XX=            -86.6373   YY=            -84.5959   ZZ=            -83.7393
   XY=             -0.5410   XZ=             -0.0803   YZ=             -0.0246

 Normal termination of Gaussian 16 at Wed May  5 23:01:02 2021.
