 Gaussian 16, Revision A.03,
 Gaussian 16:  EM64L-G16RevA.03 25-Dec-2016

 -------------
 #p 6-31g* mp2
 -------------

 ------------------------------------------------------
 Input file generated by CHIRIPA (05-May-2021 14:57:22)
 ------------------------------------------------------
 Symbolic Z-matrix:
 Charge =  0 Multiplicity = 1

                         Standard orientation:
 ---------------------------------------------------------------------
 Center     Atomic      Atomic             Coordinates (Angstroms)
 Number     Number       Type             X           Y           Z
 ---------------------------------------------------------------------
      1          6           0        3.782916   -1.939469   -0.847587
      2          6           0        4.580213   -0.916389   -0.323996
      3          6           0        4.017973    0.316639    0.019627
      4          6           0        2.648836    0.493013   -0.174399
      5          6           0        1.828091   -0.506854   -0.693949
      6          6           0        2.411817   -1.731802   -1.030570
      7          1           0        4.228023   -2.894176   -1.111802
      8          1           0        5.645311   -1.074842   -0.180805
      9          1           0        4.611937    1.125837    0.426841
     10          1           0        0.769347   -0.319147   -0.825271
     11          1           0        1.790186   -2.524540   -1.437002
     12          7           0        2.042245    1.794088    0.185672
     13          8           0        0.833502    1.924355    0.005096
     14          8           0        2.787027    2.658967    0.641654
     15          6           0       -1.317118   -1.646691    1.797219
     16          6           0       -2.108129   -2.283104    0.835033
     17          6           0       -2.905310   -1.535122   -0.036500
     18          6           0       -2.887220   -0.146316    0.082592
     19          6           0       -2.109897    0.516973    1.030804
     20          6           0       -1.320521   -0.251143    1.891866
     21          1           0       -0.700879   -2.235562    2.470180
     22          1           0       -2.107473   -3.366755    0.759236
     23          1           0       -3.527198   -2.002032   -0.790602
     24          1           0       -2.131485    1.598782    1.082200
     25          1           0       -0.707207    0.245805    2.638147
     26          7           0       -3.727030    0.656197   -0.834518
     27          8           0       -3.693418    1.878408   -0.709197
     28          8           0       -4.402981    0.047799   -1.661307
 ---------------------------------------------------------------------

 SCF Done:  E(RHF) =  -868.338519786     A.U. after   16 cycles
 E2 =    -0.2601488925D+01 EUMP2 =    -0.87094000871108D+03

 The electronic state is 1-A.
 Alpha  occ. eigenvalues --  -20.61261 -20.61250 -20.60423 -20.60376 -15.86293
 Alpha  occ. eigenvalues --  -15.85460 -11.31565 -11.30890 -11.28150 -11.28088
 Alpha  occ. eigenvalues --  -11.27887 -11.27590 -11.27345 -11.27322 -11.27135
 Alpha  occ. eigenvalues --  -11.27118 -11.26624 -11.26409  -1.60331  -1.59479
 Alpha  occ. eigenvalues --   -1.39885  -1.39026  -1.19746  -1.19115  -1.09163
 Alpha  occ. eigenvalues --   -1.08505  -1.05126  -1.04490  -0.96007  -0.95306
 Alpha  occ. eigenvalues --   -0.86530  -0.85892  -0.82843  -0.82111  -0.77896
 Alpha  occ. eigenvalues --   -0.77132  -0.72531  -0.71680  -0.71652  -0.70850
 Alpha  occ. eigenvalues --   -0.70804  -0.70196  -0.65397  -0.65128  -0.64741
 Alpha  occ. eigenvalues --   -0.64484  -0.62468  -0.61797  -0.55647  -0.55036
 Alpha  occ. eigenvalues --   -0.53496  -0.53298  -0.52764  -0.52560  -0.49273
 Alpha  occ. eigenvalues --   -0.49266  -0.48452  -0.48412  -0.45316  -0.44413
 Alpha  occ. eigenvalues --   -0.37753  -0.37256  -0.36636  -0.36036
 Alpha virt. eigenvalues --    0.04599   0.05397   0.10815   0.11632   0.16011
 Alpha virt. eigenvalues --    0.16920   0.21036   0.21694   0.26901   0.27599
 Alpha virt. eigenvalues --    0.27889   0.28631   0.30552   0.31177   0.32009

 Mulliken charges:
               1
     1  C   -0.170695
     2  C   -0.219308
     3  C   -0.171026
     4  C    0.154753
     5  C   -0.170629
     6  C   -0.221139
     7  H    0.226072
     8  H    0.224255
     9  H    0.276044
    10  H    0.281145
    11  H    0.223510
    12  N    0.488657
    13  O   -0.463727
    14  O   -0.458840
    15  C   -0.174872
    16  C   -0.224591
    17  C   -0.175096
    18  C    0.151239
    19  C   -0.155341
    20  C   -0.221362
    21  H    0.223373
    22  H    0.219286
    23  H    0.273688
    24  H    0.287613
    25  H    0.227419
    26  N    0.488206
    27  O   -0.454023
    28  O   -0.464612
 Sum of Mulliken charges =  -0.00000

 Dipole moment (field-independent basis, Debye):
    X=              5.1616    Y=             -7.0702    Z=              2.0127  Tot=              8.9823
 Quadrupole moment (field-independent basis, Debye-Ang):
   XX=           -106.9736   YY=           -105.3840   ZZ=           -103.8013
   XY=             -0.9201   XZ=            -10.8408   YZ=              2.4034

 Normal termination of Gaussian 16 at Thu May  6 01:47:31 2021.
