 Gaussian 16, Revision A.03,
 Gaussian 16:  EM64L-G16RevA.03 25-Dec-2016

 -------------
 #p 6-31g* mp2
 -------------

 ------------------------------------------------------
 Input file generated by CHIRIPA (05-May-2021 14:53:13)
 ------------------------------------------------------
 Symbolic Z-matrix:
 Charge =  0 Multiplicity = 1

                         Standard orientation:
 ---------------------------------------------------------------------
 Center     Atomic      Atomic             Coordinates (Angstroms)
 Number     Number       Type             X           Y           Z
 ---------------------------------------------------------------------
      1          6           0        4.318005   -0.435417   -0.000604
      2          6           0        5.274691   -0.979982   -1.061822
      3          6           0        5.572677   -2.468708   -0.881004
      4          1           0        4.749515   -0.606142    0.995186
      5          1           0        3.379143   -1.005207   -0.036294
      6          1           0        6.210955   -0.408426   -1.025069
      7          1           0        4.840942   -0.807769   -2.055210
      8          1           0        4.650533   -3.055981   -0.938984
      9          1           0        6.028330   -2.654370    0.097010
     10          1           0        6.258495   -2.837186   -1.650248
     11          6           0        4.010455    1.051563   -0.168025
     12          6           0        3.053768    1.596129    0.893193
     13          6           0        2.755783    3.084854    0.712375
     14          1           0        4.949316    1.621353   -0.132334
     15          1           0        3.578945    1.222288   -1.163815
     16          1           0        3.487518    1.423915    1.886582
     17          1           0        2.117505    1.024572    0.856441
     18          1           0        2.300130    3.270516   -0.265638
     19          1           0        3.677927    3.672128    0.770356
     20          1           0        2.069965    3.453333    1.481620
     21          6           0       -1.351859   -0.943216    1.568160
     22          6           0       -1.117640   -0.060033    0.509081
     23          6           0       -2.163654    0.336051   -0.329680
     24          6           0       -3.437129   -0.172764   -0.079365
     25          6           0       -3.702259   -1.054136    0.967620
     26          6           0       -2.641148   -1.436580    1.793652
     27          1           0       -0.533426   -1.245607    2.214785
     28          1           0       -0.117385    0.324716    0.331589
     29          1           0       -2.010363    1.018517   -1.156820
     30          1           0       -4.710157   -1.420847    1.119556
     31          1           0       -2.825984   -2.122605    2.615388
     32          7           0       -4.552488    0.239332   -0.960586
     33          8           0       -5.665310   -0.223140   -0.718952
     34          8           0       -4.292768    1.017003   -1.876234
 ---------------------------------------------------------------------

 SCF Done:  E(RHF) =  -669.535495524     A.U. after   15 cycles
 E2 =    -0.2091029741D+01 EUMP2 =    -0.67162652526473D+03

 The electronic state is 1-A.
 Alpha  occ. eigenvalues --  -20.60750 -20.60745 -15.85803 -11.31167 -11.27738
 Alpha  occ. eigenvalues --  -11.27734 -11.27475 -11.26752 -11.26730 -11.22645
 Alpha  occ. eigenvalues --  -11.22215 -11.22189 -11.22121 -11.21878 -11.21588
 Alpha  occ. eigenvalues --   -1.59825  -1.39379  -1.19340  -1.09223  -1.08735
 Alpha  occ. eigenvalues --   -1.04745  -1.04283  -0.96700  -0.95570  -0.87716
 Alpha  occ. eigenvalues --   -0.86146  -0.82404  -0.80367  -0.79031  -0.77451
 Alpha  occ. eigenvalues --   -0.72022  -0.71148  -0.70447  -0.65897  -0.64992
 Alpha  occ. eigenvalues --   -0.64748  -0.62153  -0.61628  -0.60076  -0.58315
 Alpha  occ. eigenvalues --   -0.55983  -0.55241  -0.53393  -0.53120  -0.53073
 Alpha  occ. eigenvalues --   -0.52850  -0.50642  -0.48800  -0.48777  -0.48645
 Alpha  occ. eigenvalues --   -0.47406  -0.46559  -0.46484  -0.44785  -0.44534
 Alpha  occ. eigenvalues --   -0.37321  -0.36348
 Alpha virt. eigenvalues --    0.05086   0.11297   0.16577   0.19004   0.22627
 Alpha virt. eigenvalues --    0.23618   0.25088   0.26400   0.27319   0.28188
 Alpha virt. eigenvalues --    0.28774   0.30328   0.31082   0.31220   0.31936

 Mulliken charges:
               1
     1  C   -0.298051
     2  C   -0.300218
     3  C   -0.476174
     4  H    0.150498
     5  H    0.144680
     6  H    0.153849
     7  H    0.153514
     8  H    0.154966
     9  H    0.155432
    10  H    0.162715
    11  C   -0.298540
    12  C   -0.304899
    13  C   -0.476479
    14  H    0.153626
    15  H    0.150717
    16  H    0.155230
    17  H    0.141969
    18  H    0.155879
    19  H    0.159753
    20  H    0.162090
    21  C   -0.173445
    22  C   -0.226546
    23  C   -0.172826
    24  C    0.159033
    25  C   -0.171245
    26  C   -0.218629
    27  H    0.225854
    28  H    0.235256
    29  H    0.276086
    30  H    0.275537
    31  H    0.223394
    32  N    0.487962
    33  O   -0.460532
    34  O   -0.460456
 Sum of Mulliken charges =  -0.00000

 Dipole moment (field-independent basis, Debye):
    X=              4.1429    Y=             -1.4012    Z=              3.0938  Tot=              5.3571
 Quadrupole moment (field-independent basis, Debye-Ang):
   XX=           -118.7316   YY=            -93.9591   ZZ=            -93.9673
   XY=              7.1571   XZ=            -12.5903   YZ=             -2.0380

 Normal termination of Gaussian 16 at Thu May  6 15:23:10 2021.
