 Gaussian 16, Revision A.03,
 Gaussian 16:  EM64L-G16RevA.03 25-Dec-2016

 -------------
 #p 6-31g* mp2
 -------------

 ------------------------------------------------------
 Input file generated by CHIRIPA (05-May-2021 14:57:23)
 ------------------------------------------------------
 Symbolic Z-matrix:
 Charge =  0 Multiplicity = 1

                         Standard orientation:
 ---------------------------------------------------------------------
 Center     Atomic      Atomic             Coordinates (Angstroms)
 Number     Number       Type             X           Y           Z
 ---------------------------------------------------------------------
      1          6           0       -1.495143    1.869530   -0.840128
      2          6           0       -2.757047    1.738073   -1.429059
      3          6           0       -3.651225    0.761061   -0.981351
      4          6           0       -3.248902   -0.071278    0.062027
      5          6           0       -1.998538    0.034872    0.669162
      6          6           0       -1.120577    1.019009    0.205260
      7          1           0       -0.806823    2.631264   -1.194208
      8          1           0       -3.050635    2.397206   -2.241090
      9          1           0       -4.634238    0.637388   -1.419309
     10          1           0       -1.734268   -0.636857    1.476850
     11          1           0       -0.141205    1.118805    0.664515
     12          7           0       -4.186944   -1.109369    0.544567
     13          8           0       -3.808527   -1.830274    1.465292
     14          8           0       -5.282836   -1.182463   -0.007080
     15          6           0        2.688761    2.043340    1.285713
     16          6           0        3.195855    0.921901    1.950356
     17          6           0        3.424468   -0.270808    1.257732
     18          6           0        3.133508   -0.307003   -0.105104
     19          6           0        2.627487    0.793325   -0.795402
     20          6           0        2.406693    1.975593   -0.082633
     21          1           0        2.514207    2.965811    1.831585
     22          1           0        3.415831    0.971620    3.012987
     23          1           0        3.816345   -1.153981    1.747484
     24          1           0        2.417880    0.713255   -1.855152
     25          1           0        2.012805    2.844946   -0.601402
     26          7           0        3.371391   -1.564145   -0.849018
     27          8           0        3.106884   -1.570276   -2.049283
     28          8           0        3.817846   -2.519556   -0.217746
 ---------------------------------------------------------------------

 SCF Done:  E(RHF) =  -868.336179734     A.U. after   16 cycles
 E2 =    -0.2602413509D+01 EUMP2 =    -0.87093859324287D+03

 The electronic state is 1-A.
 Alpha  occ. eigenvalues --  -20.61475 -20.61467 -20.60806 -20.60800 -15.86540
 Alpha  occ. eigenvalues --  -15.85856 -11.32196 -11.31287 -11.28835 -11.28770
 Alpha  occ. eigenvalues --  -11.28617 -11.27938 -11.27843 -11.27825 -11.27806
 Alpha  occ. eigenvalues --  -11.27688 -11.26938 -11.26748  -1.60543  -1.59877
 Alpha  occ. eigenvalues --   -1.40088  -1.39430  -1.20439  -1.19455  -1.09771
 Alpha  occ. eigenvalues --   -1.08866  -1.05874  -1.04850  -0.96533  -0.95694
 Alpha  occ. eigenvalues --   -0.87242  -0.86264  -0.83357  -0.82511  -0.78352
 Alpha  occ. eigenvalues --   -0.77533  -0.72749  -0.72078  -0.71873  -0.71480
 Alpha  occ. eigenvalues --   -0.71198  -0.70654  -0.66057  -0.65857  -0.65113
 Alpha  occ. eigenvalues --   -0.64904  -0.63173  -0.62235  -0.56327  -0.55485
 Alpha  occ. eigenvalues --   -0.54336  -0.53920  -0.53193  -0.52735  -0.49532
 Alpha  occ. eigenvalues --   -0.49486  -0.48837  -0.48828  -0.45428  -0.44820
 Alpha  occ. eigenvalues --   -0.38443  -0.37698  -0.37289  -0.36398
 Alpha virt. eigenvalues --    0.04163   0.04980   0.10035   0.11214   0.15533
 Alpha virt. eigenvalues --    0.16446   0.19228   0.21882   0.24924   0.27304
 Alpha virt. eigenvalues --    0.27560   0.28585   0.30043   0.31430   0.32577

 Mulliken charges:
               1
     1  C   -0.175715
     2  C   -0.217105
     3  C   -0.171363
     4  C    0.160234
     5  C   -0.172665
     6  C   -0.223573
     7  H    0.214608
     8  H    0.222915
     9  H    0.276159
    10  H    0.275960
    11  H    0.234195
    12  N    0.488002
    13  O   -0.459605
    14  O   -0.459896
    15  C   -0.176144
    16  C   -0.218724
    17  C   -0.170295
    18  C    0.159383
    19  C   -0.166932
    20  C   -0.233214
    21  H    0.229618
    22  H    0.228730
    23  H    0.280608
    24  H    0.278808
    25  H    0.221585
    26  N    0.488250
    27  O   -0.457387
    28  O   -0.456438
 Sum of Mulliken charges =  -0.00000

 Dipole moment (field-independent basis, Debye):
    X=              2.7459    Y=              7.8442    Z=              0.9885  Tot=              8.3695
 Quadrupole moment (field-independent basis, Debye-Ang):
   XX=           -128.7840   YY=           -108.0789   ZZ=           -100.1258
   XY=             -0.0548   XZ=             18.5695   YZ=             -4.0407

 Normal termination of Gaussian 16 at Thu May  6 21:12:02 2021.
