 Gaussian 16, Revision A.03,
 Gaussian 16:  EM64L-G16RevA.03 25-Dec-2016

 -------------
 #p 6-31g* mp2
 -------------

 ------------------------------------------------------
 Input file generated by CHIRIPA (05-May-2021 14:53:12)
 ------------------------------------------------------
 Symbolic Z-matrix:
 Charge =  0 Multiplicity = 1

                         Standard orientation:
 ---------------------------------------------------------------------
 Center     Atomic      Atomic             Coordinates (Angstroms)
 Number     Number       Type             X           Y           Z
 ---------------------------------------------------------------------
      1          6           0       -3.651573    0.825845   -0.514802
      2          6           0       -2.321184    1.201212    0.138765
      3          6           0       -1.718973    2.482044   -0.439686
      4          1           0       -3.500518    0.705785   -1.596335
      5          1           0       -4.361101    1.655306   -0.388474
      6          1           0       -1.614811    0.370732    0.012447
      7          1           0       -2.475383    1.320206    1.218895
      8          1           0       -2.402127    3.326110   -0.300203
      9          1           0       -1.536665    2.371241   -1.513505
     10          1           0       -0.768379    2.731807    0.041820
     11          6           0       -4.266060   -0.452396    0.052853
     12          6           0       -5.596449   -0.827763   -0.600714
     13          6           0       -6.198660   -2.108595   -0.022263
     14          1           0       -3.556532   -1.281857   -0.073475
     15          1           0       -4.417115   -0.332335    1.134386
     16          1           0       -5.442250   -0.946756   -1.680843
     17          1           0       -6.302822    0.002718   -0.474396
     18          1           0       -6.380968   -1.997792    1.051556
     19          1           0       -5.515506   -2.952660   -0.161746
     20          1           0       -7.149254   -2.358357   -0.503769
     21          6           0        1.126540    0.922068    1.346268
     22          6           0        1.461510   -0.409011    1.615616
     23          6           0        2.548913   -1.010997    0.975527
     24          6           0        3.282919   -0.249123    0.067742
     25          6           0        2.974194    1.079086   -0.221804
     26          6           0        1.882618    1.660565    0.430033
     27          1           0        0.280198    1.381740    1.848068
     28          1           0        0.876114   -0.984951    2.326707
     29          1           0        2.830307   -2.039687    1.165352
     30          1           0        3.576549    1.627786   -0.935608
     31          1           0        1.624789    2.694485    0.218894
     32          7           0        4.436313   -0.875565   -0.616111
     33          8           0        5.067097   -0.182887   -1.411689
     34          8           0        4.687718   -2.047385   -0.343587
 ---------------------------------------------------------------------

 SCF Done:  E(RHF) =  -669.533947081     A.U. after   15 cycles
 E2 =    -0.2093336950D+01 EUMP2 =    -0.67162728403155D+03

 The electronic state is 1-A.
 Alpha  occ. eigenvalues --  -20.60754 -20.60749 -15.85808 -11.31168 -11.27749
 Alpha  occ. eigenvalues --  -11.27742 -11.27451 -11.26750 -11.26731 -11.22529
 Alpha  occ. eigenvalues --  -11.22101 -11.22082 -11.22079 -11.21976 -11.21482
 Alpha  occ. eigenvalues --   -1.59830  -1.39384  -1.19353  -1.09135  -1.08742
 Alpha  occ. eigenvalues --   -1.04759  -1.04244  -0.96707  -0.95569  -0.87721
 Alpha  occ. eigenvalues --   -0.86153  -0.82416  -0.80329  -0.78917  -0.77461
 Alpha  occ. eigenvalues --   -0.72028  -0.71154  -0.70490  -0.65741  -0.65020
 Alpha  occ. eigenvalues --   -0.64823  -0.62145  -0.61624  -0.60076  -0.58324
 Alpha  occ. eigenvalues --   -0.55949  -0.55201  -0.53517  -0.53180  -0.52955
 Alpha  occ. eigenvalues --   -0.52747  -0.50604  -0.48804  -0.48782  -0.48623
 Alpha  occ. eigenvalues --   -0.47338  -0.46459  -0.46352  -0.44791  -0.44497
 Alpha  occ. eigenvalues --   -0.37266  -0.36351
 Alpha virt. eigenvalues --    0.05063   0.11206   0.16517   0.20213   0.22457
 Alpha virt. eigenvalues --    0.24110   0.25701   0.25991   0.26548   0.27553
 Alpha virt. eigenvalues --    0.28932   0.29756   0.30825   0.31450   0.31930

 Mulliken charges:
               1
     1  C   -0.298620
     2  C   -0.305769
     3  C   -0.475847
     4  H    0.153109
     5  H    0.150975
     6  H    0.157866
     7  H    0.144978
     8  H    0.158147
     9  H    0.161341
    10  H    0.148119
    11  C   -0.298955
    12  C   -0.300220
    13  C   -0.476135
    14  H    0.150161
    15  H    0.148341
    16  H    0.153690
    17  H    0.152675
    18  H    0.154927
    19  H    0.155890
    20  H    0.162102
    21  C   -0.167586
    22  C   -0.221532
    23  C   -0.170961
    24  C    0.157981
    25  C   -0.171754
    26  C   -0.219587
    27  H    0.230217
    28  H    0.223823
    29  H    0.275513
    30  H    0.275647
    31  H    0.224407
    32  N    0.488102
    33  O   -0.460479
    34  O   -0.460569
 Sum of Mulliken charges =  -0.00000

 Dipole moment (field-independent basis, Debye):
    X=             -4.2026    Y=              2.1562    Z=              2.3240  Tot=              5.2642
 Quadrupole moment (field-independent basis, Debye-Ang):
   XX=           -121.6743   YY=            -93.0405   ZZ=            -93.3884
   XY=              8.5128   XZ=              7.2688   YZ=             -2.3167

 Normal termination of Gaussian 16 at Thu May  6 10:26:56 2021.
