 Gaussian 16, Revision A.03,
 Gaussian 16:  EM64L-G16RevA.03 25-Dec-2016

 -------------
 #p 6-31g* mp2
 -------------

 ------------------------------------------------------
 Input file generated by CHIRIPA (05-May-2021 14:51:12)
 ------------------------------------------------------
 Symbolic Z-matrix:
 Charge =  0 Multiplicity = 1

                         Standard orientation:
 ---------------------------------------------------------------------
 Center     Atomic      Atomic             Coordinates (Angstroms)
 Number     Number       Type             X           Y           Z
 ---------------------------------------------------------------------
      1          6           0        4.322900   -0.011459    0.035132
      2          6           0        4.763166   -1.336437   -0.588233
      3          6           0        6.204727   -1.300474   -1.096567
      4          1           0        4.431155    0.790109   -0.708315
      5          1           0        4.999035    0.238112    0.864560
      6          1           0        4.085569   -1.584127   -1.415353
      7          1           0        4.653668   -2.134976    0.156724
      8          1           0        6.896509   -1.077822   -0.277748
      9          1           0        6.325181   -0.523843   -1.858758
     10          1           0        6.498681   -2.257758   -1.538221
     11          6           0        2.884047   -0.031730    0.547987
     12          6           0        2.443780    1.293248    1.171352
     13          6           0        1.002220    1.257286    1.679686
     14          1           0        2.207911   -0.281301   -0.281441
     15          1           0        2.775791   -0.833298    1.291434
     16          1           0        2.553278    2.091787    0.426395
     17          1           0        3.121378    1.540938    1.998472
     18          1           0        0.881765    0.480654    2.441877
     19          1           0        0.310437    1.034633    0.860867
     20          1           0        0.708266    2.214569    2.121340
     21          6           0       -3.592701   -0.649846    0.072424
     22          6           0       -4.832083   -1.504487   -0.194982
     23          6           0       -4.795847   -2.844676    0.540118
     24          1           0       -2.696846   -1.210337   -0.227974
     25          1           0       -3.503462   -0.473895    1.153383
     26          1           0       -4.919729   -1.677615   -1.275242
     27          1           0       -5.725105   -0.941821    0.105909
     28          1           0       -4.732436   -2.689074    1.621954
     29          1           0       -3.922485   -3.429048    0.232955
     30          1           0       -5.691332   -3.439508    0.334834
     31          6           0       -3.614245    0.693034   -0.655543
     32          6           0       -2.374863    1.547675   -0.388137
     33          6           0       -2.411100    2.887864   -1.123237
     34          1           0       -3.703485    0.517084   -1.736502
     35          1           0       -4.510100    1.253525   -0.355144
     36          1           0       -1.481842    0.985010   -0.689028
     37          1           0       -2.287216    1.720803    0.692123
     38          1           0       -3.284462    3.472237   -0.816074
     39          1           0       -2.474510    2.732262   -2.205073
     40          1           0       -1.515615    3.482697   -0.917953
 ---------------------------------------------------------------------

 SCF Done:  E(RHF) =  -470.732858275     A.U. after   11 cycles
 E2 =    -0.1582839211D+01 EUMP2 =    -0.47231569748585D+03

 The electronic state is 1-A.
 Alpha  occ. eigenvalues --  -11.21598 -11.21596 -11.21595 -11.21547 -11.21400
 Alpha  occ. eigenvalues --  -11.21388 -11.21341 -11.21328 -11.21083 -11.21067
 Alpha  occ. eigenvalues --  -11.21064 -11.20919  -1.08438  -1.08399  -1.03554
 Alpha  occ. eigenvalues --   -1.03473  -0.95993  -0.95927  -0.87018  -0.86938
 Alpha  occ. eigenvalues --   -0.79707  -0.79469  -0.78289  -0.78173  -0.65079
 Alpha  occ. eigenvalues --   -0.65023  -0.60977  -0.60868  -0.59359  -0.59308
 Alpha  occ. eigenvalues --   -0.57638  -0.57518  -0.55277  -0.55211  -0.52692
 Alpha  occ. eigenvalues --   -0.52622  -0.52448  -0.52324  -0.49967  -0.49884
 Alpha  occ. eigenvalues --   -0.48088  -0.47707  -0.46695  -0.46544  -0.45878
 Alpha  occ. eigenvalues --   -0.45729  -0.45706  -0.45485  -0.43784  -0.43745
 Alpha virt. eigenvalues --    0.21941   0.23078   0.23626   0.24887   0.25927
 Alpha virt. eigenvalues --    0.26576   0.27010   0.27594   0.28012   0.29027
 Alpha virt. eigenvalues --    0.30497   0.31147   0.31741   0.31932   0.32046

 Mulliken charges:
               1
     1  C   -0.298238
     2  C   -0.299609
     3  C   -0.475689
     4  H    0.149569
     5  H    0.149597
     6  H    0.151705
     7  H    0.151938
     8  H    0.155210
     9  H    0.155153
    10  H    0.160191
    11  C   -0.298054
    12  C   -0.299452
    13  C   -0.483083
    14  H    0.148530
    15  H    0.149705
    16  H    0.151301
    17  H    0.151454
    18  H    0.154326
    19  H    0.165359
    20  H    0.158894
    21  C   -0.298481
    22  C   -0.299605
    23  C   -0.475699
    24  H    0.149438
    25  H    0.150031
    26  H    0.151822
    27  H    0.151943
    28  H    0.155262
    29  H    0.155211
    30  H    0.160202
    31  C   -0.297492
    32  C   -0.303415
    33  C   -0.476079
    34  H    0.149189
    35  H    0.149657
    36  H    0.152621
    37  H    0.155624
    38  H    0.155406
    39  H    0.154885
    40  H    0.160671
 Sum of Mulliken charges =  -0.00000

 Dipole moment (field-independent basis, Debye):
    X=             -0.0428    Y=              0.0038    Z=             -0.0014  Tot=              0.0430
 Quadrupole moment (field-independent basis, Debye-Ang):
   XX=            -85.5897   YY=            -85.5507   ZZ=            -83.7388
   XY=             -0.3659   XZ=              0.3318   YZ=              0.4449

 Normal termination of Gaussian 16 at Thu May  6 03:54:10 2021.
