 Gaussian 16, Revision A.03,
 Gaussian 16:  EM64L-G16RevA.03 25-Dec-2016

 -------------
 #p 6-31g* mp2
 -------------

 ------------------------------------------------------
 Input file generated by CHIRIPA (05-May-2021 14:51:08)
 ------------------------------------------------------
 Symbolic Z-matrix:
 Charge =  0 Multiplicity = 1

                         Standard orientation:
 ---------------------------------------------------------------------
 Center     Atomic      Atomic             Coordinates (Angstroms)
 Number     Number       Type             X           Y           Z
 ---------------------------------------------------------------------
      1          6           0       -4.569919   -0.344606    0.321108
      2          6           0       -5.469154   -0.222973   -0.909570
      3          6           0       -6.952247   -0.388685   -0.576750
      4          1           0       -4.734321   -1.323382    0.792185
      5          1           0       -4.867542    0.411983    1.060288
      6          1           0       -5.169023   -0.978661   -1.646776
      7          1           0       -5.302452    0.755552   -1.377882
      8          1           0       -7.273636    0.373551    0.140401
      9          1           0       -7.139449   -1.370515   -0.130021
     10          1           0       -7.576905   -0.298110   -1.470874
     11          6           0       -3.084392   -0.181219    0.004495
     12          6           0       -2.185157   -0.302853    1.235172
     13          6           0       -0.702065   -0.137140    0.902353
     14          1           0       -2.786769   -0.937809   -0.734685
     15          1           0       -2.919990    0.797557   -0.466582
     16          1           0       -2.351859   -1.281377    1.703485
     17          1           0       -2.485288    0.452835    1.972379
     18          1           0       -0.514862    0.844689    0.455623
     19          1           0       -0.380675   -0.899377    0.185202
     20          1           0       -0.077407   -0.227716    1.796477
     21          6           0        4.044648   -0.389057    0.170463
     22          6           0        4.915217   -1.268262   -0.727922
     23          6           0        5.342348   -2.569007   -0.047177
     24          1           0        4.596057   -0.158267    1.092215
     25          1           0        3.153071   -0.955526    0.473112
     26          1           0        5.804206   -0.699827   -1.029912
     27          1           0        4.361743   -1.496827   -1.647727
     28          1           0        4.466165   -3.159630    0.239297
     29          1           0        5.916821   -2.358101    0.860622
     30          1           0        5.963841   -3.182231   -0.707150
     31          6           0        3.609663    0.914882   -0.496065
     32          6           0        2.739094    1.794087    0.402319
     33          6           0        2.311963    3.094833   -0.278426
     34          1           0        4.501241    1.481352   -0.798716
     35          1           0        3.058254    0.684092   -1.417818
     36          1           0        3.292568    2.022652    1.322124
     37          1           0        1.850106    1.225652    0.704308
     38          1           0        1.737490    2.883927   -1.186226
     39          1           0        3.188147    3.685456   -0.564900
     40          1           0        1.690470    3.708056    0.381547
 ---------------------------------------------------------------------

 SCF Done:  E(RHF) =  -470.732935261     A.U. after   11 cycles
 E2 =    -0.1582948760D+01 EUMP2 =    -0.47231588402121D+03

 The electronic state is 1-A.
 Alpha  occ. eigenvalues --  -11.21664 -11.21631 -11.21547 -11.21451 -11.21402
 Alpha  occ. eigenvalues --  -11.21389 -11.21314 -11.21250 -11.21170 -11.21093
 Alpha  occ. eigenvalues --  -11.21033 -11.21006  -1.08480  -1.08337  -1.03595
 Alpha  occ. eigenvalues --   -1.03440  -0.96049  -0.95904  -0.87081  -0.86914
 Alpha  occ. eigenvalues --   -0.79715  -0.79462  -0.78300  -0.78133  -0.65120
 Alpha  occ. eigenvalues --   -0.64967  -0.61068  -0.60789  -0.59426  -0.59257
 Alpha  occ. eigenvalues --   -0.57648  -0.57517  -0.55394  -0.55134  -0.52787
 Alpha  occ. eigenvalues --   -0.52590  -0.52468  -0.52324  -0.50028  -0.49814
 Alpha  occ. eigenvalues --   -0.48006  -0.47799  -0.46766  -0.46441  -0.45885
 Alpha  occ. eigenvalues --   -0.45756  -0.45681  -0.45521  -0.43796  -0.43690
 Alpha virt. eigenvalues --    0.21715   0.22955   0.23841   0.24645   0.25775
 Alpha virt. eigenvalues --    0.26584   0.27141   0.27521   0.27815   0.29173
 Alpha virt. eigenvalues --    0.30859   0.31589   0.31645   0.31819   0.32181

 Mulliken charges:
               1
     1  C   -0.298367
     2  C   -0.299677
     3  C   -0.475737
     4  H    0.149747
     5  H    0.149682
     6  H    0.151928
     7  H    0.152043
     8  H    0.155259
     9  H    0.155216
    10  H    0.160363
    11  C   -0.298722
    12  C   -0.299962
    13  C   -0.479611
    14  H    0.149436
    15  H    0.149977
    16  H    0.152137
    17  H    0.152456
    18  H    0.157951
    19  H    0.155220
    20  H    0.161439
    21  C   -0.299166
    22  C   -0.299537
    23  C   -0.475633
    24  H    0.149268
    25  H    0.150406
    26  H    0.151811
    27  H    0.151718
    28  H    0.155007
    29  H    0.155070
    30  H    0.160015
    31  C   -0.297104
    32  C   -0.311213
    33  C   -0.475736
    34  H    0.148786
    35  H    0.149132
    36  H    0.150634
    37  H    0.167008
    38  H    0.154448
    39  H    0.155013
    40  H    0.159295
 Sum of Mulliken charges =  -0.00000

 Dipole moment (field-independent basis, Debye):
    X=             -0.0676    Y=             -0.0183    Z=              0.0185  Tot=              0.0724
 Quadrupole moment (field-independent basis, Debye-Ang):
   XX=            -85.6486   YY=            -84.6416   ZZ=            -84.7824
   XY=              0.5185   XZ=              0.2596   YZ=              0.6972

 Normal termination of Gaussian 16 at Thu May  6 00:32:05 2021.
