 Gaussian 16, Revision A.03,
 Gaussian 16:  EM64L-G16RevA.03 25-Dec-2016

 -------------
 #p 6-31g* mp2
 -------------

 ------------------------------------------------------
 Input file generated by CHIRIPA (05-May-2021 14:51:13)
 ------------------------------------------------------
 Symbolic Z-matrix:
 Charge =  0 Multiplicity = 1

                         Standard orientation:
 ---------------------------------------------------------------------
 Center     Atomic      Atomic             Coordinates (Angstroms)
 Number     Number       Type             X           Y           Z
 ---------------------------------------------------------------------
      1          6           0        3.018156   -0.517585   -0.109506
      2          6           0        2.578360   -1.394269   -1.282532
      3          6           0        2.616269   -2.886614   -0.951983
      4          1           0        4.035694   -0.802213    0.191407
      5          1           0        2.368930   -0.719494    0.753705
      6          1           0        3.227349   -1.189761   -2.143698
      7          1           0        1.561824   -1.107392   -1.580812
      8          1           0        1.954843   -3.111396   -0.109018
      9          1           0        3.629831   -3.194233   -0.675102
     10          1           0        2.298090   -3.494835   -1.804443
     11          6           0        2.985597    0.976879   -0.424535
     12          6           0        3.425393    1.853563    0.748491
     13          6           0        3.387484    3.345908    0.417941
     14          1           0        3.634823    1.178788   -1.287747
     15          1           0        1.968060    1.261507   -0.725449
     16          1           0        4.441930    1.566686    1.046771
     17          1           0        2.776404    1.649055    1.609656
     18          1           0        2.373922    3.653527    0.141060
     19          1           0        4.048911    3.570690   -0.425023
     20          1           0        3.705664    3.954130    1.270402
     21          6           0       -2.277526   -0.343241    0.481134
     22          6           0       -2.021357   -1.745814    1.033540
     23          6           0       -0.567729   -1.957753    1.457619
     24          1           0       -1.614375   -0.167232   -0.376884
     25          1           0       -2.005224    0.399146    1.244095
     26          1           0       -2.295364   -2.485374    0.270267
     27          1           0       -2.685329   -1.918575    1.890225
     28          1           0       -0.285496   -1.242251    2.236723
     29          1           0        0.106685   -1.812270    0.607559
     30          1           0       -0.406901   -2.966948    1.849436
     31          6           0       -3.726227   -0.116053    0.052907
     32          6           0       -3.982397    1.286520   -0.499499
     33          6           0       -5.436024    1.498459   -0.923578
     34          1           0       -3.998528   -0.858440   -0.710054
     35          1           0       -4.389378   -0.292062    0.910926
     36          1           0       -3.318423    1.459281   -1.356184
     37          1           0       -3.708389    2.026080    0.263775
     38          1           0       -6.110438    1.352975   -0.073518
     39          1           0       -5.718257    0.782956   -1.702681
     40          1           0       -5.596853    2.507654   -1.315395
 ---------------------------------------------------------------------

 SCF Done:  E(RHF) =  -470.732603845     A.U. after   11 cycles
 E2 =    -0.1583856656D+01 EUMP2 =    -0.47231646050090D+03

 The electronic state is 1-A.
 Alpha  occ. eigenvalues --  -11.21670 -11.21645 -11.21598 -11.21567 -11.21474
 Alpha  occ. eigenvalues --  -11.21409 -11.21349 -11.21278 -11.21133 -11.21102
 Alpha  occ. eigenvalues --  -11.21044 -11.20996  -1.08499  -1.08391  -1.03614
 Alpha  occ. eigenvalues --   -1.03485  -0.96057  -0.95934  -0.87073  -0.86958
 Alpha  occ. eigenvalues --   -0.79687  -0.79544  -0.78315  -0.78193  -0.65236
 Alpha  occ. eigenvalues --   -0.64965  -0.61239  -0.60709  -0.59412  -0.59315
 Alpha  occ. eigenvalues --   -0.57642  -0.57553  -0.55487  -0.55072  -0.52747
 Alpha  occ. eigenvalues --   -0.52646  -0.52471  -0.52357  -0.50047  -0.49823
 Alpha  occ. eigenvalues --   -0.48062  -0.47814  -0.46722  -0.46549  -0.45949
 Alpha  occ. eigenvalues --   -0.45794  -0.45675  -0.45505  -0.43842  -0.43746
 Alpha virt. eigenvalues --    0.20502   0.23131   0.23884   0.24945   0.25463
 Alpha virt. eigenvalues --    0.26098   0.27017   0.27911   0.28493   0.29418
 Alpha virt. eigenvalues --    0.30841   0.30916   0.31678   0.31742   0.32251

 Mulliken charges:
               1
     1  C   -0.302807
     2  C   -0.301767
     3  C   -0.480285
     4  H    0.149543
     5  H    0.155052
     6  H    0.152897
     7  H    0.150228
     8  H    0.160389
     9  H    0.155262
    10  H    0.159617
    11  C   -0.298049
    12  C   -0.299549
    13  C   -0.475742
    14  H    0.149210
    15  H    0.149553
    16  H    0.151845
    17  H    0.151985
    18  H    0.155261
    19  H    0.155073
    20  H    0.160064
    21  C   -0.298910
    22  C   -0.299597
    23  C   -0.484800
    24  H    0.149198
    25  H    0.149489
    26  H    0.152409
    27  H    0.152246
    28  H    0.154970
    29  H    0.165750
    30  H    0.160675
    31  C   -0.298328
    32  C   -0.299739
    33  C   -0.475752
    34  H    0.149788
    35  H    0.149940
    36  H    0.151944
    37  H    0.151940
    38  H    0.155267
    39  H    0.155304
    40  H    0.160426
 Sum of Mulliken charges =  -0.00000

 Dipole moment (field-independent basis, Debye):
    X=             -0.0312    Y=             -0.0145    Z=              0.0276  Tot=              0.0442
 Quadrupole moment (field-independent basis, Debye-Ang):
   XX=            -84.8216   YY=            -86.0167   ZZ=            -83.9530
   XY=              0.1570   XZ=             -0.8274   YZ=              0.4836

 Normal termination of Gaussian 16 at Wed May  5 16:50:51 2021.
