 Gaussian 16, Revision A.03,
 Gaussian 16:  EM64L-G16RevA.03 25-Dec-2016

 -------------
 #p 6-31g* mp2
 -------------

 ------------------------------------------------------
 Input file generated by CHIRIPA (05-May-2021 14:53:15)
 ------------------------------------------------------
 Symbolic Z-matrix:
 Charge =  0 Multiplicity = 1

                         Standard orientation:
 ---------------------------------------------------------------------
 Center     Atomic      Atomic             Coordinates (Angstroms)
 Number     Number       Type             X           Y           Z
 ---------------------------------------------------------------------
      1          6           0       -3.555793    0.787353   -0.457378
      2          6           0       -4.193571    2.032082    0.160583
      3          6           0       -3.955770    3.292942   -0.670968
      4          1           0       -2.476035    0.954704   -0.571658
      5          1           0       -3.958339    0.641618   -1.469363
      6          1           0       -3.790970    2.174638    1.171625
      7          1           0       -5.271907    1.861676    0.273582
      8          1           0       -4.373153    3.175798   -1.676289
      9          1           0       -2.883802    3.490538   -0.773143
     10          1           0       -4.420219    4.170750   -0.210968
     11          6           0       -3.784839   -0.481192    0.362414
     12          6           0       -3.147061   -1.725921   -0.255547
     13          6           0       -3.384862   -2.986781    0.576004
     14          1           0       -3.382293   -0.335457    1.374399
     15          1           0       -4.864598   -0.648543    0.476694
     16          1           0       -2.068725   -1.555515   -0.368546
     17          1           0       -3.549662   -1.868477   -1.266589
     18          1           0       -4.456831   -3.184377    0.678179
     19          1           0       -2.967480   -2.869637    1.581325
     20          1           0       -2.920413   -3.864589    0.116005
     21          6           0        4.595128    1.707889    0.240332
     22          6           0        3.374902    1.820028    0.914865
     23          6           0        2.410271    0.813581    0.809498
     24          6           0        2.700408   -0.296268    0.017447
     25          6           0        3.906747   -0.436996   -0.666826
     26          6           0        4.856695    0.581721   -0.546973
     27          1           0        5.338773    2.494486    0.327811
     28          1           0        3.169035    2.693497    1.527004
     29          1           0        1.457318    0.874805    1.320918
     30          1           0        4.083187   -1.319584   -1.269591
     31          1           0        5.803469    0.491951   -1.071954
     32          7           0        1.686969   -1.368243   -0.101768
     33          8           0        1.966876   -2.336001   -0.805852
     34          8           0        0.631917   -1.220400    0.511130
 ---------------------------------------------------------------------

 SCF Done:  E(RHF) =  -669.536369141     A.U. after   15 cycles
 E2 =    -0.2091103035D+01 EUMP2 =    -0.67162747217590D+03

 The electronic state is 1-A.
 Alpha  occ. eigenvalues --  -20.61033 -20.61028 -15.86057 -11.31351 -11.27911
 Alpha  occ. eigenvalues --  -11.27904 -11.27640 -11.26909 -11.26899 -11.21097
 Alpha  occ. eigenvalues --  -11.20746 -11.20618 -11.20350 -11.20073 -11.19731
 Alpha  occ. eigenvalues --   -1.60087  -1.39645  -1.19515  -1.08924  -1.07526
 Alpha  occ. eigenvalues --   -1.04907  -1.02591  -0.95771  -0.95092  -0.86308
 Alpha  occ. eigenvalues --   -0.86120  -0.82607  -0.78717  -0.77665  -0.77258
 Alpha  occ. eigenvalues --   -0.72281  -0.71397  -0.70623  -0.65173  -0.64909
 Alpha  occ. eigenvalues --   -0.64152  -0.62255  -0.59971  -0.58516  -0.56668
 Alpha  occ. eigenvalues --   -0.55411  -0.54391  -0.53239  -0.52998  -0.51806
 Alpha  occ. eigenvalues --   -0.51516  -0.49129  -0.49035  -0.48992  -0.47019
 Alpha  occ. eigenvalues --   -0.45757  -0.45168  -0.44814  -0.44502  -0.42858
 Alpha  occ. eigenvalues --   -0.37491  -0.36506
 Alpha virt. eigenvalues --    0.04840   0.11149   0.16328   0.21258   0.23646
 Alpha virt. eigenvalues --    0.25273   0.27130   0.27447   0.28109   0.28564
 Alpha virt. eigenvalues --    0.28898   0.30906   0.32250   0.32404   0.32607

 Mulliken charges:
               1
     1  C   -0.297890
     2  C   -0.298755
     3  C   -0.474661
     4  H    0.150567
     5  H    0.147758
     6  H    0.149294
     7  H    0.151192
     8  H    0.155146
     9  H    0.151890
    10  H    0.157667
    11  C   -0.296459
    12  C   -0.310358
    13  C   -0.473197
    14  H    0.148593
    15  H    0.144567
    16  H    0.180154
    17  H    0.144632
    18  H    0.146963
    19  H    0.156048
    20  H    0.161955
    21  C   -0.170469
    22  C   -0.218494
    23  C   -0.170878
    24  C    0.157918
    25  C   -0.170512
    26  C   -0.218557
    27  H    0.226258
    28  H    0.224072
    29  H    0.275423
    30  H    0.276028
    31  H    0.224052
    32  N    0.489753
    33  O   -0.458043
    34  O   -0.461658
 Sum of Mulliken charges =  -0.00000

 Dipole moment (field-independent basis, Debye):
    X=              3.9407    Y=              3.6885    Z=              0.4103  Tot=              5.4132
 Quadrupole moment (field-independent basis, Debye-Ang):
   XX=            -74.3602   YY=            -97.5121   ZZ=            -93.5589
   XY=              7.6657   XZ=             -0.4724   YZ=              2.4565

 Normal termination of Gaussian 16 at Thu May  6 01:05:39 2021.
