 Gaussian 16, Revision A.03,
 Gaussian 16:  EM64L-G16RevA.03 25-Dec-2016

 -------------
 #p 6-31g* mp2
 -------------

 ------------------------------------------------------
 Input file generated by CHIRIPA (05-May-2021 14:55:22)
 ------------------------------------------------------
 Symbolic Z-matrix:
 Charge =  0 Multiplicity = 1

                         Standard orientation:
 ---------------------------------------------------------------------
 Center     Atomic      Atomic             Coordinates (Angstroms)
 Number     Number       Type             X           Y           Z
 ---------------------------------------------------------------------
      1          6           0       -4.309945    0.443029   -1.524891
      2          6           0       -3.879578   -0.886372   -1.588125
      3          6           0       -2.947482   -1.375442   -0.668039
      4          6           0       -2.464372   -0.503589    0.306520
      5          6           0       -2.873700    0.826007    0.395490
      6          6           0       -3.806520    1.293476   -0.535030
      7          1           0       -5.034300    0.814560   -2.243688
      8          1           0       -4.268837   -1.549110   -2.355784
      9          1           0       -2.597138   -2.400136   -0.694079
     10          1           0       -2.467673    1.462749    1.172097
     11          1           0       -4.138949    2.326376   -0.483520
     12          7           0       -1.477221   -1.009911    1.286097
     13          8           0       -1.066793   -0.221623    2.135089
     14          8           0       -1.132612   -2.185467    1.186348
     15          6           0        4.084681    0.416921   -0.403615
     16          6           0        4.478529   -1.060531   -0.404639
     17          6           0        5.925883   -1.286199   -0.842856
     18          1           0        4.233030    0.830077   -1.410710
     19          1           0        4.761073    0.969050    0.263500
     20          1           0        3.800726   -1.609941   -1.070484
     21          1           0        4.329043   -1.470267    0.602528
     22          1           0        6.616950   -0.763440   -0.173716
     23          1           0        6.085631   -0.903908   -1.856235
     24          1           0        6.186224   -2.349232   -0.836319
     25          6           0        2.640610    0.658639    0.032225
     26          6           0        2.246762    2.136092    0.033249
     27          6           0        0.799407    2.361760    0.471466
     28          1           0        1.964217    0.106510   -0.634890
     29          1           0        2.492260    0.245483    1.039320
     30          1           0        2.396247    2.545827   -0.973919
     31          1           0        2.924565    2.685501    0.699094
     32          1           0        0.639660    1.979468    1.484843
     33          1           0        0.108341    1.839000   -0.197675
     34          1           0        0.539066    3.424793    0.464929
 ---------------------------------------------------------------------

 SCF Done:  E(RHF) =  -669.535887235     A.U. after   15 cycles
 E2 =    -0.2092344210D+01 EUMP2 =    -0.67162823144449D+03

 The electronic state is 1-A.
 Alpha  occ. eigenvalues --  -20.60845 -20.60831 -15.85874 -11.31216 -11.27788
 Alpha  occ. eigenvalues --  -11.27765 -11.27529 -11.26797 -11.26781 -11.21051
 Alpha  occ. eigenvalues --  -11.21001 -11.20806 -11.20654 -11.20596 -11.20447
 Alpha  occ. eigenvalues --   -1.59900  -1.39456  -1.19391  -1.08789  -1.07820
 Alpha  occ. eigenvalues --   -1.04787  -1.02961  -0.95639  -0.95408  -0.86453
 Alpha  occ. eigenvalues --   -0.86174  -0.82463  -0.79037  -0.77641  -0.77476
 Alpha  occ. eigenvalues --   -0.72106  -0.71212  -0.70496  -0.65045  -0.64788
 Alpha  occ. eigenvalues --   -0.64451  -0.62133  -0.60361  -0.58790  -0.57022
 Alpha  occ. eigenvalues --   -0.55295  -0.54706  -0.53125  -0.52885  -0.52141
 Alpha  occ. eigenvalues --   -0.51828  -0.49356  -0.48859  -0.48844  -0.47356
 Alpha  occ. eigenvalues --   -0.46055  -0.45258  -0.45099  -0.44655  -0.43217
 Alpha  occ. eigenvalues --   -0.37365  -0.36373
 Alpha virt. eigenvalues --    0.04995   0.11208   0.16467   0.21328   0.23452
 Alpha virt. eigenvalues --    0.24813   0.26887   0.27253   0.27751   0.28236
 Alpha virt. eigenvalues --    0.28873   0.30830   0.31730   0.31926   0.32431

 Mulliken charges:
               1
     1  C   -0.170624
     2  C   -0.218698
     3  C   -0.171151
     4  C    0.157262
     5  C   -0.169299
     6  C   -0.219615
     7  H    0.225734
     8  H    0.223487
     9  H    0.275575
    10  H    0.278715
    11  H    0.223972
    12  N    0.489560
    13  O   -0.460290
    14  O   -0.459937
    15  C   -0.298180
    16  C   -0.299470
    17  C   -0.475487
    18  H    0.146199
    19  H    0.148456
    20  H    0.151685
    21  H    0.156195
    22  H    0.154384
    23  H    0.152934
    24  H    0.159608
    25  C   -0.299461
    26  C   -0.298863
    27  C   -0.484863
    28  H    0.146283
    29  H    0.161834
    30  H    0.147262
    31  H    0.151008
    32  H    0.176965
    33  H    0.147370
    34  H    0.151451
 Sum of Mulliken charges =  -0.00000

 Dipole moment (field-independent basis, Debye):
    X=             -3.5855    Y=              1.6644    Z=             -3.2743  Tot=              5.1329
 Quadrupole moment (field-independent basis, Debye-Ang):
   XX=            -79.6050   YY=            -93.1994   ZZ=            -95.5871
   XY=             -2.4305   XZ=              8.7348   YZ=              4.7067

 Normal termination of Gaussian 16 at Thu May  6 19:12:22 2021.
