 Gaussian 16, Revision A.03,
 Gaussian 16:  EM64L-G16RevA.03 25-Dec-2016

 -------------
 #p 6-31g* mp2
 -------------

 ------------------------------------------------------
 Input file generated by CHIRIPA (05-May-2021 14:51:14)
 ------------------------------------------------------
 Symbolic Z-matrix:
 Charge =  0 Multiplicity = 1

                         Standard orientation:
 ---------------------------------------------------------------------
 Center     Atomic      Atomic             Coordinates (Angstroms)
 Number     Number       Type             X           Y           Z
 ---------------------------------------------------------------------
      1          6           0        2.876134    0.099869   -0.236603
      2          6           0        4.347571   -0.042753   -0.627138
      3          6           0        4.712480   -1.467068   -1.046614
      4          1           0        2.652408   -0.594507    0.584819
      5          1           0        2.247653   -0.206056   -1.084433
      6          1           0        4.973092    0.264665    0.220703
      7          1           0        4.567868    0.652180   -1.447597
      8          1           0        4.113205   -1.780600   -1.907525
      9          1           0        4.520731   -2.170317   -0.229746
     10          1           0        5.768857   -1.546397   -1.321631
     11          6           0        2.496006    1.518090    0.185155
     12          6           0        1.024569    1.660712    0.575689
     13          6           0        0.659660    3.085027    0.995166
     14          1           0        3.124487    1.824015    1.032985
     15          1           0        2.719732    2.212466   -0.636267
     16          1           0        0.804272    0.965779    1.396149
     17          1           0        0.399048    1.353294   -0.272152
     18          1           0        0.851409    3.788276    0.178298
     19          1           0        1.258935    3.398560    1.856077
     20          1           0       -0.396718    3.164356    1.270182
     21          6           0       -3.314896   -0.663065   -0.382588
     22          6           0       -3.734881    0.806689   -0.344875
     23          6           0       -4.994487    1.082835   -1.166418
     24          1           0       -3.146970   -0.963172   -1.425987
     25          1           0       -4.141232   -1.283035   -0.008152
     26          1           0       -2.907492    1.423813   -0.717972
     27          1           0       -3.901641    1.103385    0.698570
     28          1           0       -5.836312    0.491875   -0.791322
     29          1           0       -4.836515    0.814123   -2.215913
     30          1           0       -5.276818    2.139470   -1.125546
     31          6           0       -2.057244   -0.954894    0.434036
     32          6           0       -1.637259   -2.424648    0.396323
     33          6           0       -0.377653   -2.700794    1.217866
     34          1           0       -1.230908   -0.334924    0.059601
     35          1           0       -2.225170   -0.654787    1.477435
     36          1           0       -1.470499   -2.721344   -0.647122
     37          1           0       -2.464648   -3.041772    0.769421
     38          1           0       -0.535625   -2.432082    2.267361
     39          1           0        0.464172   -2.109834    0.842770
     40          1           0       -0.095322   -3.757429    1.176995
 ---------------------------------------------------------------------

 SCF Done:  E(RHF) =  -470.732792964     A.U. after   11 cycles
 E2 =    -0.1584265503D+01 EUMP2 =    -0.47231705846678D+03

 The electronic state is 1-A.
 Alpha  occ. eigenvalues --  -11.21644 -11.21616 -11.21586 -11.21528 -11.21460
 Alpha  occ. eigenvalues --  -11.21395 -11.21332 -11.21217 -11.21095 -11.21083
 Alpha  occ. eigenvalues --  -11.21058 -11.20992  -1.08491  -1.08358  -1.03566
 Alpha  occ. eigenvalues --   -1.03479  -0.96019  -0.95920  -0.87040  -0.86935
 Alpha  occ. eigenvalues --   -0.79683  -0.79533  -0.78451  -0.78016  -0.65132
 Alpha  occ. eigenvalues --   -0.64990  -0.60963  -0.60880  -0.59400  -0.59283
 Alpha  occ. eigenvalues --   -0.57706  -0.57469  -0.55303  -0.55213  -0.52708
 Alpha  occ. eigenvalues --   -0.52624  -0.52502  -0.52293  -0.49957  -0.49890
 Alpha  occ. eigenvalues --   -0.48077  -0.47823  -0.46766  -0.46616  -0.46181
 Alpha  occ. eigenvalues --   -0.45790  -0.45625  -0.45044  -0.43812  -0.43723
 Alpha virt. eigenvalues --    0.21041   0.22689   0.23612   0.24155   0.25351
 Alpha virt. eigenvalues --    0.25784   0.26842   0.27668   0.28734   0.29613
 Alpha virt. eigenvalues --    0.31098   0.31515   0.31619   0.31775   0.32226

 Mulliken charges:
               1
     1  C   -0.302877
     2  C   -0.299323
     3  C   -0.475921
     4  H    0.153888
     5  H    0.148770
     6  H    0.152219
     7  H    0.152084
     8  H    0.155099
     9  H    0.155647
    10  H    0.160439
    11  C   -0.297486
    12  C   -0.304803
    13  C   -0.476100
    14  H    0.149743
    15  H    0.149547
    16  H    0.155594
    17  H    0.153686
    18  H    0.154862
    19  H    0.155245
    20  H    0.161515
    21  C   -0.297808
    22  C   -0.300314
    23  C   -0.475600
    24  H    0.148915
    25  H    0.149225
    26  H    0.151874
    27  H    0.151746
    28  H    0.155293
    29  H    0.155033
    30  H    0.160135
    31  C   -0.306942
    32  C   -0.298542
    33  C   -0.481918
    34  H    0.160818
    35  H    0.148314
    36  H    0.151221
    37  H    0.151341
    38  H    0.154129
    39  H    0.161449
    40  H    0.159804
 Sum of Mulliken charges =  -0.00000

 Dipole moment (field-independent basis, Debye):
    X=              0.0575    Y=              0.0363    Z=              0.0073  Tot=              0.0684
 Quadrupole moment (field-independent basis, Debye-Ang):
   XX=            -85.4329   YY=            -85.8984   ZZ=            -83.5679
   XY=              0.7209   XZ=             -0.5802   YZ=             -0.4385

 Normal termination of Gaussian 16 at Thu May  6 00:50:42 2021.
