 Gaussian 16, Revision A.03,
 Gaussian 16:  EM64L-G16RevA.03 25-Dec-2016

 -------------
 #p 6-31g* mp2
 -------------

 ------------------------------------------------------
 Input file generated by CHIRIPA (05-May-2021 14:53:14)
 ------------------------------------------------------
 Symbolic Z-matrix:
 Charge =  0 Multiplicity = 1

                         Standard orientation:
 ---------------------------------------------------------------------
 Center     Atomic      Atomic             Coordinates (Angstroms)
 Number     Number       Type             X           Y           Z
 ---------------------------------------------------------------------
      1          6           0       -2.162005   -0.560807   -0.240232
      2          6           0       -3.141306   -1.718417   -0.437442
      3          6           0       -2.515075   -3.080348   -0.136155
      4          1           0       -1.287181   -0.714803   -0.886694
      5          1           0       -1.792370   -0.574629    0.794454
      6          1           0       -3.510040   -1.701586   -1.471061
      7          1           0       -4.013988   -1.561549    0.209423
      8          1           0       -2.163152   -3.121863    0.899716
      9          1           0       -1.656341   -3.262695   -0.790316
     10          1           0       -3.232567   -3.893575   -0.283551
     11          6           0       -2.773369    0.807240   -0.537571
     12          6           0       -1.794068    1.964850   -0.340361
     13          6           0       -2.420299    3.326780   -0.641648
     14          1           0       -3.143004    0.821062   -1.572256
     15          1           0       -3.648193    0.961236    0.108891
     16          1           0       -0.921386    1.807982   -0.987226
     17          1           0       -1.425334    1.948019    0.693258
     18          1           0       -3.279033    3.509128    0.012513
     19          1           0       -2.772222    3.368295   -1.677519
     20          1           0       -1.702807    4.140008   -0.494252
     21          6           0        0.718394    0.141732    2.505289
     22          6           0        1.355063    1.248033    1.933211
     23          6           0        2.028205    1.127780    0.713798
     24          6           0        2.044809   -0.119272    0.091000
     25          6           0        1.420018   -1.240112    0.635647
     26          6           0        0.752844   -1.096626    1.855827
     27          1           0        0.197800    0.244172    3.452856
     28          1           0        1.329950    2.210984    2.435346
     29          1           0        2.529507    1.967822    0.248564
     30          1           0        1.462320   -2.187122    0.111432
     31          1           0        0.259281   -1.957515    2.297767
     32          7           0        2.754276   -0.258876   -1.200344
     33          8           0        2.754326   -1.368427   -1.729053
     34          8           0        3.296871    0.743896   -1.659337
 ---------------------------------------------------------------------

 SCF Done:  E(RHF) =  -669.533477671     A.U. after   15 cycles
 E2 =    -0.2096248429D+01 EUMP2 =    -0.67162972610020D+03

 The electronic state is 1-A.
 Alpha  occ. eigenvalues --  -20.60829 -20.60824 -15.85881 -11.31245 -11.27797
 Alpha  occ. eigenvalues --  -11.27765 -11.27527 -11.26828 -11.26784 -11.21858
 Alpha  occ. eigenvalues --  -11.21687 -11.21554 -11.21515 -11.21423 -11.21233
 Alpha  occ. eigenvalues --   -1.59906  -1.39459  -1.19416  -1.08834  -1.08595
 Alpha  occ. eigenvalues --   -1.04821  -1.03762  -0.96226  -0.95649  -0.87248
 Alpha  occ. eigenvalues --   -0.86223  -0.82479  -0.79826  -0.78448  -0.77513
 Alpha  occ. eigenvalues --   -0.72099  -0.71229  -0.70522  -0.65289  -0.65067
 Alpha  occ. eigenvalues --   -0.64794  -0.62165  -0.61170  -0.59596  -0.57856
 Alpha  occ. eigenvalues --   -0.55532  -0.55322  -0.53422  -0.52912  -0.52820
 Alpha  occ. eigenvalues --   -0.52618  -0.50184  -0.48859  -0.48854  -0.48196
 Alpha  occ. eigenvalues --   -0.46859  -0.45940  -0.45798  -0.44861  -0.43983
 Alpha  occ. eigenvalues --   -0.37304  -0.36257
 Alpha virt. eigenvalues --    0.04975   0.11042   0.16395   0.20288   0.23006
 Alpha virt. eigenvalues --    0.23551   0.25787   0.26427   0.27266   0.28189
 Alpha virt. eigenvalues --    0.29070   0.29454   0.31331   0.31640   0.32202

 Mulliken charges:
               1
     1  C   -0.300947
     2  C   -0.299107
     3  C   -0.476537
     4  H    0.151931
     5  H    0.149454
     6  H    0.154914
     7  H    0.150465
     8  H    0.144979
     9  H    0.157383
    10  H    0.163224
    11  C   -0.298518
    12  C   -0.301274
    13  C   -0.475567
    14  H    0.151181
    15  H    0.146854
    16  H    0.154259
    17  H    0.149114
    18  H    0.153326
    19  H    0.157654
    20  H    0.157967
    21  C   -0.172017
    22  C   -0.215580
    23  C   -0.169476
    24  C    0.158719
    25  C   -0.168214
    26  C   -0.217069
    27  H    0.225550
    28  H    0.223811
    29  H    0.275717
    30  H    0.276012
    31  H    0.225024
    32  N    0.487545
    33  O   -0.460550
    34  O   -0.460224
 Sum of Mulliken charges =  -0.00000

 Dipole moment (field-independent basis, Debye):
    X=             -2.4066    Y=              0.4759    Z=              4.5146  Tot=              5.1381
 Quadrupole moment (field-independent basis, Debye-Ang):
   XX=           -105.6910   YY=            -91.5797   ZZ=            -93.5977
   XY=              3.1173   XZ=              9.0549   YZ=              0.0524

 Normal termination of Gaussian 16 at Thu May  6 05:51:38 2021.
