 Gaussian 16, Revision A.03,
 Gaussian 16:  EM64L-G16RevA.03 25-Dec-2016

 -------------
 #p 6-31g* mp2
 -------------

 ------------------------------------------------------
 Input file generated by CHIRIPA (05-May-2021 14:53:12)
 ------------------------------------------------------
 Symbolic Z-matrix:
 Charge =  0 Multiplicity = 1

                         Standard orientation:
 ---------------------------------------------------------------------
 Center     Atomic      Atomic             Coordinates (Angstroms)
 Number     Number       Type             X           Y           Z
 ---------------------------------------------------------------------
      1          6           0       -2.938986   -0.252617    0.564666
      2          6           0       -3.918165   -1.360212    0.174244
      3          6           0       -3.729948   -2.633571    0.999426
      4          1           0       -1.911147   -0.621158    0.443554
      5          1           0       -3.064394   -0.021198    1.631490
      6          1           0       -3.791907   -1.588509   -0.891849
      7          1           0       -4.943792   -0.988927    0.296116
      8          1           0       -3.876294   -2.427470    2.064652
      9          1           0       -2.717864   -3.030459    0.869937
     10          1           0       -4.440079   -3.412155    0.703825
     11          6           0       -3.114726    1.026756   -0.251452
     12          6           0       -2.135547    2.134350    0.138969
     13          6           0       -2.323764    3.407709   -0.686213
     14          1           0       -2.989318    0.795337   -1.318276
     15          1           0       -4.142565    1.395297   -0.130341
     16          1           0       -1.109920    1.763066    0.017097
     17          1           0       -2.261805    2.362648    1.205062
     18          1           0       -3.335848    3.804597   -0.556723
     19          1           0       -2.177418    3.201609   -1.751439
     20          1           0       -1.613633    4.186294   -0.390611
     21          6           0        3.342226    1.848737    0.762549
     22          6           0        3.968735    0.629150    1.039341
     23          6           0        3.436015   -0.568933    0.554209
     24          6           0        2.270231   -0.510362   -0.207898
     25          6           0        1.622816    0.688967   -0.500738
     26          6           0        2.173328    1.874708   -0.005255
     27          1           0        3.762967    2.774643    1.143432
     28          1           0        4.876627    0.605958    1.635361
     29          1           0        3.900559   -1.527018    0.753434
     30          1           0        0.718936    0.680221   -1.097683
     31          1           0        1.684626    2.820396   -0.221794
     32          7           0        1.696846   -1.772186   -0.726965
     33          8           0        0.668817   -1.693681   -1.396016
     34          8           0        2.286315   -2.815815   -0.454931
 ---------------------------------------------------------------------

 SCF Done:  E(RHF) =  -669.535694163     A.U. after   15 cycles
 E2 =    -0.2092647744D+01 EUMP2 =    -0.67162834190766D+03

 The electronic state is 1-A.
 Alpha  occ. eigenvalues --  -20.60917 -20.60911 -15.85950 -11.31265 -11.27830
 Alpha  occ. eigenvalues --  -11.27813 -11.27559 -11.26839 -11.26823 -11.21916
 Alpha  occ. eigenvalues --  -11.21514 -11.21329 -11.21109 -11.21009 -11.20467
 Alpha  occ. eigenvalues --   -1.59978  -1.39533  -1.19437  -1.08838  -1.08304
 Alpha  occ. eigenvalues --   -1.04837  -1.03423  -0.95862  -0.95683  -0.86886
 Alpha  occ. eigenvalues --   -0.86231  -0.82519  -0.79550  -0.78057  -0.77553
 Alpha  occ. eigenvalues --   -0.72171  -0.71291  -0.70556  -0.65109  -0.65004
 Alpha  occ. eigenvalues --   -0.64769  -0.62214  -0.60781  -0.59303  -0.57459
 Alpha  occ. eigenvalues --   -0.55336  -0.55128  -0.53171  -0.52933  -0.52598
 Alpha  occ. eigenvalues --   -0.52278  -0.49806  -0.48927  -0.48924  -0.47833
 Alpha  occ. eigenvalues --   -0.46579  -0.45618  -0.45482  -0.44869  -0.43653
 Alpha  occ. eigenvalues --   -0.37411  -0.36398
 Alpha virt. eigenvalues --    0.04901   0.11170   0.16338   0.19928   0.23076
 Alpha virt. eigenvalues --    0.24170   0.26108   0.26799   0.27444   0.28367
 Alpha virt. eigenvalues --    0.29663   0.30420   0.31469   0.31828   0.32557

 Mulliken charges:
               1
     1  C   -0.301491
     2  C   -0.299140
     3  C   -0.477615
     4  H    0.157979
     5  H    0.146219
     6  H    0.157193
     7  H    0.148325
     8  H    0.151360
     9  H    0.163937
    10  H    0.159515
    11  C   -0.298669
    12  C   -0.304427
    13  C   -0.476527
    14  H    0.152652
    15  H    0.149662
    16  H    0.144833
    17  H    0.153561
    18  H    0.159427
    19  H    0.155468
    20  H    0.153718
    21  C   -0.170825
    22  C   -0.218323
    23  C   -0.171010
    24  C    0.157652
    25  C   -0.171634
    26  C   -0.218176
    27  H    0.226076
    28  H    0.223815
    29  H    0.275765
    30  H    0.277480
    31  H    0.225533
    32  N    0.488256
    33  O   -0.461540
    34  O   -0.459048
 Sum of Mulliken charges =  -0.00000

 Dipole moment (field-independent basis, Debye):
    X=              2.0744    Y=              4.3075    Z=              1.8020  Tot=              5.1093
 Quadrupole moment (field-independent basis, Debye-Ang):
   XX=            -82.5132   YY=            -99.3798   ZZ=            -95.1491
   XY=              6.9150   XZ=              5.4892   YZ=             -2.2657

 Normal termination of Gaussian 16 at Wed May  5 21:44:09 2021.
