 Gaussian 16, Revision A.03,
 Gaussian 16:  EM64L-G16RevA.03 25-Dec-2016

 -------------
 #p 6-31g* mp2
 -------------

 ------------------------------------------------------
 Input file generated by CHIRIPA (05-May-2021 14:55:21)
 ------------------------------------------------------
 Symbolic Z-matrix:
 Charge =  0 Multiplicity = 1

                         Standard orientation:
 ---------------------------------------------------------------------
 Center     Atomic      Atomic             Coordinates (Angstroms)
 Number     Number       Type             X           Y           Z
 ---------------------------------------------------------------------
      1          6           0       -0.242333   -2.486216    0.661040
      2          6           0       -0.294360   -1.323833    1.437364
      3          6           0       -1.227012   -0.321719    1.153678
      4          6           0       -2.096468   -0.515797    0.081452
      5          6           0       -2.069345   -1.662684   -0.710511
      6          6           0       -1.128429   -2.651640   -0.408534
      7          1           0        0.485383   -3.259571    0.888518
      8          1           0        0.392556   -1.192656    2.268618
      9          1           0       -1.289096    0.588064    1.738365
     10          1           0       -2.767141   -1.764929   -1.532731
     11          1           0       -1.090310   -3.553324   -1.013148
     12          7           0       -3.088199    0.538131   -0.228556
     13          8           0       -3.843179    0.343071   -1.178605
     14          8           0       -3.091759    1.539304    0.484380
     15          6           0        1.818898    1.252366   -0.038627
     16          6           0        1.944894    2.771318   -0.160674
     17          6           0        0.625498    3.497129    0.104256
     18          1           0        1.054995    0.896381   -0.743377
     19          1           0        1.456845    1.001163    0.967955
     20          1           0        2.307921    3.019508   -1.166273
     21          1           0        2.708721    3.123705    0.544312
     22          1           0        0.261521    3.278661    1.113412
     23          1           0       -0.141557    3.173871   -0.606892
     24          1           0        0.738380    4.581821    0.011735
     25          6           0        3.129629    0.512747   -0.300687
     26          6           0        3.003633   -1.006205   -0.178640
     27          6           0        4.323029   -1.732015   -0.443570
     28          1           0        3.491683    0.763950   -1.307270
     29          1           0        3.893532    0.868731    0.404063
     30          1           0        2.239806   -1.358593   -0.883627
     31          1           0        2.640606   -1.254394    0.826959
     32          1           0        5.090084   -1.408759    0.267579
     33          1           0        4.687006   -1.513549   -1.452726
     34          1           0        4.210147   -2.816708   -0.351049
 ---------------------------------------------------------------------

 SCF Done:  E(RHF) =  -669.532611485     A.U. after   15 cycles
 E2 =    -0.2096330425D+01 EUMP2 =    -0.67162894191029D+03

 The electronic state is 1-A.
 Alpha  occ. eigenvalues --  -20.60777 -20.60762 -15.85818 -11.31153 -11.27744
 Alpha  occ. eigenvalues --  -11.27709 -11.27454 -11.26741 -11.26681 -11.22157
 Alpha  occ. eigenvalues --  -11.21764 -11.21652 -11.21637 -11.21566 -11.20873
 Alpha  occ. eigenvalues --   -1.59844  -1.39397  -1.19345  -1.08825  -1.08668
 Alpha  occ. eigenvalues --   -1.04749  -1.03808  -0.96232  -0.95575  -0.87244
 Alpha  occ. eigenvalues --   -0.86150  -0.82417  -0.79898  -0.78607  -0.77433
 Alpha  occ. eigenvalues --   -0.72036  -0.71167  -0.70446  -0.65436  -0.65000
 Alpha  occ. eigenvalues --   -0.64737  -0.62093  -0.61203  -0.59661  -0.57857
 Alpha  occ. eigenvalues --   -0.55511  -0.55238  -0.53328  -0.52849  -0.52825
 Alpha  occ. eigenvalues --   -0.52594  -0.50178  -0.48798  -0.48794  -0.48211
 Alpha  occ. eigenvalues --   -0.46946  -0.46081  -0.45960  -0.44783  -0.44054
 Alpha  occ. eigenvalues --   -0.37237  -0.36187
 Alpha virt. eigenvalues --    0.05061   0.11142   0.16413   0.19935   0.23070
 Alpha virt. eigenvalues --    0.23266   0.25334   0.26736   0.26893   0.27777
 Alpha virt. eigenvalues --    0.30025   0.30454   0.31076   0.31728   0.31887

 Mulliken charges:
               1
     1  C   -0.166355
     2  C   -0.213683
     3  C   -0.167087
     4  C    0.156083
     5  C   -0.171810
     6  C   -0.221168
     7  H    0.226010
     8  H    0.221943
     9  H    0.275942
    10  H    0.275326
    11  H    0.223172
    12  N    0.487715
    13  O   -0.460752
    14  O   -0.459912
    15  C   -0.295519
    16  C   -0.300815
    17  C   -0.475411
    18  H    0.153604
    19  H    0.140077
    20  H    0.152541
    21  H    0.149922
    22  H    0.152338
    23  H    0.162780
    24  H    0.161910
    25  C   -0.298621
    26  C   -0.298883
    27  C   -0.475403
    28  H    0.151614
    29  H    0.149130
    30  H    0.155108
    31  H    0.140533
    32  H    0.156260
    33  H    0.158067
    34  H    0.155345
 Sum of Mulliken charges =  -0.00000

 Dipole moment (field-independent basis, Debye):
    X=              3.4343    Y=             -3.6271    Z=              1.0171  Tot=              5.0975
 Quadrupole moment (field-independent basis, Debye-Ang):
   XX=           -110.6494   YY=            -90.2064   ZZ=            -91.0951
   XY=              7.6945   XZ=             -0.3353   YZ=              1.3775

 Normal termination of Gaussian 16 at Thu May  6 10:55:26 2021.
