 Gaussian 16, Revision A.03,
 Gaussian 16:  EM64L-G16RevA.03 25-Dec-2016

 -------------
 #p 6-31g* mp2
 -------------

 ------------------------------------------------------
 Input file generated by CHIRIPA (05-May-2021 14:57:27)
 ------------------------------------------------------
 Symbolic Z-matrix:
 Charge =  0 Multiplicity = 1

                         Standard orientation:
 ---------------------------------------------------------------------
 Center     Atomic      Atomic             Coordinates (Angstroms)
 Number     Number       Type             X           Y           Z
 ---------------------------------------------------------------------
      1          6           0        3.592227   -2.082920    0.265685
      2          6           0        3.191613   -1.210178    1.282715
      3          6           0        2.607234    0.021343    0.972224
      4          6           0        2.437720    0.349528   -0.371967
      5          6           0        2.826476   -0.498513   -1.407818
      6          6           0        3.408704   -1.724933   -1.073973
      7          1           0        4.045352   -3.037614    0.515953
      8          1           0        3.332906   -1.485561    2.323987
      9          1           0        2.287926    0.715956    1.739670
     10          1           0        2.672632   -0.196236   -2.436593
     11          1           0        3.718866   -2.400728   -1.865899
     12          7           0        1.820203    1.650584   -0.713032
     13          8           0        1.681834    1.916276   -1.905046
     14          8           0        1.486255    2.380024    0.218114
     15          6           0       -3.907706   -1.052722   -1.595236
     16          6           0       -3.653519    0.320241   -1.512290
     17          6           0       -2.896656    0.839766   -0.457871
     18          6           0       -2.407221   -0.046386    0.500503
     19          6           0       -2.643355   -1.419157    0.445469
     20          6           0       -3.402703   -1.916517   -0.617814
     21          1           0       -4.496620   -1.447693   -2.417777
     22          1           0       -4.044443    0.993437   -2.269938
     23          1           0       -2.684768    1.898386   -0.369298
     24          1           0       -2.240299   -2.065350    1.215794
     25          1           0       -3.598524   -2.983228   -0.679678
     26          7           0       -1.604649    0.491880    1.621462
     27          8           0       -1.184739   -0.309828    2.453074
     28          8           0       -1.410700    1.705287    1.647233
 ---------------------------------------------------------------------

 SCF Done:  E(RHF) =  -868.337671862     A.U. after   16 cycles
 E2 =    -0.2600755774D+01 EUMP2 =    -0.87093842763589D+03

 The electronic state is 1-A.
 Alpha  occ. eigenvalues --  -20.60482 -20.60321 -20.60210 -20.60072 -15.85426
 Alpha  occ. eigenvalues --  -15.85173 -11.30839 -11.30594 -11.27476 -11.27343
 Alpha  occ. eigenvalues --  -11.27252 -11.27196 -11.27062 -11.26978 -11.26494
 Alpha  occ. eigenvalues --  -11.26397 -11.26280 -11.26140  -1.59477  -1.59226
 Alpha  occ. eigenvalues --   -1.39021  -1.38764  -1.19025  -1.18789  -1.08422
 Alpha  occ. eigenvalues --   -1.08190  -1.04427  -1.04181  -0.95245  -0.95001
 Alpha  occ. eigenvalues --   -0.85826  -0.85586  -0.82070  -0.81813  -0.77104
 Alpha  occ. eigenvalues --   -0.76847  -0.71678  -0.71383  -0.70916  -0.70430
 Alpha  occ. eigenvalues --   -0.70135  -0.69896  -0.64675  -0.64438  -0.64429
 Alpha  occ. eigenvalues --   -0.64187  -0.61765  -0.61508  -0.54947  -0.54719
 Alpha  occ. eigenvalues --   -0.52766  -0.52537  -0.52518  -0.52267  -0.48449
 Alpha  occ. eigenvalues --   -0.48421  -0.48186  -0.48128  -0.44644  -0.43875
 Alpha  occ. eigenvalues --   -0.37033  -0.36804  -0.36029  -0.35778
 Alpha virt. eigenvalues --    0.05262   0.05818   0.11620   0.11853   0.16865
 Alpha virt. eigenvalues --    0.17159   0.21735   0.21984   0.27656   0.27912
 Alpha virt. eigenvalues --    0.28645   0.28918   0.31242   0.31506   0.32961

 Mulliken charges:
               1
     1  C   -0.172049
     2  C   -0.218020
     3  C   -0.168295
     4  C    0.153421
     5  C   -0.172409
     6  C   -0.219739
     7  H    0.223057
     8  H    0.225713
     9  H    0.287196
    10  H    0.272257
    11  H    0.219767
    12  N    0.484853
    13  O   -0.469296
    14  O   -0.446908
    15  C   -0.171152
    16  C   -0.218242
    17  C   -0.168713
    18  C    0.155774
    19  C   -0.171688
    20  C   -0.219172
    21  H    0.224257
    22  H    0.224955
    23  H    0.282923
    24  H    0.272313
    25  H    0.220681
    26  N    0.485496
    27  O   -0.471612
    28  O   -0.445368
 Sum of Mulliken charges =  -0.00000

 Dipole moment (field-independent basis, Debye):
    X=             -0.7295    Y=             -6.1215    Z=             -2.5437  Tot=              6.6690
 Quadrupole moment (field-independent basis, Debye-Ang):
   XX=            -82.4485   YY=           -103.9481   ZZ=           -105.2000
   XY=             -6.7417   XZ=             10.9269   YZ=              0.9218

 Normal termination of Gaussian 16 at Thu May  6 05:14:34 2021.
