 Gaussian 16, Revision A.03,
 Gaussian 16:  EM64L-G16RevA.03 25-Dec-2016

 -------------
 #p 6-31g* mp2
 -------------

 ------------------------------------------------------
 Input file generated by CHIRIPA (05-May-2021 14:53:13)
 ------------------------------------------------------
 Symbolic Z-matrix:
 Charge =  0 Multiplicity = 1

                         Standard orientation:
 ---------------------------------------------------------------------
 Center     Atomic      Atomic             Coordinates (Angstroms)
 Number     Number       Type             X           Y           Z
 ---------------------------------------------------------------------
      1          6           0        3.231051   -0.598643   -0.162904
      2          6           0        2.399961   -1.850152   -0.447507
      3          6           0        3.244510   -3.124087   -0.487758
      4          1           0        4.009222   -0.500238   -0.932133
      5          1           0        3.753249   -0.723928    0.795745
      6          1           0        1.878398   -1.721971   -1.404669
      7          1           0        1.623558   -1.945483    0.322380
      8          1           0        3.753323   -3.279366    0.469111
      9          1           0        4.009612   -3.054584   -1.267751
     10          1           0        2.630406   -4.006573   -0.692584
     11          6           0        2.400825    0.682986   -0.119545
     12          6           0        3.231916    1.934494    0.165058
     13          6           0        2.387367    3.208430    0.205308
     14          1           0        1.878628    0.808271   -1.078194
     15          1           0        1.622655    0.584581    0.649684
     16          1           0        4.008319    2.029826   -0.604829
     17          1           0        3.753478    1.806314    1.122220
     18          1           0        1.622265    3.138927    0.985301
     19          1           0        1.878553    3.363709   -0.751560
     20          1           0        3.001471    4.090916    0.410135
     21          6           0       -2.200421    2.452493   -0.323845
     22          6           0       -3.046875    1.613772   -1.056362
     23          6           0       -3.055004    0.235148   -0.824244
     24          6           0       -2.199906   -0.273230    0.152307
     25          6           0       -1.345057    0.536433    0.898610
     26          6           0       -1.353706    1.912100    0.649587
     27          1           0       -2.200623    3.522293   -0.510726
     28          1           0       -3.705508    2.030671   -1.812962
     29          1           0       -3.700149   -0.437084   -1.376793
     30          1           0       -0.699703    0.091582    1.646301
     31          1           0       -0.695275    2.561060    1.219993
     32          7           0       -2.199632   -1.731151    0.406988
     33          8           0       -1.436831   -2.154325    1.272839
     34          8           0       -2.962221   -2.423092   -0.264066
 ---------------------------------------------------------------------

 SCF Done:  E(RHF) =  -669.534856225     A.U. after   15 cycles
 E2 =    -0.2093934661D+01 EUMP2 =    -0.67162879088660D+03

 The electronic state is 1-A.
 Alpha  occ. eigenvalues --  -20.60841 -20.60836 -15.85871 -11.31182 -11.27745
 Alpha  occ. eigenvalues --  -11.27742 -11.27470 -11.26754 -11.26713 -11.22029
 Alpha  occ. eigenvalues --  -11.21827 -11.21620 -11.21330 -11.21193 -11.20640
 Alpha  occ. eigenvalues --   -1.59897  -1.39454  -1.19352  -1.08755  -1.08542
 Alpha  occ. eigenvalues --   -1.04755  -1.03609  -0.96105  -0.95599  -0.87134
 Alpha  occ. eigenvalues --   -0.86147  -0.82447  -0.79727  -0.78311  -0.77463
 Alpha  occ. eigenvalues --   -0.72094  -0.71205  -0.70469  -0.65209  -0.64998
 Alpha  occ. eigenvalues --   -0.64791  -0.62130  -0.60990  -0.59506  -0.57674
 Alpha  occ. eigenvalues --   -0.55449  -0.55250  -0.53110  -0.52971  -0.52758
 Alpha  occ. eigenvalues --   -0.52400  -0.50065  -0.48862  -0.48844  -0.48003
 Alpha  occ. eigenvalues --   -0.46761  -0.45864  -0.45719  -0.44784  -0.43850
 Alpha  occ. eigenvalues --   -0.37323  -0.36271
 Alpha virt. eigenvalues --    0.04997   0.11207   0.16408   0.19901   0.23072
 Alpha virt. eigenvalues --    0.23996   0.25212   0.26312   0.26993   0.28778
 Alpha virt. eigenvalues --    0.29284   0.30604   0.31366   0.32076   0.32267

 Mulliken charges:
               1
     1  C   -0.298477
     2  C   -0.306024
     3  C   -0.475676
     4  H    0.148942
     5  H    0.149309
     6  H    0.149982
     7  H    0.165125
     8  H    0.154679
     9  H    0.151920
    10  H    0.165729
    11  C   -0.298314
    12  C   -0.299753
    13  C   -0.475999
    14  H    0.151151
    15  H    0.143669
    16  H    0.154700
    17  H    0.153188
    18  H    0.143962
    19  H    0.155549
    20  H    0.162674
    21  C   -0.172811
    22  C   -0.218596
    23  C   -0.171485
    24  C    0.157716
    25  C   -0.169655
    26  C   -0.216226
    27  H    0.226086
    28  H    0.223258
    29  H    0.275340
    30  H    0.274222
    31  H    0.227747
    32  N    0.488707
    33  O   -0.461135
    34  O   -0.459503
 Sum of Mulliken charges =  -0.00000

 Dipole moment (field-independent basis, Debye):
    X=             -0.0140    Y=              5.0307    Z=             -0.9411  Tot=              5.1180
 Quadrupole moment (field-independent basis, Debye-Ang):
   XX=            -92.9404   YY=            -99.0030   ZZ=            -92.0661
   XY=            -10.4766   XZ=              4.7602   YZ=              1.1509

 Normal termination of Gaussian 16 at Thu May  6 13:42:49 2021.
