 Gaussian 16, Revision A.03,
 Gaussian 16:  EM64L-G16RevA.03 25-Dec-2016

 -------------
 #p 6-31g* mp2
 -------------

 ------------------------------------------------------
 Input file generated by CHIRIPA (05-May-2021 14:51:10)
 ------------------------------------------------------
 Symbolic Z-matrix:
 Charge =  0 Multiplicity = 1

                         Standard orientation:
 ---------------------------------------------------------------------
 Center     Atomic      Atomic             Coordinates (Angstroms)
 Number     Number       Type             X           Y           Z
 ---------------------------------------------------------------------
      1          6           0        3.568418   -0.529254   -0.281935
      2          6           0        2.487834   -1.029788    0.677122
      3          6           0        1.557329   -2.058682    0.034214
      4          1           0        3.088915   -0.089470   -1.167154
      5          1           0        4.157559   -1.385495   -0.638529
      6          1           0        1.901787   -0.172697    1.032876
      7          1           0        2.969963   -1.468258    1.560249
      8          1           0        2.124118   -2.931743   -0.305076
      9          1           0        1.049873   -1.628821   -0.835445
     10          1           0        0.792555   -2.403004    0.737367
     11          6           0        4.506489    0.499887    0.346253
     12          6           0        5.587072    1.000421   -0.612804
     13          6           0        6.517577    2.029315    0.030104
     14          1           0        3.917348    1.356127    0.702848
     15          1           0        4.985991    0.060103    1.231472
     16          1           0        5.104944    1.438891   -1.495930
     17          1           0        6.173120    0.143330   -0.968557
     18          1           0        7.025034    1.599453    0.899764
     19          1           0        5.950789    2.902375    0.369394
     20          1           0        7.282351    2.373636   -0.673048
     21          6           0       -3.890206   -0.689287   -0.289407
     22          6           0       -2.605752   -1.288267    0.284514
     23          6           0       -2.324747   -2.696879   -0.239550
     24          1           0       -4.735089   -1.347954   -0.045949
     25          1           0       -3.817782   -0.666016   -1.385586
     26          1           0       -2.680012   -1.309124    1.379350
     27          1           0       -1.763855   -0.627999    0.039826
     28          1           0       -2.224092   -2.689376   -1.329694
     29          1           0       -3.145454   -3.374371    0.017442
     30          1           0       -1.401985   -3.105978    0.183545
     31          6           0       -4.184701    0.718654    0.225088
     32          6           0       -5.469155    1.317635   -0.348832
     33          6           0       -5.750160    2.726246    0.175232
     34          1           0       -4.257125    0.695384    1.321267
     35          1           0       -3.339816    1.377322   -0.018369
     36          1           0       -6.311052    0.657366   -0.104145
     37          1           0       -5.394895    1.338492   -1.443669
     38          1           0       -4.929452    3.403738   -0.081760
     39          1           0       -5.850815    2.718743    1.265374
     40          1           0       -6.672922    3.135346   -0.247864
 ---------------------------------------------------------------------

 SCF Done:  E(RHF) =  -470.732973379     A.U. after   11 cycles
 E2 =    -0.1582615110D+01 EUMP2 =    -0.47231558848954D+03

 The electronic state is 1-A.
 Alpha  occ. eigenvalues --  -11.21609 -11.21606 -11.21594 -11.21553 -11.21414
 Alpha  occ. eigenvalues --  -11.21386 -11.21355 -11.21325 -11.21077 -11.21068
 Alpha  occ. eigenvalues --  -11.21065 -11.20954  -1.08441  -1.08402  -1.03559
 Alpha  occ. eigenvalues --   -1.03475  -0.96040  -0.95894  -0.87068  -0.86901
 Alpha  occ. eigenvalues --   -0.79614  -0.79547  -0.78250  -0.78219  -0.65087
 Alpha  occ. eigenvalues --   -0.65020  -0.61005  -0.60832  -0.59662  -0.59099
 Alpha  occ. eigenvalues --   -0.57723  -0.57415  -0.55335  -0.55161  -0.52992
 Alpha  occ. eigenvalues --   -0.52490  -0.52426  -0.52151  -0.49930  -0.49873
 Alpha  occ. eigenvalues --   -0.47952  -0.47839  -0.46639  -0.46585  -0.45796
 Alpha  occ. eigenvalues --   -0.45755  -0.45718  -0.45684  -0.43925  -0.43593
 Alpha virt. eigenvalues --    0.21550   0.23077   0.23446   0.25092   0.26344
 Alpha virt. eigenvalues --    0.26825   0.26891   0.27429   0.27605   0.28945
 Alpha virt. eigenvalues --    0.29498   0.31246   0.31640   0.31905   0.32163

 Mulliken charges:
               1
     1  C   -0.298610
     2  C   -0.300022
     3  C   -0.478580
     4  H    0.149434
     5  H    0.149592
     6  H    0.152161
     7  H    0.151907
     8  H    0.155018
     9  H    0.156401
    10  H    0.163491
    11  C   -0.298258
    12  C   -0.299622
    13  C   -0.475704
    14  H    0.149516
    15  H    0.149705
    16  H    0.151873
    17  H    0.151956
    18  H    0.155210
    19  H    0.155184
    20  H    0.160266
    21  C   -0.298141
    22  C   -0.300998
    23  C   -0.478844
    24  H    0.149680
    25  H    0.149359
    26  H    0.151182
    27  H    0.153149
    28  H    0.154585
    29  H    0.154090
    30  H    0.165455
    31  C   -0.298172
    32  C   -0.299626
    33  C   -0.475678
    34  H    0.149471
    35  H    0.149272
    36  H    0.151983
    37  H    0.151869
    38  H    0.155045
    39  H    0.155172
    40  H    0.160231
 Sum of Mulliken charges =  -0.00000

 Dipole moment (field-independent basis, Debye):
    X=              0.0273    Y=             -0.0124    Z=              0.0016  Tot=              0.0300
 Quadrupole moment (field-independent basis, Debye-Ang):
   XX=            -84.9237   YY=            -85.6667   ZZ=            -84.2770
   XY=             -0.5270   XZ=             -0.3745   YZ=             -1.1028

 Normal termination of Gaussian 16 at Wed May  5 18:10:26 2021.
