 Gaussian 16, Revision A.03,
 Gaussian 16:  EM64L-G16RevA.03 25-Dec-2016

 -------------
 #p 6-31g* mp2
 -------------

 ------------------------------------------------------
 Input file generated by CHIRIPA (05-May-2021 14:53:14)
 ------------------------------------------------------
 Symbolic Z-matrix:
 Charge =  0 Multiplicity = 1

                         Standard orientation:
 ---------------------------------------------------------------------
 Center     Atomic      Atomic             Coordinates (Angstroms)
 Number     Number       Type             X           Y           Z
 ---------------------------------------------------------------------
      1          6           0        5.197142   -0.202810    0.431185
      2          6           0        6.040435   -1.123912   -0.451092
      3          6           0        6.996443   -2.002926    0.355864
      4          1           0        5.864124    0.432229    1.030188
      5          1           0        4.623592   -0.812553    1.142978
      6          1           0        6.611172   -0.512694   -1.161927
      7          1           0        5.371366   -1.756698   -1.048205
      8          1           0        6.440336   -2.636963    1.053963
      9          1           0        7.687188   -1.385891    0.939594
     10          1           0        7.589461   -2.653403   -0.294574
     11          6           0        4.236481    0.682186   -0.361055
     12          6           0        3.393188    1.603288    0.521222
     13          6           0        2.437180    2.482302   -0.285734
     14          1           0        4.810030    1.291929   -1.072848
     15          1           0        3.569498    0.047147   -0.960058
     16          1           0        4.062257    2.236074    1.118335
     17          1           0        2.822450    0.992070    1.232057
     18          1           0        1.746435    1.865267   -0.869464
     19          1           0        2.993286    3.116339   -0.983833
     20          1           0        1.844162    3.132779    0.364704
     21          6           0       -1.218617    0.286306   -0.269412
     22          6           0       -1.689869   -1.028400   -0.346817
     23          6           0       -3.054349   -1.302519   -0.214152
     24          6           0       -3.923450   -0.233039   -0.003997
     25          6           0       -3.484613    1.087574    0.077814
     26          6           0       -2.115911    1.338242   -0.057716
     27          1           0       -0.157016    0.490140   -0.373583
     28          1           0       -0.995322   -1.847328   -0.511152
     29          1           0       -3.446251   -2.310844   -0.269938
     30          1           0       -4.201233    1.883057    0.242375
     31          1           0       -1.752767    2.360253    0.002832
     32          7           0       -5.370199   -0.510823    0.137966
     33          8           0       -6.115395    0.449007    0.322484
     34          8           0       -5.731571   -1.683120    0.062031
 ---------------------------------------------------------------------

 SCF Done:  E(RHF) =  -669.535507331     A.U. after   15 cycles
 E2 =    -0.2090887700D+01 EUMP2 =    -0.67162639503115D+03

 The electronic state is 1-A.
 Alpha  occ. eigenvalues --  -20.60733 -20.60728 -15.85786 -11.31146 -11.27718
 Alpha  occ. eigenvalues --  -11.27711 -11.27425 -11.26730 -11.26711 -11.22668
 Alpha  occ. eigenvalues --  -11.22386 -11.22313 -11.22239 -11.22118 -11.21598
 Alpha  occ. eigenvalues --   -1.59809  -1.39362  -1.19317  -1.09296  -1.08711
 Alpha  occ. eigenvalues --   -1.04721  -1.04410  -0.96872  -0.95547  -0.87888
 Alpha  occ. eigenvalues --   -0.86116  -0.82383  -0.80475  -0.79065  -0.77430
 Alpha  occ. eigenvalues --   -0.72004  -0.71132  -0.70450  -0.65935  -0.64968
 Alpha  occ. eigenvalues --   -0.64725  -0.62071  -0.61822  -0.60252  -0.58455
 Alpha  occ. eigenvalues --   -0.56282  -0.55130  -0.53563  -0.53272  -0.53049
 Alpha  occ. eigenvalues --   -0.52810  -0.50806  -0.48795  -0.48760  -0.48747
 Alpha  occ. eigenvalues --   -0.47510  -0.46614  -0.46521  -0.44769  -0.44647
 Alpha  occ. eigenvalues --   -0.37294  -0.36328
 Alpha virt. eigenvalues --    0.05101   0.11326   0.16581   0.19016   0.22506
 Alpha virt. eigenvalues --    0.23738   0.25490   0.26341   0.26590   0.27435
 Alpha virt. eigenvalues --    0.29097   0.29829   0.30947   0.31311   0.32381

 Mulliken charges:
               1
     1  C   -0.298860
     2  C   -0.300053
     3  C   -0.476144
     4  H    0.151996
     5  H    0.149424
     6  H    0.153346
     7  H    0.151226
     8  H    0.155559
     9  H    0.156442
    10  H    0.162065
    11  C   -0.297893
    12  C   -0.301814
    13  C   -0.480487
    14  H    0.152665
    15  H    0.145200
    16  H    0.157406
    17  H    0.150834
    18  H    0.146536
    19  H    0.162722
    20  H    0.160887
    21  C   -0.176740
    22  C   -0.220173
    23  C   -0.170699
    24  C    0.158287
    25  C   -0.170895
    26  C   -0.221373
    27  H    0.235389
    28  H    0.223301
    29  H    0.275346
    30  H    0.275504
    31  H    0.224072
    32  N    0.488026
    33  O   -0.460519
    34  O   -0.460582
 Sum of Mulliken charges =  -0.00000

 Dipole moment (field-independent basis, Debye):
    X=              5.3676    Y=              1.0289    Z=             -0.4731  Tot=              5.4857
 Quadrupole moment (field-independent basis, Debye-Ang):
   XX=           -134.1774   YY=            -90.1527   ZZ=            -95.7890
   XY=             -4.8327   XZ=              1.5106   YZ=              1.0683

 Normal termination of Gaussian 16 at Thu May  6 02:38:23 2021.
