 Gaussian 16, Revision A.03,
 Gaussian 16:  EM64L-G16RevA.03 25-Dec-2016

 -------------
 #p 6-31g* mp2
 -------------

 ------------------------------------------------------
 Input file generated by CHIRIPA (05-May-2021 14:55:24)
 ------------------------------------------------------
 Symbolic Z-matrix:
 Charge =  0 Multiplicity = 1

                         Standard orientation:
 ---------------------------------------------------------------------
 Center     Atomic      Atomic             Coordinates (Angstroms)
 Number     Number       Type             X           Y           Z
 ---------------------------------------------------------------------
      1          6           0       -1.453760    0.718185    0.079141
      2          6           0       -2.387642    1.744002    0.258264
      3          6           0       -3.758260    1.474038    0.202827
      4          6           0       -4.161684    0.160973   -0.034661
      5          6           0       -3.255674   -0.882648   -0.217120
      6          6           0       -1.889987   -0.589561   -0.157562
      7          1           0       -0.390946    0.936881    0.123806
      8          1           0       -2.051747    2.760550    0.442244
      9          1           0       -4.502805    2.249154    0.337974
     10          1           0       -3.620918   -1.886127   -0.398907
     11          1           0       -1.166983   -1.388219   -0.297041
     12          7           0       -5.610085   -0.137066   -0.095531
     13          8           0       -5.939831   -1.302208   -0.306121
     14          8           0       -6.388172    0.800117    0.068501
     15          6           0        4.582254   -0.862526    0.227008
     16          6           0        3.089698   -0.609336    0.012166
     17          6           0        2.224143   -1.806031    0.407799
     18          1           0        4.885462   -1.744226   -0.354038
     19          1           0        4.756859   -1.109213    1.283442
     20          1           0        2.918151   -0.361844   -1.043265
     21          1           0        2.790050    0.271979    0.593639
     22          1           0        2.365911   -2.051143    1.465355
     23          1           0        2.494740   -2.688567   -0.180851
     24          1           0        1.160830   -1.603347    0.246105
     25          6           0        5.460548    0.324687   -0.163957
     26          6           0        6.953104    0.071496    0.050885
     27          6           0        7.818660    1.268192   -0.344749
     28          1           0        5.285943    0.571374   -1.220392
     29          1           0        5.157340    1.206388    0.417088
     30          1           0        7.252752   -0.809818   -0.530589
     31          1           0        7.124652   -0.175995    1.106317
     32          1           0        7.548062    2.150728    0.243902
     33          1           0        7.676891    1.513303   -1.402304
     34          1           0        8.881972    1.065508   -0.183055
 ---------------------------------------------------------------------

 SCF Done:  E(RHF) =  -669.535439014     A.U. after   15 cycles
 E2 =    -0.2091095760D+01 EUMP2 =    -0.67162653477336D+03

 The electronic state is 1-A.
 Alpha  occ. eigenvalues --  -20.60730 -20.60725 -15.85784 -11.31144 -11.27717
 Alpha  occ. eigenvalues --  -11.27712 -11.27446 -11.26729 -11.26708 -11.22716
 Alpha  occ. eigenvalues --  -11.22307 -11.22227 -11.22172 -11.22068 -11.21556
 Alpha  occ. eigenvalues --   -1.59806  -1.39359  -1.19318  -1.09243  -1.08713
 Alpha  occ. eigenvalues --   -1.04723  -1.04367  -0.96814  -0.95547  -0.87834
 Alpha  occ. eigenvalues --   -0.86123  -0.82381  -0.80448  -0.79015  -0.77433
 Alpha  occ. eigenvalues --   -0.72003  -0.71129  -0.70425  -0.65862  -0.64974
 Alpha  occ. eigenvalues --   -0.64775  -0.62116  -0.61748  -0.60203  -0.58411
 Alpha  occ. eigenvalues --   -0.56070  -0.55215  -0.53595  -0.53265  -0.53047
 Alpha  occ. eigenvalues --   -0.52727  -0.50732  -0.48803  -0.48757  -0.48712
 Alpha  occ. eigenvalues --   -0.47466  -0.46564  -0.46457  -0.44766  -0.44613
 Alpha  occ. eigenvalues --   -0.37296  -0.36326
 Alpha virt. eigenvalues --    0.05107   0.11311   0.16601   0.19029   0.22392
 Alpha virt. eigenvalues --    0.23876   0.25478   0.25759   0.26229   0.27436
 Alpha virt. eigenvalues --    0.28920   0.29495   0.30679   0.31592   0.31807

 Mulliken charges:
               1
     1  C   -0.173906
     2  C   -0.218826
     3  C   -0.171057
     4  C    0.158684
     5  C   -0.171041
     6  C   -0.223782
     7  H    0.228312
     8  H    0.223327
     9  H    0.275450
    10  H    0.275873
    11  H    0.229219
    12  N    0.487933
    13  O   -0.460452
    14  O   -0.460544
    15  C   -0.299093
    16  C   -0.301449
    17  C   -0.480127
    18  H    0.152353
    19  H    0.151847
    20  H    0.152806
    21  H    0.148349
    22  H    0.161146
    23  H    0.160626
    24  H    0.150625
    25  C   -0.298876
    26  C   -0.300293
    27  C   -0.476125
    28  H    0.150236
    29  H    0.149345
    30  H    0.153175
    31  H    0.152966
    32  H    0.155406
    33  H    0.155765
    34  H    0.162125
 Sum of Mulliken charges =  -0.00000

 Dipole moment (field-independent basis, Debye):
    X=              5.3707    Y=              1.0145    Z=              0.2253  Tot=              5.4703
 Quadrupole moment (field-independent basis, Debye-Ang):
   XX=           -137.1418   YY=            -90.1322   ZZ=            -94.6265
   XY=             -5.5159   XZ=             -1.1360   YZ=              1.4915

 Normal termination of Gaussian 16 at Thu May  6 00:01:25 2021.
