 Gaussian 16, Revision A.03,
 Gaussian 16:  EM64L-G16RevA.03 25-Dec-2016

 -------------
 #p 6-31g* mp2
 -------------

 ------------------------------------------------------
 Input file generated by CHIRIPA (05-May-2021 14:57:25)
 ------------------------------------------------------
 Symbolic Z-matrix:
 Charge =  0 Multiplicity = 1

                         Standard orientation:
 ---------------------------------------------------------------------
 Center     Atomic      Atomic             Coordinates (Angstroms)
 Number     Number       Type             X           Y           Z
 ---------------------------------------------------------------------
      1          6           0        5.812852   -0.525685    0.873632
      2          6           0        5.093883   -1.546911    0.243788
      3          6           0        3.822274   -1.299840   -0.282058
      4          6           0        3.297633   -0.014101   -0.159928
      5          6           0        3.989241    1.024259    0.461986
      6          6           0        5.259212    0.754384    0.980532
      7          1           0        6.800032   -0.726472    1.279286
      8          1           0        5.521353   -2.541989    0.159323
      9          1           0        3.243863   -2.072010   -0.774615
     10          1           0        3.536840    2.006091    0.530960
     11          1           0        5.815286    1.549414    1.469157
     12          7           0        1.952304    0.259533   -0.712753
     13          8           0        1.512280    1.400807   -0.592302
     14          8           0        1.363334   -0.672449   -1.256040
     15          6           0       -2.582080    2.377470   -0.267415
     16          6           0       -3.541025    2.147195    0.724512
     17          6           0       -4.067283    0.866767    0.919717
     18          6           0       -3.609972   -0.164923    0.101321
     19          6           0       -2.655617    0.032777   -0.895380
     20          6           0       -2.143210    1.321388   -1.072775
     21          1           0       -2.178651    3.375315   -0.412137
     22          1           0       -3.883712    2.965465    1.351444
     23          1           0       -4.810607    0.660499    1.680204
     24          1           0       -2.333554   -0.802905   -1.504748
     25          1           0       -1.398580    1.497288   -1.843897
     26          7           0       -4.159765   -1.524786    0.298549
     27          8           0       -3.740373   -2.416830   -0.435621
     28          8           0       -4.999676   -1.672854    1.183571
 ---------------------------------------------------------------------

 SCF Done:  E(RHF) =  -868.340501330     A.U. after   16 cycles
 E2 =    -0.2598976845D+01 EUMP2 =    -0.87093947817460D+03

 The electronic state is 1-A.
 Alpha  occ. eigenvalues --  -20.61587 -20.61567 -20.59728 -20.59711 -15.86583
 Alpha  occ. eigenvalues --  -15.84761 -11.31677 -11.29854 -11.28231 -11.28188
 Alpha  occ. eigenvalues --  -11.27907 -11.27179 -11.27146 -11.26456 -11.26224
 Alpha  occ. eigenvalues --  -11.26047 -11.25471 -11.25116  -1.60629  -1.58803
 Alpha  occ. eigenvalues --   -1.40189  -1.38362  -1.19824  -1.17983  -1.09273
 Alpha  occ. eigenvalues --   -1.07434  -1.05185  -1.03314  -0.96154  -0.94318
 Alpha  occ. eigenvalues --   -0.86596  -0.84733  -0.82996  -0.81143  -0.78070
 Alpha  occ. eigenvalues --   -0.76221  -0.72826  -0.71914  -0.70990  -0.70930
 Alpha  occ. eigenvalues --   -0.70122  -0.69101  -0.65481  -0.65189  -0.63624
 Alpha  occ. eigenvalues --   -0.63295  -0.62534  -0.60658  -0.55700  -0.53859
 Alpha  occ. eigenvalues --   -0.53528  -0.53274  -0.51712  -0.51404  -0.49582
 Alpha  occ. eigenvalues --   -0.49536  -0.47755  -0.47717  -0.45646  -0.43828
 Alpha  occ. eigenvalues --   -0.37788  -0.36774  -0.35966  -0.34879
 Alpha virt. eigenvalues --    0.04448   0.06260   0.10885   0.12754   0.16000
 Alpha virt. eigenvalues --    0.17835   0.21048   0.22878   0.26977   0.27914
 Alpha virt. eigenvalues --    0.28914   0.29637   0.30641   0.32129   0.32418

 Mulliken charges:
               1
     1  C   -0.169761
     2  C   -0.218544
     3  C   -0.169964
     4  C    0.158220
     5  C   -0.170470
     6  C   -0.218556
     7  H    0.227504
     8  H    0.225908
     9  H    0.277778
    10  H    0.274125
    11  H    0.224433
    12  N    0.490120
    13  O   -0.466710
    14  O   -0.461076
    15  C   -0.172058
    16  C   -0.219778
    17  C   -0.174514
    18  C    0.156262
    19  C   -0.171523
    20  C   -0.207647
    21  H    0.222908
    22  H    0.217150
    23  H    0.270000
    24  H    0.278841
    25  H    0.236697
    26  N    0.488070
    27  O   -0.461630
    28  O   -0.465784
 Sum of Mulliken charges =  -0.00000

 Dipole moment (field-independent basis, Debye):
    X=              7.2720    Y=              3.7756    Z=              1.0746  Tot=              8.2639
 Quadrupole moment (field-independent basis, Debye-Ang):
   XX=            -87.9319   YY=           -102.1166   ZZ=           -103.5030
   XY=            -22.0028   XZ=              6.9631   YZ=              3.7417

 Normal termination of Gaussian 16 at Fri May  7 09:34:38 2021.
