 Gaussian 16, Revision A.03,
 Gaussian 16:  EM64L-G16RevA.03 25-Dec-2016

 -------------
 #p 6-31g* mp2
 -------------

 ------------------------------------------------------
 Input file generated by CHIRIPA (05-May-2021 14:55:24)
 ------------------------------------------------------
 Symbolic Z-matrix:
 Charge =  0 Multiplicity = 1

                         Standard orientation:
 ---------------------------------------------------------------------
 Center     Atomic      Atomic             Coordinates (Angstroms)
 Number     Number       Type             X           Y           Z
 ---------------------------------------------------------------------
      1          6           0       -1.707913    2.047217   -0.541673
      2          6           0       -1.032850    0.828262   -0.663981
      3          6           0       -1.696555   -0.378272   -0.422488
      4          6           0       -3.041411   -0.328704   -0.058902
      5          6           0       -3.741446    0.869755    0.071237
      6          6           0       -3.057676    2.064044   -0.175101
      7          1           0       -1.184537    2.979726   -0.731152
      8          1           0        0.015400    0.812160   -0.948514
      9          1           0       -1.198168   -1.336078   -0.509868
     10          1           0       -4.786341    0.853837    0.356471
     11          1           0       -3.584478    3.009219   -0.079349
     12          7           0       -3.754667   -1.599526    0.199320
     13          8           0       -4.939530   -1.528866    0.518290
     14          8           0       -3.115347   -2.642192    0.077854
     15          6           0        3.431612    0.782844   -0.169482
     16          6           0        2.816681    1.711861    0.877787
     17          6           0        2.198652    2.968232    0.263487
     18          1           0        4.198093    1.332337   -0.732962
     19          1           0        2.657286    0.495025   -0.894034
     20          1           0        3.591611    1.996736    1.600937
     21          1           0        2.051708    1.160037    1.438967
     22          1           0        1.406369    2.701646   -0.443493
     23          1           0        2.955022    3.543098   -0.280603
     24          1           0        1.764909    3.618159    1.029858
     25          6           0        4.053465   -0.477545    0.429221
     26          6           0        4.668395   -1.406562   -0.618048
     27          6           0        5.286425   -2.662933   -0.003749
     28          1           0        4.827790   -0.189726    1.153773
     29          1           0        3.286983   -1.027037    0.992701
     30          1           0        5.433368   -0.854738   -1.179228
     31          1           0        3.893465   -1.691437   -1.341198
     32          1           0        4.530055   -3.237799    0.540342
     33          1           0        6.078708   -2.396347    0.703232
     34          1           0        5.720168   -3.312860   -0.770119
 ---------------------------------------------------------------------

 SCF Done:  E(RHF) =  -669.534941292     A.U. after   15 cycles
 E2 =    -0.2092295999D+01 EUMP2 =    -0.67162723729052D+03

 The electronic state is 1-A.
 Alpha  occ. eigenvalues --  -20.60754 -20.60748 -15.85807 -11.31166 -11.27741
 Alpha  occ. eigenvalues --  -11.27737 -11.27456 -11.26743 -11.26722 -11.22528
 Alpha  occ. eigenvalues --  -11.22320 -11.22256 -11.22125 -11.22022 -11.21431
 Alpha  occ. eigenvalues --   -1.59829  -1.39383  -1.19340  -1.09219  -1.08732
 Alpha  occ. eigenvalues --   -1.04750  -1.04284  -0.96760  -0.95568  -0.87775
 Alpha  occ. eigenvalues --   -0.86149  -0.82403  -0.80363  -0.78991  -0.77458
 Alpha  occ. eigenvalues --   -0.72027  -0.71153  -0.70455  -0.65968  -0.64995
 Alpha  occ. eigenvalues --   -0.64726  -0.62215  -0.61529  -0.60131  -0.58337
 Alpha  occ. eigenvalues --   -0.56086  -0.55228  -0.53426  -0.53179  -0.53058
 Alpha  occ. eigenvalues --   -0.52833  -0.50706  -0.48799  -0.48781  -0.48645
 Alpha  occ. eigenvalues --   -0.47391  -0.46527  -0.46438  -0.44790  -0.44539
 Alpha  occ. eigenvalues --   -0.37306  -0.36346
 Alpha virt. eigenvalues --    0.05082   0.11242   0.16557   0.18889   0.22637
 Alpha virt. eigenvalues --    0.23876   0.25063   0.25811   0.26605   0.28593
 Alpha virt. eigenvalues --    0.28980   0.30115   0.30915   0.31315   0.31576

 Mulliken charges:
               1
     1  C   -0.172848
     2  C   -0.224405
     3  C   -0.172823
     4  C    0.158535
     5  C   -0.170949
     6  C   -0.218769
     7  H    0.228188
     8  H    0.231100
     9  H    0.275228
    10  H    0.275529
    11  H    0.223437
    12  N    0.488081
    13  O   -0.460452
    14  O   -0.460643
    15  C   -0.301059
    16  C   -0.302850
    17  C   -0.477506
    18  H    0.153236
    19  H    0.141887
    20  H    0.157589
    21  H    0.155468
    22  H    0.142726
    23  H    0.159941
    24  H    0.163676
    25  C   -0.299124
    26  C   -0.300054
    27  C   -0.476392
    28  H    0.152464
    29  H    0.151285
    30  H    0.152841
    31  H    0.150968
    32  H    0.157273
    33  H    0.156132
    34  H    0.162288
 Sum of Mulliken charges =  -0.00000

 Dipole moment (field-independent basis, Debye):
    X=              2.7304    Y=              4.4707    Z=             -0.8071  Tot=              5.3004
 Quadrupole moment (field-independent basis, Debye-Ang):
   XX=           -105.2026   YY=            -97.3199   ZZ=            -95.3508
   XY=            -16.1885   XZ=              1.8486   YZ=              1.0791

 Normal termination of Gaussian 16 at Thu May  6 14:21:21 2021.
