 Gaussian 16, Revision A.03,
 Gaussian 16:  EM64L-G16RevA.03 25-Dec-2016

 -------------
 #p 6-31g* mp2
 -------------

 ------------------------------------------------------
 Input file generated by CHIRIPA (05-May-2021 14:53:12)
 ------------------------------------------------------
 Symbolic Z-matrix:
 Charge =  0 Multiplicity = 1

                         Standard orientation:
 ---------------------------------------------------------------------
 Center     Atomic      Atomic             Coordinates (Angstroms)
 Number     Number       Type             X           Y           Z
 ---------------------------------------------------------------------
      1          6           0       -2.696708   -0.478274    0.280645
      2          6           0       -1.885712   -0.505171    1.576618
      3          6           0       -0.468746   -1.043536    1.376201
      4          1           0       -2.744255   -1.493778   -0.135810
      5          1           0       -2.170295    0.139117   -0.460377
      6          1           0       -2.414186   -1.121199    2.315428
      7          1           0       -1.840252    0.510482    1.990136
      8          1           0        0.080449   -0.425118    0.658883
      9          1           0       -0.496746   -2.066071    0.986023
     10          1           0        0.093297   -1.054018    2.315274
     11          6           0       -4.115435    0.057471    0.464812
     12          6           0       -4.926431    0.084369   -0.831161
     13          6           0       -6.343396    0.622733   -0.630744
     14          1           0       -4.641848   -0.559920    1.205834
     15          1           0       -4.067888    1.072976    0.881267
     16          1           0       -4.971891   -0.931285   -1.244679
     17          1           0       -4.397957    0.700397   -1.569971
     18          1           0       -6.315397    1.645268   -0.240566
     19          1           0       -6.892592    0.004316    0.086574
     20          1           0       -6.905440    0.633215   -1.569816
     21          6           0        2.625797    2.648543    0.148803
     22          6           0        3.255322    1.786407    1.052652
     23          6           0        3.280965    0.408254    0.819021
     24          6           0        2.664396   -0.075784   -0.333732
     25          6           0        2.029162    0.757543   -1.253151
     26          6           0        2.015801    2.132270   -0.999189
     27          1           0        2.610646    3.717795    0.338191
     28          1           0        3.729867    2.184547    1.945028
     29          1           0        3.761244   -0.281806    1.502078
     30          1           0        1.564702    0.331091   -2.133967
     31          1           0        1.526161    2.799444   -1.702877
     32          7           0        2.685042   -1.532959   -0.591828
     33          8           0        2.134591   -1.934436   -1.614792
     34          8           0        3.251285   -2.246025    0.233728
 ---------------------------------------------------------------------

 SCF Done:  E(RHF) =  -669.534510337     A.U. after   15 cycles
 E2 =    -0.2093352060D+01 EUMP2 =    -0.67162786239667D+03

 The electronic state is 1-A.
 Alpha  occ. eigenvalues --  -20.60751 -20.60743 -15.85792 -11.31166 -11.27756
 Alpha  occ. eigenvalues --  -11.27750 -11.27528 -11.26824 -11.26802 -11.21587
 Alpha  occ. eigenvalues --  -11.21459 -11.21348 -11.21256 -11.21080 -11.20732
 Alpha  occ. eigenvalues --   -1.59816  -1.39370  -1.19389  -1.08774  -1.08348
 Alpha  occ. eigenvalues --   -1.04793  -1.03431  -0.95880  -0.95596  -0.86903
 Alpha  occ. eigenvalues --   -0.86186  -0.82430  -0.79515  -0.78166  -0.77468
 Alpha  occ. eigenvalues --   -0.72021  -0.71138  -0.70485  -0.65034  -0.64986
 Alpha  occ. eigenvalues --   -0.64795  -0.62135  -0.60849  -0.59246  -0.57498
 Alpha  occ. eigenvalues --   -0.55315  -0.55249  -0.53225  -0.52881  -0.52546
 Alpha  occ. eigenvalues --   -0.52208  -0.49760  -0.48784  -0.48773  -0.47810
 Alpha  occ. eigenvalues --   -0.46530  -0.45702  -0.45631  -0.44763  -0.43689
 Alpha  occ. eigenvalues --   -0.37283  -0.36397
 Alpha virt. eigenvalues --    0.05049   0.11188   0.16542   0.21372   0.22934
 Alpha virt. eigenvalues --    0.24406   0.26662   0.27236   0.27576   0.27989
 Alpha virt. eigenvalues --    0.28350   0.30895   0.31527   0.31897   0.31946

 Mulliken charges:
               1
     1  C   -0.297550
     2  C   -0.298786
     3  C   -0.484000
     4  H    0.153966
     5  H    0.145474
     6  H    0.152306
     7  H    0.148059
     8  H    0.155701
     9  H    0.165030
    10  H    0.158618
    11  C   -0.298134
    12  C   -0.299312
    13  C   -0.475585
    14  H    0.150259
    15  H    0.147314
    16  H    0.153858
    17  H    0.149760
    18  H    0.153861
    19  H    0.155780
    20  H    0.160171
    21  C   -0.171543
    22  C   -0.217423
    23  C   -0.170407
    24  C    0.159006
    25  C   -0.175442
    26  C   -0.216651
    27  H    0.225638
    28  H    0.223596
    29  H    0.275723
    30  H    0.275819
    31  H    0.223571
    32  N    0.492629
    33  O   -0.460815
    34  O   -0.460490
 Sum of Mulliken charges =  -0.00000

 Dipole moment (field-independent basis, Debye):
    X=             -0.0090    Y=              5.0555    Z=              0.9064  Tot=              5.1361
 Quadrupole moment (field-independent basis, Debye-Ang):
   XX=            -95.5470   YY=            -95.1373   ZZ=            -92.0833
   XY=             14.3178   XZ=              5.0342   YZ=             -2.6655

 Normal termination of Gaussian 16 at Wed May  5 18:31:33 2021.
