 Gaussian 16, Revision A.03,
 Gaussian 16:  EM64L-G16RevA.03 25-Dec-2016

 -------------
 #p 6-31g* mp2
 -------------

 ------------------------------------------------------
 Input file generated by CHIRIPA (05-May-2021 14:55:24)
 ------------------------------------------------------
 Symbolic Z-matrix:
 Charge =  0 Multiplicity = 1

                         Standard orientation:
 ---------------------------------------------------------------------
 Center     Atomic      Atomic             Coordinates (Angstroms)
 Number     Number       Type             X           Y           Z
 ---------------------------------------------------------------------
      1          6           0       -2.214664    2.030052    0.700187
      2          6           0       -2.866739    1.493910   -0.415102
      3          6           0       -2.732925    0.138944   -0.732449
      4          6           0       -1.935639   -0.654577    0.090928
      5          6           0       -1.273278   -0.149929    1.208916
      6          6           0       -1.421413    1.207871    1.507214
      7          1           0       -2.324177    3.083724    0.939311
      8          1           0       -3.483431    2.130055   -1.043636
      9          1           0       -3.226548   -0.302171   -1.589871
     10          1           0       -0.665302   -0.809057    1.816645
     11          1           0       -0.913830    1.621516    2.373991
     12          7           0       -1.786396   -2.090520   -0.234950
     13          8           0       -1.078267   -2.768518    0.506339
     14          8           0       -2.380373   -2.510823   -1.225492
     15          6           0        3.127191    0.086203   -0.191477
     16          6           0        2.826006   -1.366058    0.180290
     17          6           0        4.072498   -2.251360    0.163165
     18          1           0        3.585478    0.115050   -1.189517
     19          1           0        3.873717    0.488933    0.507024
     20          1           0        2.079244   -1.765499   -0.517858
     21          1           0        2.368208   -1.391436    1.177481
     22          1           0        4.818811   -1.879620    0.872692
     23          1           0        4.528205   -2.255808   -0.832281
     24          1           0        3.834334   -3.285251    0.431879
     25          6           0        1.891014    0.983664   -0.178793
     26          6           0        2.192199    2.435925   -0.550560
     27          6           0        0.945707    3.321227   -0.533435
     28          1           0        1.144488    0.580933   -0.877293
     29          1           0        1.432728    0.954817    0.819248
     30          1           0        2.649997    2.461302   -1.547751
     31          1           0        2.938961    2.835366    0.147588
     32          1           0        0.490000    3.325675    0.462012
     33          1           0        0.199395    2.949486   -1.242961
     34          1           0        1.183871    4.355118   -0.802148
 ---------------------------------------------------------------------

 SCF Done:  E(RHF) =  -669.532874269     A.U. after   15 cycles
 E2 =    -0.2096270250D+01 EUMP2 =    -0.67162914451887D+03

 The electronic state is 1-A.
 Alpha  occ. eigenvalues --  -20.60803 -20.60786 -15.85842 -11.31168 -11.27782
 Alpha  occ. eigenvalues --  -11.27749 -11.27489 -11.26752 -11.26708 -11.21861
 Alpha  occ. eigenvalues --  -11.21479 -11.21461 -11.21348 -11.21286 -11.20757
 Alpha  occ. eigenvalues --   -1.59868  -1.39421  -1.19371  -1.08774  -1.08464
 Alpha  occ. eigenvalues --   -1.04779  -1.03550  -0.96050  -0.95582  -0.87057
 Alpha  occ. eigenvalues --   -0.86174  -0.82439  -0.79649  -0.78292  -0.77464
 Alpha  occ. eigenvalues --   -0.72062  -0.71188  -0.70480  -0.65140  -0.65019
 Alpha  occ. eigenvalues --   -0.64780  -0.62125  -0.60956  -0.59424  -0.57629
 Alpha  occ. eigenvalues --   -0.55361  -0.55248  -0.53240  -0.52872  -0.52701
 Alpha  occ. eigenvalues --   -0.52465  -0.49998  -0.48824  -0.48818  -0.47878
 Alpha  occ. eigenvalues --   -0.46702  -0.45803  -0.45703  -0.44783  -0.43800
 Alpha  occ. eigenvalues --   -0.37249  -0.36223
 Alpha virt. eigenvalues --    0.05037   0.11092   0.16399   0.20319   0.23058
 Alpha virt. eigenvalues --    0.23946   0.25532   0.26684   0.26990   0.28498
 Alpha virt. eigenvalues --    0.29518   0.30160   0.31112   0.31637   0.32131

 Mulliken charges:
               1
     1  C   -0.164567
     2  C   -0.221130
     3  C   -0.171973
     4  C    0.156963
     5  C   -0.166172
     6  C   -0.216822
     7  H    0.226373
     8  H    0.223477
     9  H    0.275506
    10  H    0.276352
    11  H    0.222161
    12  N    0.487644
    13  O   -0.459974
    14  O   -0.460782
    15  C   -0.298680
    16  C   -0.299438
    17  C   -0.476312
    18  H    0.150083
    19  H    0.147044
    20  H    0.160297
    21  H    0.147865
    22  H    0.152088
    23  H    0.154806
    24  H    0.165479
    25  C   -0.296182
    26  C   -0.299817
    27  C   -0.473662
    28  H    0.151702
    29  H    0.142794
    30  H    0.153588
    31  H    0.150776
    32  H    0.145294
    33  H    0.157061
    34  H    0.158157
 Sum of Mulliken charges =  -0.00000

 Dipole moment (field-independent basis, Debye):
    X=             -0.5831    Y=              4.9300    Z=              1.1054  Tot=              5.0859
 Quadrupole moment (field-independent basis, Debye-Ang):
   XX=            -92.2979   YY=           -102.7264   ZZ=            -90.7728
   XY=             -9.7235   XZ=              0.4289   YZ=             -0.5834

 Normal termination of Gaussian 16 at Thu May  6 03:10:45 2021.
