 Gaussian 16, Revision A.03,
 Gaussian 16:  EM64L-G16RevA.03 25-Dec-2016

 -------------
 #p 6-31g* mp2
 -------------

 ------------------------------------------------------
 Input file generated by CHIRIPA (05-May-2021 14:55:22)
 ------------------------------------------------------
 Symbolic Z-matrix:
 Charge =  0 Multiplicity = 1

                         Standard orientation:
 ---------------------------------------------------------------------
 Center     Atomic      Atomic             Coordinates (Angstroms)
 Number     Number       Type             X           Y           Z
 ---------------------------------------------------------------------
      1          6           0        3.807378    1.050885    1.218033
      2          6           0        2.875662    0.278805    1.919687
      3          6           0        2.023769   -0.597018    1.240157
      4          6           0        2.131220   -0.676018   -0.147468
      5          6           0        3.049188    0.080036   -0.874797
      6          6           0        3.891020    0.949215   -0.174515
      7          1           0        4.465241    1.728664    1.753968
      8          1           0        2.808474    0.355700    3.001176
      9          1           0        1.293356   -1.206373    1.758425
     10          1           0        3.092661   -0.018345   -1.952688
     11          1           0        4.613648    1.547603   -0.722042
     12          7           0        1.234685   -1.599695   -0.877840
     13          8           0        1.349193   -1.650950   -2.100501
     14          8           0        0.434448   -2.254929   -0.213817
     15          6           0       -3.409703    0.244036    0.433358
     16          6           0       -3.323284   -1.247245    0.106861
     17          6           0       -4.314917   -2.087200    0.912427
     18          1           0       -3.227773    0.388959    1.507063
     19          1           0       -4.432342    0.596094    0.239297
     20          1           0       -2.300755   -1.596077    0.300165
     21          1           0       -3.505252   -1.388617   -0.966226
     22          1           0       -5.342585   -1.767088    0.712357
     23          1           0       -4.131244   -1.975726    1.985944
     24          1           0       -4.236054   -3.150017    0.663308
     25          6           0       -2.424486    1.096853   -0.363998
     26          6           0       -2.510904    2.588134   -0.037502
     27          6           0       -1.519271    3.428088   -0.843067
     28          1           0       -1.401847    0.744795   -0.169938
     29          1           0       -2.606415    0.951930   -1.437703
     30          1           0       -2.328936    2.729505    1.035586
     31          1           0       -3.533433    2.936966   -0.230806
     32          1           0       -1.702944    3.316615   -1.916585
     33          1           0       -0.491603    3.107977   -0.642998
     34          1           0       -1.598135    4.490906   -0.593948
 ---------------------------------------------------------------------

 SCF Done:  E(RHF) =  -669.536299120     A.U. after   15 cycles
 E2 =    -0.2091943712D+01 EUMP2 =    -0.67162824283224D+03

 The electronic state is 1-A.
 Alpha  occ. eigenvalues --  -20.60971 -20.60965 -15.85995 -11.31328 -11.27890
 Alpha  occ. eigenvalues --  -11.27874 -11.27614 -11.26888 -11.26877 -11.21306
 Alpha  occ. eigenvalues --  -11.20897 -11.20882 -11.20723 -11.20461 -11.20239
 Alpha  occ. eigenvalues --   -1.60022  -1.39580  -1.19489  -1.08890  -1.07834
 Alpha  occ. eigenvalues --   -1.04883  -1.02919  -0.95732  -0.95424  -0.86445
 Alpha  occ. eigenvalues --   -0.86283  -0.82566  -0.78998  -0.77659  -0.77543
 Alpha  occ. eigenvalues --   -0.72218  -0.71331  -0.70592  -0.65145  -0.64883
 Alpha  occ. eigenvalues --   -0.64471  -0.62229  -0.60319  -0.58804  -0.56996
 Alpha  occ. eigenvalues --   -0.55384  -0.54735  -0.53214  -0.52973  -0.52125
 Alpha  occ. eigenvalues --   -0.51837  -0.49395  -0.48984  -0.48974  -0.47312
 Alpha  occ. eigenvalues --   -0.46050  -0.45411  -0.45121  -0.44555  -0.43184
 Alpha  occ. eigenvalues --   -0.37461  -0.36483
 Alpha virt. eigenvalues --    0.04875   0.11145   0.16328   0.21257   0.23278
 Alpha virt. eigenvalues --    0.24882   0.26780   0.27308   0.27775   0.28391
 Alpha virt. eigenvalues --    0.28514   0.30939   0.31871   0.32157   0.32620

 Mulliken charges:
               1
     1  C   -0.170574
     2  C   -0.218460
     3  C   -0.171587
     4  C    0.158033
     5  C   -0.170716
     6  C   -0.218512
     7  H    0.226233
     8  H    0.223987
     9  H    0.275601
    10  H    0.276199
    11  H    0.224148
    12  N    0.490041
    13  O   -0.457927
    14  O   -0.460902
    15  C   -0.297661
    16  C   -0.309576
    17  C   -0.475139
    18  H    0.144097
    19  H    0.146632
    20  H    0.175122
    21  H    0.152927
    22  H    0.150796
    23  H    0.150104
    24  H    0.162430
    25  C   -0.296622
    26  C   -0.298754
    27  C   -0.475371
    28  H    0.145423
    29  H    0.152873
    30  H    0.148514
    31  H    0.151784
    32  H    0.156575
    33  H    0.152593
    34  H    0.157690
 Sum of Mulliken charges =  -0.00000

 Dipole moment (field-independent basis, Debye):
    X=              3.3672    Y=              3.1123    Z=              2.4718  Tot=              5.2091
 Quadrupole moment (field-independent basis, Debye-Ang):
   XX=            -81.4678   YY=           -100.2627   ZZ=            -91.6292
   XY=              5.2756   XZ=              4.2122   YZ=             -3.2111

 Normal termination of Gaussian 16 at Wed May  5 23:54:20 2021.
