 Gaussian 16, Revision A.03,
 Gaussian 16:  EM64L-G16RevA.03 25-Dec-2016

 -------------
 #p 6-31g* mp2
 -------------

 ------------------------------------------------------
 Input file generated by CHIRIPA (05-May-2021 14:53:13)
 ------------------------------------------------------
 Symbolic Z-matrix:
 Charge =  0 Multiplicity = 1

                         Standard orientation:
 ---------------------------------------------------------------------
 Center     Atomic      Atomic             Coordinates (Angstroms)
 Number     Number       Type             X           Y           Z
 ---------------------------------------------------------------------
      1          6           0        3.300859   -0.018140   -0.296339
      2          6           0        3.706955   -1.266817    0.487164
      3          6           0        4.412747   -2.307192   -0.383048
      4          1           0        2.643092   -0.311392   -1.125972
      5          1           0        4.196216    0.428722   -0.750260
      6          1           0        2.811287   -1.710410    0.940616
      7          1           0        4.363677   -0.970536    1.315144
      8          1           0        5.322373   -1.887145   -0.824343
      9          1           0        3.761163   -2.631222   -1.200999
     10          1           0        4.694246   -3.191512    0.197121
     11          6           0        2.594164    1.031169    0.559967
     12          6           0        2.188067    2.279846   -0.223536
     13          6           0        1.482275    3.320222    0.646677
     14          1           0        1.698806    0.584308    1.013888
     15          1           0        3.251930    1.324421    1.389601
     16          1           0        1.531345    1.983566   -1.051515
     17          1           0        3.083736    2.723440   -0.676988
     18          1           0        2.133860    3.644252    1.464627
     19          1           0        0.572649    2.900174    1.087972
     20          1           0        1.200776    4.204542    0.066507
     21          6           0       -2.824418    2.058236   -0.371128
     22          6           0       -1.587773    1.555735   -0.789127
     23          6           0       -1.287901    0.197804   -0.645430
     24          6           0       -2.252309   -0.632954   -0.077056
     25          6           0       -3.493365   -0.162370    0.349117
     26          6           0       -3.771597    1.199095    0.195660
     27          1           0       -3.048961    3.114482   -0.486546
     28          1           0       -0.850267    2.220622   -1.229642
     29          1           0       -0.338435   -0.217749   -0.960463
     30          1           0       -4.208364   -0.849747    0.784670
     31          1           0       -4.732819    1.586562    0.521182
     32          7           0       -1.946303   -2.072404    0.080235
     33          8           0       -2.812988   -2.783548    0.583991
     34          8           0       -0.845564   -2.462247   -0.303213
 ---------------------------------------------------------------------

 SCF Done:  E(RHF) =  -669.535225321     A.U. after   15 cycles
 E2 =    -0.2093560986D+01 EUMP2 =    -0.67162878630743D+03

 The electronic state is 1-A.
 Alpha  occ. eigenvalues --  -20.60840 -20.60832 -15.85889 -11.31242 -11.27799
 Alpha  occ. eigenvalues --  -11.27794 -11.27524 -11.26814 -11.26765 -11.22322
 Alpha  occ. eigenvalues --  -11.21736 -11.21715 -11.21517 -11.21364 -11.20740
 Alpha  occ. eigenvalues --   -1.59911  -1.39466  -1.19410  -1.08809  -1.08692
 Alpha  occ. eigenvalues --   -1.04816  -1.03740  -0.96193  -0.95640  -0.87214
 Alpha  occ. eigenvalues --   -0.86199  -0.82479  -0.79872  -0.78423  -0.77533
 Alpha  occ. eigenvalues --   -0.72107  -0.71233  -0.70516  -0.65453  -0.65036
 Alpha  occ. eigenvalues --   -0.64818  -0.62214  -0.61006  -0.59620  -0.57777
 Alpha  occ. eigenvalues --   -0.55501  -0.55289  -0.53130  -0.52905  -0.52847
 Alpha  occ. eigenvalues --   -0.52588  -0.50151  -0.48863  -0.48862  -0.48148
 Alpha  occ. eigenvalues --   -0.46923  -0.45975  -0.45836  -0.44870  -0.43999
 Alpha  occ. eigenvalues --   -0.37377  -0.36381
 Alpha virt. eigenvalues --    0.04975   0.11160   0.16410   0.19077   0.22839
 Alpha virt. eigenvalues --    0.23907   0.25282   0.26679   0.26962   0.28612
 Alpha virt. eigenvalues --    0.29668   0.30801   0.31325   0.31354   0.32244

 Mulliken charges:
               1
     1  C   -0.299600
     2  C   -0.301630
     3  C   -0.476252
     4  H    0.147902
     5  H    0.149463
     6  H    0.162463
     7  H    0.150136
     8  H    0.151914
     9  H    0.159872
    10  H    0.162295
    11  C   -0.302302
    12  C   -0.301356
    13  C   -0.481798
    14  H    0.153106
    15  H    0.152958
    16  H    0.138941
    17  H    0.156518
    18  H    0.160549
    19  H    0.159233
    20  H    0.155220
    21  C   -0.172333
    22  C   -0.221375
    23  C   -0.175713
    24  C    0.157873
    25  C   -0.170651
    26  C   -0.218389
    27  H    0.226441
    28  H    0.231289
    29  H    0.278983
    30  H    0.275713
    31  H    0.223714
    32  N    0.488146
    33  O   -0.459827
    34  O   -0.461502
 Sum of Mulliken charges =  -0.00000

 Dipole moment (field-independent basis, Debye):
    X=             -1.0370    Y=              4.9636    Z=             -0.4528  Tot=              5.0910
 Quadrupole moment (field-independent basis, Debye-Ang):
   XX=            -85.0576   YY=           -102.1967   ZZ=            -94.7667
   XY=             -9.5443   XZ=             -0.1026   YZ=             -0.6073

 Normal termination of Gaussian 16 at Wed May  5 21:47:20 2021.
