 Gaussian 16, Revision A.03,
 Gaussian 16:  EM64L-G16RevA.03 25-Dec-2016

 -------------
 #p 6-31g* mp2
 -------------

 ------------------------------------------------------
 Input file generated by CHIRIPA (05-May-2021 14:55:22)
 ------------------------------------------------------
 Symbolic Z-matrix:
 Charge =  0 Multiplicity = 1

                         Standard orientation:
 ---------------------------------------------------------------------
 Center     Atomic      Atomic             Coordinates (Angstroms)
 Number     Number       Type             X           Y           Z
 ---------------------------------------------------------------------
      1          6           0       -4.461618    1.361298    1.105392
      2          6           0       -4.917427    0.049580    0.937598
      3          6           0       -4.103664   -0.912940    0.332708
      4          6           0       -2.833957   -0.527421   -0.094503
      5          6           0       -2.351316    0.771400    0.058503
      6          6           0       -3.182273    1.717394    0.666083
      7          1           0       -5.100447    2.102588    1.576330
      8          1           0       -5.910527   -0.229811    1.277801
      9          1           0       -4.431382   -1.935554    0.190303
     10          1           0       -1.356533    1.019960   -0.290845
     11          1           0       -2.825649    2.735345    0.795084
     12          7           0       -1.963361   -1.537650   -0.736297
     13          8           0       -0.848810   -1.172721   -1.104045
     14          8           0       -2.412025   -2.675268   -0.859435
     15          6           0        4.344870   -0.076477   -0.107227
     16          6           0        5.003134   -0.509943    1.203032
     17          6           0        6.068733   -1.587663    1.001011
     18          1           0        3.894140   -0.953583   -0.591450
     19          1           0        5.118807    0.295741   -0.792697
     20          1           0        4.228016   -0.879943    1.886339
     21          1           0        5.452184    0.368331    1.684286
     22          1           0        6.862547   -1.225373    0.339796
     23          1           0        5.631424   -2.480740    0.542997
     24          1           0        6.526332   -1.882748    1.950425
     25          6           0        3.277381    1.000440    0.078370
     26          6           0        2.619117    1.433906   -1.231890
     27          6           0        1.553518    2.511626   -1.029867
     28          1           0        2.503443    0.628222    0.763841
     29          1           0        3.728110    1.877546    0.562592
     30          1           0        2.170068    0.555631   -1.713143
     31          1           0        3.394235    1.803905   -1.915197
     32          1           0        1.990827    3.404702   -0.571853
     33          1           0        0.759704    2.149335   -0.368653
     34          1           0        1.095918    2.806710   -1.979282
 ---------------------------------------------------------------------

 SCF Done:  E(RHF) =  -669.535826493     A.U. after   15 cycles
 E2 =    -0.2091222659D+01 EUMP2 =    -0.67162704915221D+03

 The electronic state is 1-A.
 Alpha  occ. eigenvalues --  -20.60832 -20.60825 -15.85881 -11.31202 -11.27774
 Alpha  occ. eigenvalues --  -11.27744 -11.27513 -11.26785 -11.26766 -11.21230
 Alpha  occ. eigenvalues --  -11.21208 -11.21166 -11.21010 -11.20900 -11.20685
 Alpha  occ. eigenvalues --   -1.59903  -1.39458  -1.19375  -1.08780  -1.08045
 Alpha  occ. eigenvalues --   -1.04773  -1.03226  -0.95723  -0.95615  -0.86744
 Alpha  occ. eigenvalues --   -0.86172  -0.82453  -0.79285  -0.77845  -0.77505
 Alpha  occ. eigenvalues --   -0.72103  -0.71223  -0.70494  -0.65030  -0.64816
 Alpha  occ. eigenvalues --   -0.64629  -0.62156  -0.60593  -0.59077  -0.57312
 Alpha  occ. eigenvalues --   -0.55327  -0.54982  -0.53106  -0.52875  -0.52425
 Alpha  occ. eigenvalues --   -0.52136  -0.49649  -0.48858  -0.48852  -0.47611
 Alpha  occ. eigenvalues --   -0.46276  -0.45405  -0.45281  -0.44871  -0.43461
 Alpha  occ. eigenvalues --   -0.37359  -0.36374
 Alpha virt. eigenvalues --    0.05023   0.11272   0.16526   0.20266   0.23131
 Alpha virt. eigenvalues --    0.24118   0.26150   0.27317   0.27940   0.28013
 Alpha virt. eigenvalues --    0.29333   0.30872   0.31526   0.31874   0.32309

 Mulliken charges:
               1
     1  C   -0.170545
     2  C   -0.219068
     3  C   -0.170010
     4  C    0.158051
     5  C   -0.181042
     6  C   -0.222241
     7  H    0.225744
     8  H    0.223505
     9  H    0.275560
    10  H    0.290423
    11  H    0.224166
    12  N    0.487489
    13  O   -0.462416
    14  O   -0.459930
    15  C   -0.299759
    16  C   -0.299495
    17  C   -0.475853
    18  H    0.157072
    19  H    0.147812
    20  H    0.152566
    21  H    0.149426
    22  H    0.154180
    23  H    0.157544
    24  H    0.158763
    25  C   -0.297808
    26  C   -0.302731
    27  C   -0.477815
    28  H    0.150808
    29  H    0.145599
    30  H    0.169172
    31  H    0.150669
    32  H    0.154167
    33  H    0.145088
    34  H    0.160908
 Sum of Mulliken charges =  -0.00000

 Dipole moment (field-independent basis, Debye):
    X=             -3.0729    Y=              3.4464    Z=              2.1797  Tot=              5.1060
 Quadrupole moment (field-independent basis, Debye-Ang):
   XX=            -75.3497   YY=            -96.8428   ZZ=            -95.9165
   XY=             -4.9109   XZ=             -7.1667   YZ=             -1.9768

 Normal termination of Gaussian 16 at Thu May  6 07:49:06 2021.
