 Gaussian 16, Revision A.03,
 Gaussian 16:  EM64L-G16RevA.03 25-Dec-2016

 -------------
 #p 6-31g* mp2
 -------------

 ------------------------------------------------------
 Input file generated by CHIRIPA (05-May-2021 14:55:19)
 ------------------------------------------------------
 Symbolic Z-matrix:
 Charge =  0 Multiplicity = 1

                         Standard orientation:
 ---------------------------------------------------------------------
 Center     Atomic      Atomic             Coordinates (Angstroms)
 Number     Number       Type             X           Y           Z
 ---------------------------------------------------------------------
      1          6           0        2.596029    2.743827    0.173658
      2          6           0        1.865161    1.888315    1.004593
      3          6           0        2.083937    0.507897    0.970973
      4          6           0        3.045608    0.014864    0.090407
      5          6           0        3.789882    0.841438   -0.749903
      6          6           0        3.554368    2.218584   -0.699399
      7          1           0        2.419577    3.814898    0.206333
      8          1           0        1.120268    2.293425    1.683611
      9          1           0        1.532322   -0.177171    1.603288
     10          1           0        4.525748    0.408095   -1.416337
     11          1           0        4.123458    2.880600   -1.345863
     12          7           0        3.286076   -1.444791    0.045878
     13          8           0        4.138950   -1.854239   -0.738722
     14          8           0        2.617129   -2.151781    0.796418
     15          6           0       -3.147272   -0.352182   -0.428869
     16          6           0       -2.217915   -1.343981    0.271572
     17          6           0       -0.820414   -1.383050   -0.347503
     18          1           0       -3.222964   -0.618438   -1.492037
     19          1           0       -2.699341    0.650390   -0.388852
     20          1           0       -2.668122   -2.344142    0.231455
     21          1           0       -2.144578   -1.075447    1.333235
     22          1           0       -0.347586   -0.397072   -0.293818
     23          1           0       -0.874104   -1.672975   -1.401857
     24          1           0       -0.172586   -2.098520    0.168523
     25          6           0       -4.548026   -0.301726    0.178640
     26          6           0       -5.477382    0.690072   -0.521802
     27          6           0       -6.874884    0.729142    0.097275
     28          1           0       -4.995957   -1.304299    0.138623
     29          1           0       -4.472334   -0.035471    1.241807
     30          1           0       -5.550719    0.421539   -1.583464
     31          1           0       -5.027176    1.690233   -0.481685
     32          1           0       -6.821194    1.019067    1.151629
     33          1           0       -7.347711   -0.256836    0.043589
     34          1           0       -7.522711    1.444612   -0.418752
 ---------------------------------------------------------------------

 SCF Done:  E(RHF) =  -669.535274195     A.U. after   15 cycles
 E2 =    -0.2092692424D+01 EUMP2 =    -0.67162796661917D+03

 The electronic state is 1-A.
 Alpha  occ. eigenvalues --  -20.60852 -20.60846 -15.85881 -11.31201 -11.27796
 Alpha  occ. eigenvalues --  -11.27773 -11.27543 -11.26796 -11.26784 -11.21680
 Alpha  occ. eigenvalues --  -11.21474 -11.21422 -11.21348 -11.21149 -11.20611
 Alpha  occ. eigenvalues --   -1.59907  -1.39466  -1.19397  -1.08792  -1.08418
 Alpha  occ. eigenvalues --   -1.04804  -1.03467  -0.95918  -0.95622  -0.86931
 Alpha  occ. eigenvalues --   -0.86184  -0.82473  -0.79548  -0.78240  -0.77514
 Alpha  occ. eigenvalues --   -0.72113  -0.71217  -0.70513  -0.65076  -0.65052
 Alpha  occ. eigenvalues --   -0.64795  -0.62169  -0.60875  -0.59252  -0.57503
 Alpha  occ. eigenvalues --   -0.55373  -0.55187  -0.53172  -0.52901  -0.52526
 Alpha  occ. eigenvalues --   -0.52276  -0.49846  -0.48868  -0.48861  -0.47835
 Alpha  occ. eigenvalues --   -0.46600  -0.45770  -0.45721  -0.44908  -0.43619
 Alpha  occ. eigenvalues --   -0.37364  -0.36347
 Alpha virt. eigenvalues --    0.04979   0.11241   0.16412   0.21108   0.22881
 Alpha virt. eigenvalues --    0.24258   0.26577   0.27238   0.27465   0.27838
 Alpha virt. eigenvalues --    0.28978   0.30637   0.31478   0.31790   0.32018

 Mulliken charges:
               1
     1  C   -0.170017
     2  C   -0.220778
     3  C   -0.168810
     4  C    0.159148
     5  C   -0.170493
     6  C   -0.218888
     7  H    0.225765
     8  H    0.223512
     9  H    0.278494
    10  H    0.275718
    11  H    0.223531
    12  N    0.489123
    13  O   -0.459425
    14  O   -0.460262
    15  C   -0.297153
    16  C   -0.299298
    17  C   -0.492536
    18  H    0.150776
    19  H    0.144930
    20  H    0.154522
    21  H    0.146274
    22  H    0.148983
    23  H    0.155696
    24  H    0.182424
    25  C   -0.297940
    26  C   -0.299245
    27  C   -0.475596
    28  H    0.150955
    29  H    0.147830
    30  H    0.152553
    31  H    0.149711
    32  H    0.154476
    33  H    0.156092
    34  H    0.159928
 Sum of Mulliken charges =  -0.00000

 Dipole moment (field-independent basis, Debye):
    X=             -0.7089    Y=              5.0434    Z=              0.1476  Tot=              5.0951
 Quadrupole moment (field-independent basis, Debye-Ang):
   XX=            -99.0087   YY=            -94.3508   ZZ=            -92.4345
   XY=             16.8251   XZ=             -1.8753   YZ=              0.3579

 Normal termination of Gaussian 16 at Thu May  6 20:37:49 2021.
