 Gaussian 16, Revision A.03,
 Gaussian 16:  EM64L-G16RevA.03 25-Dec-2016

 -------------
 #p 6-31g* mp2
 -------------

 ------------------------------------------------------
 Input file generated by CHIRIPA (05-May-2021 14:51:11)
 ------------------------------------------------------
 Symbolic Z-matrix:
 Charge =  0 Multiplicity = 1

                         Standard orientation:
 ---------------------------------------------------------------------
 Center     Atomic      Atomic             Coordinates (Angstroms)
 Number     Number       Type             X           Y           Z
 ---------------------------------------------------------------------
      1          6           0       -3.544234    0.816126    0.101700
      2          6           0       -2.715367    1.774132   -0.754565
      3          6           0       -2.672287    3.191498   -0.182717
      4          1           0       -4.566729    1.207394    0.193126
      5          1           0       -3.127543    0.789922    1.118103
      6          1           0       -3.132662    1.797464   -1.769423
      7          1           0       -1.694778    1.380439   -0.844123
      8          1           0       -2.236008    3.188691    0.821402
      9          1           0       -3.682061    3.608085   -0.109156
     10          1           0       -2.074527    3.859682   -0.810469
     11          6           0       -3.596774   -0.604720   -0.457018
     12          6           0       -4.425641   -1.562725    0.399247
     13          6           0       -4.468721   -2.980092   -0.172602
     14          1           0       -4.013465   -0.578516   -1.473422
     15          1           0       -2.574279   -0.995988   -0.548444
     16          1           0       -5.446230   -1.169033    0.488804
     17          1           0       -4.008346   -1.586057    1.414105
     18          1           0       -3.458946   -3.396678   -0.246162
     19          1           0       -4.905000   -2.977284   -1.176720
     20          1           0       -5.066481   -3.648276    0.455151
     21          6           0        3.034369    0.253501    0.586273
     22          6           0        1.611704   -0.188083    0.241294
     23          6           0        0.550290    0.539453    1.067056
     24          1           0        3.216483    0.079111    1.655557
     25          1           0        3.123376    1.337015    0.426683
     26          1           0        1.525800   -1.270671    0.400164
     27          1           0        1.433021   -0.012801   -0.827335
     28          1           0        0.607116    1.620141    0.901265
     29          1           0        0.700420    0.355123    2.135739
     30          1           0       -0.459308    0.208533    0.804255
     31          6           0        4.106639   -0.464907   -0.230954
     32          6           0        5.529304   -0.023323    0.114025
     33          6           0        6.590718   -0.750860   -0.711737
     34          1           0        4.017631   -1.548422   -0.071364
     35          1           0        3.924525   -0.290517   -1.300239
     36          1           0        5.707985   -0.198606    1.182653
     37          1           0        5.615208    1.059265   -0.044846
     38          1           0        6.440587   -0.566530   -1.780421
     39          1           0        6.533892   -1.831547   -0.545946
     40          1           0        7.600316   -0.419939   -0.448937
 ---------------------------------------------------------------------

 SCF Done:  E(RHF) =  -470.732778787     A.U. after   11 cycles
 E2 =    -0.1583520010D+01 EUMP2 =    -0.47231629879705D+03

 The electronic state is 1-A.
 Alpha  occ. eigenvalues --  -11.21674 -11.21625 -11.21598 -11.21499 -11.21445
 Alpha  occ. eigenvalues --  -11.21397 -11.21383 -11.21325 -11.21121 -11.21089
 Alpha  occ. eigenvalues --  -11.21068 -11.21014  -1.08482  -1.08406  -1.03598
 Alpha  occ. eigenvalues --   -1.03479  -0.96031  -0.95955  -0.87067  -0.86954
 Alpha  occ. eigenvalues --   -0.79654  -0.79552  -0.78283  -0.78226  -0.65169
 Alpha  occ. eigenvalues --   -0.65050  -0.61115  -0.60827  -0.59376  -0.59285
 Alpha  occ. eigenvalues --   -0.57633  -0.57563  -0.55391  -0.55163  -0.52751
 Alpha  occ. eigenvalues --   -0.52624  -0.52446  -0.52377  -0.49970  -0.49881
 Alpha  occ. eigenvalues --   -0.47968  -0.47866  -0.46690  -0.46566  -0.45827
 Alpha  occ. eigenvalues --   -0.45755  -0.45745  -0.45677  -0.43800  -0.43751
 Alpha virt. eigenvalues --    0.20467   0.22994   0.23824   0.24736   0.26265
 Alpha virt. eigenvalues --    0.26515   0.26832   0.27441   0.27853   0.29226
 Alpha virt. eigenvalues --    0.31105   0.31193   0.31599   0.31887   0.32154

 Mulliken charges:
               1
     1  C   -0.300708
     2  C   -0.303711
     3  C   -0.476238
     4  H    0.150353
     5  H    0.150646
     6  H    0.151316
     7  H    0.157718
     8  H    0.156350
     9  H    0.154869
    10  H    0.159451
    11  C   -0.300658
    12  C   -0.299497
    13  C   -0.475732
    14  H    0.149937
    15  H    0.150221
    16  H    0.152087
    17  H    0.152009
    18  H    0.155171
    19  H    0.155193
    20  H    0.160257
    21  C   -0.298422
    22  C   -0.300914
    23  C   -0.483875
    24  H    0.149876
    25  H    0.149836
    26  H    0.151978
    27  H    0.152494
    28  H    0.156685
    29  H    0.155389
    30  H    0.167517
    31  C   -0.298322
    32  C   -0.299698
    33  C   -0.475736
    34  H    0.149570
    35  H    0.149783
    36  H    0.151980
    37  H    0.152018
    38  H    0.155246
    39  H    0.155215
    40  H    0.160345
 Sum of Mulliken charges =  -0.00000

 Dipole moment (field-independent basis, Debye):
    X=              0.0245    Y=             -0.0028    Z=              0.0079  Tot=              0.0259
 Quadrupole moment (field-independent basis, Debye-Ang):
   XX=            -84.8836   YY=            -85.5752   ZZ=            -84.3540
   XY=              0.0497   XZ=              0.8759   YZ=             -1.1754

 Normal termination of Gaussian 16 at Wed May  5 21:29:57 2021.
