 Gaussian 16, Revision A.03,
 Gaussian 16:  EM64L-G16RevA.03 25-Dec-2016

 -------------
 #p 6-31g* mp2
 -------------

 ------------------------------------------------------
 Input file generated by CHIRIPA (05-May-2021 14:57:25)
 ------------------------------------------------------
 Symbolic Z-matrix:
 Charge =  0 Multiplicity = 1

                         Standard orientation:
 ---------------------------------------------------------------------
 Center     Atomic      Atomic             Coordinates (Angstroms)
 Number     Number       Type             X           Y           Z
 ---------------------------------------------------------------------
      1          6           0       -3.907321    2.209640   -0.478324
      2          6           0       -3.344687    2.025395    0.788964
      3          6           0       -2.792318    0.792335    1.148129
      4          6           0       -2.819680   -0.239440    0.211121
      5          6           0       -3.372977   -0.086946   -1.059272
      6          6           0       -3.919648    1.154741   -1.396778
      7          1           0       -4.334201    3.170862   -0.748919
      8          1           0       -3.333718    2.842863    1.504275
      9          1           0       -2.350332    0.622279    2.122371
     10          1           0       -3.369215   -0.920597   -1.750958
     11          1           0       -4.355925    1.294954   -2.381688
     12          7           0       -2.237927   -1.549392    0.579889
     13          8           0       -2.274440   -2.442550   -0.263659
     14          8           0       -1.756453   -1.658170    1.705493
     15          6           0        4.193088    2.168475    0.214501
     16          6           0        4.869521    0.944213    0.202556
     17          6           0        4.171876   -0.250496    0.001285
     18          6           0        2.792052   -0.183820   -0.185615
     19          6           0        2.089709    1.020323   -0.179038
     20          6           0        2.807784    2.202563    0.024002
     21          1           0        4.742972    3.091711    0.371540
     22          1           0        5.945331    0.914714    0.350232
     23          1           0        4.670490   -1.212062   -0.012660
     24          1           0        1.016909    1.017847   -0.329073
     25          1           0        2.279832    3.151896    0.032787
     26          7           0        2.042673   -1.442005   -0.399629
     27          8           0        0.827368   -1.356347   -0.561904
     28          8           0        2.684804   -2.490005   -0.401044
 ---------------------------------------------------------------------

 SCF Done:  E(RHF) =  -868.336151776     A.U. after   16 cycles
 E2 =    -0.2601634953D+01 EUMP2 =    -0.87093778672885D+03

 The electronic state is 1-A.
 Alpha  occ. eigenvalues --  -20.60232 -20.60227 -20.59679 -20.59593 -15.85305
 Alpha  occ. eigenvalues --  -15.84720 -11.30898 -11.30639 -11.27523 -11.27480
 Alpha  occ. eigenvalues --  -11.27298 -11.27298 -11.27212 -11.27116 -11.26600
 Alpha  occ. eigenvalues --  -11.26554 -11.26442 -11.26375  -1.59285  -1.58665
 Alpha  occ. eigenvalues --   -1.38845  -1.38228  -1.19096  -1.18856  -1.08445
 Alpha  occ. eigenvalues --   -1.08143  -1.04542  -1.04342  -0.95244  -0.94890
 Alpha  occ. eigenvalues --   -0.85929  -0.85708  -0.82094  -0.81738  -0.77106
 Alpha  occ. eigenvalues --   -0.76676  -0.71664  -0.70966  -0.70637  -0.70232
 Alpha  occ. eigenvalues --   -0.69956  -0.69760  -0.64748  -0.64556  -0.64496
 Alpha  occ. eigenvalues --   -0.64348  -0.61893  -0.61677  -0.55039  -0.54828
 Alpha  occ. eigenvalues --   -0.52851  -0.52703  -0.52590  -0.52436  -0.48276
 Alpha  occ. eigenvalues --   -0.48257  -0.47720  -0.47662  -0.44225  -0.43478
 Alpha  occ. eigenvalues --   -0.37089  -0.36861  -0.36157  -0.35983
 Alpha virt. eigenvalues --    0.05463   0.05905   0.11487   0.11669   0.16899
 Alpha virt. eigenvalues --    0.17289   0.21543   0.21757   0.27399   0.27634
 Alpha virt. eigenvalues --    0.28387   0.28712   0.30913   0.31328   0.32565

 Mulliken charges:
               1
     1  C   -0.173845
     2  C   -0.220827
     3  C   -0.176290
     4  C    0.163141
     5  C   -0.169720
     6  C   -0.219471
     7  H    0.222224
     8  H    0.219446
     9  H    0.274098
    10  H    0.278327
    11  H    0.221832
    12  N    0.496443
    13  O   -0.450650
    14  O   -0.464408
    15  C   -0.171512
    16  C   -0.218446
    17  C   -0.170608
    18  C    0.160353
    19  C   -0.170844
    20  C   -0.218747
    21  H    0.223818
    22  H    0.222753
    23  H    0.276401
    24  H    0.272487
    25  H    0.219903
    26  N    0.492173
    27  O   -0.460639
    28  O   -0.457391
 Sum of Mulliken charges =  -0.00000

 Dipole moment (field-independent basis, Debye):
    X=              0.6940    Y=              8.6039    Z=             -0.6277  Tot=              8.6547
 Quadrupole moment (field-independent basis, Debye-Ang):
   XX=            -76.2185   YY=           -107.8305   ZZ=           -102.7528
   XY=             -2.2910   XZ=              6.7986   YZ=              2.0912

 Normal termination of Gaussian 16 at Thu May  6 01:59:26 2021.
