 Gaussian 16, Revision A.03,
 Gaussian 16:  EM64L-G16RevA.03 25-Dec-2016

 -------------
 #p 6-31g* mp2
 -------------

 ------------------------------------------------------
 Input file generated by CHIRIPA (05-May-2021 14:51:09)
 ------------------------------------------------------
 Symbolic Z-matrix:
 Charge =  0 Multiplicity = 1

                         Standard orientation:
 ---------------------------------------------------------------------
 Center     Atomic      Atomic             Coordinates (Angstroms)
 Number     Number       Type             X           Y           Z
 ---------------------------------------------------------------------
      1          6           0        2.599747   -1.427871   -0.285135
      2          6           0        1.095298   -1.408152   -0.557590
      3          6           0        0.571033   -2.747156   -1.077212
      4          1           0        3.129748   -1.697181   -1.208994
      5          1           0        2.822781   -2.218245    0.444906
      6          1           0        0.874992   -0.617135   -1.285858
      7          1           0        0.568828   -1.138670    0.366977
      8          1           0        0.761962   -3.543699   -0.350805
      9          1           0        1.069866   -3.019201   -2.013031
     10          1           0       -0.506534   -2.710685   -1.265307
     11          6           0        3.138750   -0.096395    0.234841
     12          6           0        4.643198   -0.116115    0.507296
     13          6           0        5.167463    1.222890    1.026918
     14          1           0        2.915715    0.693979   -0.495200
     15          1           0        2.608748    0.172915    1.158700
     16          1           0        5.169668   -0.385597   -0.417271
     17          1           0        4.863504   -0.907131    1.235564
     18          1           0        4.668630    1.494934    1.962737
     19          1           0        4.976534    2.019432    0.300511
     20          1           0        6.245030    1.186418    1.215013
     21          6           0       -3.295742    0.140605   -0.098291
     22          6           0       -4.163074   -0.247350    1.099713
     23          6           0       -5.010537   -1.492657    0.837397
     24          1           0       -3.941621    0.311890   -0.970326
     25          1           0       -2.640050   -0.702696   -0.355796
     26          1           0       -4.815958    0.596927    1.355748
     27          1           0       -3.515071   -0.417546    1.969046
     28          1           0       -4.372182   -2.350812    0.603572
     29          1           0       -5.680461   -1.330575   -0.013210
     30          1           0       -5.622713   -1.752099    1.706759
     31          6           0       -2.442754    1.383662    0.148584
     32          6           0       -1.575422    1.771616   -1.049418
     33          6           0       -0.727960    3.016924   -0.787103
     34          1           0       -3.098446    2.226962    0.406089
     35          1           0       -1.796874    1.212375    1.020620
     36          1           0       -2.223425    1.941813   -1.918752
     37          1           0       -0.922538    0.927339   -1.305454
     38          1           0       -0.058035    2.854841    0.063505
     39          1           0       -1.366315    3.875078   -0.553279
     40          1           0       -0.115782    3.276364   -1.656464
 ---------------------------------------------------------------------

 SCF Done:  E(RHF) =  -470.733255173     A.U. after   11 cycles
 E2 =    -0.1583579123D+01 EUMP2 =    -0.47231683429645D+03

 The electronic state is 1-A.
 Alpha  occ. eigenvalues --  -11.21690 -11.21637 -11.21588 -11.21495 -11.21464
 Alpha  occ. eigenvalues --  -11.21403 -11.21373 -11.21310 -11.21160 -11.21092
 Alpha  occ. eigenvalues --  -11.21062 -11.21021  -1.08499  -1.08385  -1.03600
 Alpha  occ. eigenvalues --   -1.03484  -0.96037  -0.95944  -0.87056  -0.86956
 Alpha  occ. eigenvalues --   -0.79715  -0.79513  -0.78348  -0.78167  -0.65134
 Alpha  occ. eigenvalues --   -0.65023  -0.61050  -0.60845  -0.59414  -0.59302
 Alpha  occ. eigenvalues --   -0.57652  -0.57556  -0.55326  -0.55225  -0.52736
 Alpha  occ. eigenvalues --   -0.52637  -0.52471  -0.52364  -0.49998  -0.49880
 Alpha  occ. eigenvalues --   -0.48127  -0.47788  -0.46854  -0.46450  -0.45980
 Alpha  occ. eigenvalues --   -0.45802  -0.45704  -0.45388  -0.43842  -0.43746
 Alpha virt. eigenvalues --    0.20136   0.22874   0.23801   0.24110   0.25778
 Alpha virt. eigenvalues --    0.26027   0.26750   0.27913   0.28726   0.29294
 Alpha virt. eigenvalues --    0.30198   0.31386   0.31755   0.31831   0.32126

 Mulliken charges:
               1
     1  C   -0.297643
     2  C   -0.305598
     3  C   -0.477677
     4  H    0.149943
     5  H    0.149725
     6  H    0.157125
     7  H    0.152081
     8  H    0.155664
     9  H    0.155799
    10  H    0.161388
    11  C   -0.298834
    12  C   -0.299683
    13  C   -0.475784
    14  H    0.150328
    15  H    0.149190
    16  H    0.152081
    17  H    0.151993
    18  H    0.155163
    19  H    0.155514
    20  H    0.160380
    21  C   -0.301252
    22  C   -0.299473
    23  C   -0.475715
    24  H    0.149588
    25  H    0.151839
    26  H    0.151995
    27  H    0.151654
    28  H    0.155073
    29  H    0.155176
    30  H    0.160208
    31  C   -0.297407
    32  C   -0.307386
    33  C   -0.475824
    34  H    0.149271
    35  H    0.149378
    36  H    0.151092
    37  H    0.160538
    38  H    0.155935
    39  H    0.154963
    40  H    0.159194
 Sum of Mulliken charges =  -0.00000

 Dipole moment (field-independent basis, Debye):
    X=              0.0436    Y=             -0.0238    Z=             -0.0087  Tot=              0.0504
 Quadrupole moment (field-independent basis, Debye-Ang):
   XX=            -84.9143   YY=            -86.0032   ZZ=            -83.8697
   XY=             -1.4558   XZ=             -0.1590   YZ=             -0.8410

 Normal termination of Gaussian 16 at Wed May  5 16:38:08 2021.
