 Gaussian 16, Revision A.03,
 Gaussian 16:  EM64L-G16RevA.03 25-Dec-2016

 -------------
 #p 6-31g* mp2
 -------------

 ------------------------------------------------------
 Input file generated by CHIRIPA (05-May-2021 14:51:11)
 ------------------------------------------------------
 Symbolic Z-matrix:
 Charge =  0 Multiplicity = 1

                         Standard orientation:
 ---------------------------------------------------------------------
 Center     Atomic      Atomic             Coordinates (Angstroms)
 Number     Number       Type             X           Y           Z
 ---------------------------------------------------------------------
      1          6           0        3.270999   -0.102831   -0.243970
      2          6           0        4.760067   -0.372233   -0.463250
      3          6           0        5.451385    0.738155   -1.255027
      4          1           0        2.778766    0.015210   -1.219017
      5          1           0        3.152381    0.853572    0.283875
      6          1           0        4.875899   -1.328513   -0.989298
      7          1           0        5.248777   -0.489837    0.512428
      8          1           0        5.365394    1.695667   -0.731216
      9          1           0        4.990397    0.852225   -2.241475
     10          1           0        6.515073    0.525199   -1.400210
     11          6           0        2.566034   -1.204016    0.546057
     12          6           0        1.076966   -0.934614    0.765338
     13          6           0        0.385648   -2.045002    1.557115
     14          1           0        2.684652   -2.160418    0.018213
     15          1           0        3.058267   -1.322057    1.521105
     16          1           0        0.588256   -0.817010   -0.210341
     17          1           0        0.961134    0.021667    1.291386
     18          1           0        0.846636   -2.159071    2.543563
     19          1           0        0.471639   -3.002513    1.033304
     20          1           0       -0.678039   -1.832045    1.702297
     21          6           0       -2.687447    1.175670    0.356201
     22          6           0       -1.436212    1.936389   -0.083917
     23          6           0       -0.986255    2.977660    0.941308
     24          1           0       -3.500855    1.892330    0.534275
     25          1           0       -2.489037    0.682728    1.317989
     26          1           0       -1.636472    2.426613   -1.045265
     27          1           0       -0.625744    1.217818   -0.261147
     28          1           0       -0.759368    2.500965    1.900415
     29          1           0       -1.775840    3.716628    1.111842
     30          1           0       -0.090284    3.509640    0.606503
     31          6           0       -3.149586    0.131177   -0.658289
     32          6           0       -4.400820   -0.629542   -0.218171
     33          6           0       -4.850779   -1.670814   -1.243396
     34          1           0       -3.347997    0.624119   -1.620078
     35          1           0       -2.336178   -0.585483   -0.836363
     36          1           0       -5.211290    0.089029   -0.040940
     37          1           0       -4.200561   -1.119767    0.743178
     38          1           0       -4.061193   -2.409781   -1.413929
     39          1           0       -5.077665   -1.194119   -2.202503
     40          1           0       -5.746749   -2.202794   -0.908590
 ---------------------------------------------------------------------

 SCF Done:  E(RHF) =  -470.732612013     A.U. after   11 cycles
 E2 =    -0.1584228366D+01 EUMP2 =    -0.47231684037888D+03

 The electronic state is 1-A.
 Alpha  occ. eigenvalues --  -11.21696 -11.21640 -11.21587 -11.21468 -11.21416
 Alpha  occ. eigenvalues --  -11.21406 -11.21364 -11.21297 -11.21185 -11.21097
 Alpha  occ. eigenvalues --  -11.21059 -11.21020  -1.08517  -1.08367  -1.03625
 Alpha  occ. eigenvalues --   -1.03458  -0.96049  -0.95938  -0.87069  -0.86951
 Alpha  occ. eigenvalues --   -0.79773  -0.79479  -0.78393  -0.78114  -0.65135
 Alpha  occ. eigenvalues --   -0.65036  -0.61031  -0.60894  -0.59413  -0.59276
 Alpha  occ. eigenvalues --   -0.57649  -0.57545  -0.55348  -0.55224  -0.52747
 Alpha  occ. eigenvalues --   -0.52628  -0.52489  -0.52348  -0.50000  -0.49882
 Alpha  occ. eigenvalues --   -0.48231  -0.47746  -0.46757  -0.46580  -0.46061
 Alpha  occ. eigenvalues --   -0.45776  -0.45701  -0.45219  -0.43843  -0.43730
 Alpha virt. eigenvalues --    0.19783   0.22957   0.23568   0.24555   0.25363
 Alpha virt. eigenvalues --    0.26266   0.26641   0.27776   0.28627   0.29344
 Alpha virt. eigenvalues --    0.30752   0.31248   0.31682   0.32011   0.32284

 Mulliken charges:
               1
     1  C   -0.299030
     2  C   -0.299598
     3  C   -0.475772
     4  H    0.149751
     5  H    0.149935
     6  H    0.152018
     7  H    0.152079
     8  H    0.155309
     9  H    0.155311
    10  H    0.160392
    11  C   -0.297374
    12  C   -0.306741
    13  C   -0.477280
    14  H    0.149640
    15  H    0.149897
    16  H    0.155066
    17  H    0.156005
    18  H    0.155820
    19  H    0.155573
    20  H    0.161090
    21  C   -0.298531
    22  C   -0.307972
    23  C   -0.476186
    24  H    0.149392
    25  H    0.149442
    26  H    0.150683
    27  H    0.163184
    28  H    0.154313
    29  H    0.154939
    30  H    0.159793
    31  C   -0.300650
    32  C   -0.299577
    33  C   -0.475691
    34  H    0.149515
    35  H    0.151119
    36  H    0.152083
    37  H    0.151563
    38  H    0.155143
    39  H    0.155105
    40  H    0.160240
 Sum of Mulliken charges =  -0.00000

 Dipole moment (field-independent basis, Debye):
    X=              0.0620    Y=             -0.0335    Z=             -0.0020  Tot=              0.0705
 Quadrupole moment (field-independent basis, Debye-Ang):
   XX=            -85.0378   YY=            -85.3022   ZZ=            -84.5415
   XY=             -1.0860   XZ=              0.5517   YZ=             -0.0180

 Normal termination of Gaussian 16 at Thu May  6 07:00:35 2021.
