 Gaussian 16, Revision A.03,
 Gaussian 16:  EM64L-G16RevA.03 25-Dec-2016

 -------------
 #p 6-31g* mp2
 -------------

 ------------------------------------------------------
 Input file generated by CHIRIPA (05-May-2021 14:53:18)
 ------------------------------------------------------
 Symbolic Z-matrix:
 Charge =  0 Multiplicity = 1

                         Standard orientation:
 ---------------------------------------------------------------------
 Center     Atomic      Atomic             Coordinates (Angstroms)
 Number     Number       Type             X           Y           Z
 ---------------------------------------------------------------------
      1          6           0        5.984032    0.171986   -0.189570
      2          6           0        7.266269   -0.516225    0.279702
      3          6           0        8.529905    0.173433   -0.235459
      4          1           0        5.968875    0.195443   -1.287826
      5          1           0        5.994190    1.218479    0.145311
      6          1           0        7.253059   -1.561484   -0.054778
      7          1           0        7.278284   -0.538218    1.376966
      8          1           0        8.570164    1.211608    0.109753
      9          1           0        8.544795    0.182529   -1.330126
     10          1           0        9.434750   -0.334935    0.111929
     11          6           0        4.712287   -0.505864    0.317295
     12          6           0        3.430050    0.182348   -0.151978
     13          6           0        2.166414   -0.507310    0.363183
     14          1           0        4.702129   -1.552357   -0.017586
     15          1           0        4.727444   -0.529321    1.415550
     16          1           0        3.418034    0.204340   -1.249242
     17          1           0        3.443260    1.227606    0.182502
     18          1           0        2.151523   -0.516406    1.457851
     19          1           0        2.126154   -1.545486    0.017972
     20          1           0        1.261569    0.001057    0.015796
     21          6           0       -2.149352    1.625461   -0.169691
     22          6           0       -2.020001    0.250695   -0.392868
     23          6           0       -3.137324   -0.587197   -0.329031
     24          6           0       -4.374396   -0.014114   -0.038311
     25          6           0       -4.535534    1.351795    0.188880
     26          6           0       -3.404492    2.170663    0.119960
     27          1           0       -1.276060    2.268967   -0.221255
     28          1           0       -1.046486   -0.175478   -0.618013
     29          1           0       -3.065653   -1.654850   -0.497544
     30          1           0       -5.519095    1.747502    0.411236
     31          1           0       -3.507932    3.237972    0.293731
     32          7           0       -5.564517   -0.891082    0.031961
     33          8           0       -6.643308   -0.361606    0.289841
     34          8           0       -5.396008   -2.091321   -0.172170
 ---------------------------------------------------------------------

 SCF Done:  E(RHF) =  -669.535465849     A.U. after   15 cycles
 E2 =    -0.2090700139D+01 EUMP2 =    -0.67162616598799D+03

 The electronic state is 1-A.
 Alpha  occ. eigenvalues --  -20.60726 -20.60721 -15.85779 -11.31140 -11.27710
 Alpha  occ. eigenvalues --  -11.27698 -11.27452 -11.26729 -11.26689 -11.22454
 Alpha  occ. eigenvalues --  -11.22163 -11.22040 -11.22027 -11.21898 -11.21437
 Alpha  occ. eigenvalues --   -1.59802  -1.39355  -1.19312  -1.09058  -1.08710
 Alpha  occ. eigenvalues --   -1.04714  -1.04194  -0.96657  -0.95545  -0.87682
 Alpha  occ. eigenvalues --   -0.86114  -0.82376  -0.80263  -0.78833  -0.77425
 Alpha  occ. eigenvalues --   -0.71998  -0.71125  -0.70425  -0.65680  -0.64965
 Alpha  occ. eigenvalues --   -0.64754  -0.62101  -0.61579  -0.60048  -0.58251
 Alpha  occ. eigenvalues --   -0.55923  -0.55222  -0.53484  -0.53102  -0.53038
 Alpha  occ. eigenvalues --   -0.52676  -0.50578  -0.48761  -0.48753  -0.48570
 Alpha  occ. eigenvalues --   -0.47276  -0.46384  -0.46284  -0.44762  -0.44443
 Alpha  occ. eigenvalues --   -0.37294  -0.36313
 Alpha virt. eigenvalues --    0.05111   0.11309   0.16604   0.19911   0.22437
 Alpha virt. eigenvalues --    0.23810   0.25840   0.26071   0.26893   0.28010
 Alpha virt. eigenvalues --    0.28350   0.30445   0.30787   0.31440   0.31721

 Mulliken charges:
               1
     1  C   -0.298709
     2  C   -0.300148
     3  C   -0.476024
     4  H    0.150240
     5  H    0.149730
     6  H    0.152863
     7  H    0.152705
     8  H    0.155403
     9  H    0.155615
    10  H    0.161681
    11  C   -0.299302
    12  C   -0.299473
    13  C   -0.479255
    14  H    0.151245
    15  H    0.151262
    16  H    0.152731
    17  H    0.151801
    18  H    0.160691
    19  H    0.158465
    20  H    0.149301
    21  C   -0.172371
    22  C   -0.223429
    23  C   -0.171825
    24  C    0.158858
    25  C   -0.171298
    26  C   -0.218580
    27  H    0.225045
    28  H    0.231248
    29  H    0.275971
    30  H    0.275435
    31  H    0.223200
    32  N    0.487959
    33  O   -0.460597
    34  O   -0.460437
 Sum of Mulliken charges =  -0.00000

 Dipole moment (field-independent basis, Debye):
    X=              4.4202    Y=              3.0599    Z=             -0.2148  Tot=              5.3803
 Quadrupole moment (field-independent basis, Debye-Ang):
   XX=           -130.4262   YY=            -91.6939   ZZ=            -94.7454
   XY=            -16.7591   XZ=              0.5993   YZ=              1.4804

 Normal termination of Gaussian 16 at Thu May  6 17:19:14 2021.
