 Gaussian 16, Revision A.03,
 Gaussian 16:  EM64L-G16RevA.03 25-Dec-2016

 -------------
 #p 6-31g* mp2
 -------------

 ------------------------------------------------------
 Input file generated by CHIRIPA (05-May-2021 14:51:11)
 ------------------------------------------------------
 Symbolic Z-matrix:
 Charge =  0 Multiplicity = 1

                         Standard orientation:
 ---------------------------------------------------------------------
 Center     Atomic      Atomic             Coordinates (Angstroms)
 Number     Number       Type             X           Y           Z
 ---------------------------------------------------------------------
      1          6           0        3.461862    0.637790   -0.418147
      2          6           0        2.889863    1.889532    0.248144
      3          6           0        3.837427    3.086872    0.168814
      4          1           0        4.418805    0.381999    0.057012
      5          1           0        3.685223    0.860695   -1.470676
      6          1           0        2.666356    1.663931    1.298747
      7          1           0        1.934076    2.142261   -0.228528
      8          1           0        4.051779    3.340049   -0.874524
      9          1           0        4.788220    2.859001    0.661428
     10          1           0        3.408687    3.970799    0.651220
     11          6           0        2.526152   -0.567664   -0.347042
     12          6           0        3.098151   -1.819407   -1.013333
     13          6           0        2.150587   -3.016747   -0.934003
     14          1           0        2.302790   -0.790570    0.705488
     15          1           0        1.569208   -0.311874   -0.822200
     16          1           0        4.053937   -2.072136   -0.536661
     17          1           0        3.321657   -1.593806   -2.063935
     18          1           0        1.199793   -2.788876   -1.426616
     19          1           0        1.936234   -3.269924    0.109336
     20          1           0        2.579326   -3.900674   -1.416409
     21          6           0       -3.687184    0.263751    0.265770
     22          6           0       -4.031410    0.436705   -1.213953
     23          6           0       -5.421314    1.035573   -1.431480
     24          1           0       -4.442782   -0.378294    0.738840
     25          1           0       -3.749161    1.240122    0.766023
     26          1           0       -3.967454   -0.539471   -1.711551
     27          1           0       -3.274798    1.078258   -1.683597
     28          1           0       -5.493994    2.021392   -0.960863
     29          1           0       -6.190584    0.394471   -0.988975
     30          1           0       -5.646781    1.150510   -2.496288
     31          6           0       -2.300830   -0.333876    0.499418
     32          6           0       -1.956604   -0.506831    1.979141
     33          6           0       -0.566699   -1.105699    2.196669
     34          1           0       -2.238853   -1.310248   -0.000835
     35          1           0       -1.545231    0.308170    0.026349
     36          1           0       -2.713215   -1.148382    2.448786
     37          1           0       -2.020560    0.469347    2.476740
     38          1           0        0.202571   -0.464596    1.754164
     39          1           0       -0.494020   -2.091516    1.726051
     40          1           0       -0.341233   -1.220635    3.261476
 ---------------------------------------------------------------------

 SCF Done:  E(RHF) =  -470.733036711     A.U. after   11 cycles
 E2 =    -0.1583427066D+01 EUMP2 =    -0.47231646377667D+03

 The electronic state is 1-A.
 Alpha  occ. eigenvalues --  -11.21647 -11.21602 -11.21580 -11.21553 -11.21391
 Alpha  occ. eigenvalues --  -11.21387 -11.21326 -11.21312 -11.21101 -11.21070
 Alpha  occ. eigenvalues --  -11.21040 -11.20947  -1.08443  -1.08395  -1.03538
 Alpha  occ. eigenvalues --   -1.03490  -0.95990  -0.95936  -0.87012  -0.86952
 Alpha  occ. eigenvalues --   -0.79652  -0.79533  -0.78343  -0.78116  -0.65070
 Alpha  occ. eigenvalues --   -0.65031  -0.60929  -0.60900  -0.59369  -0.59296
 Alpha  occ. eigenvalues --   -0.57645  -0.57518  -0.55348  -0.55155  -0.52689
 Alpha  occ. eigenvalues --   -0.52642  -0.52485  -0.52307  -0.50001  -0.49806
 Alpha  occ. eigenvalues --   -0.48082  -0.47781  -0.46654  -0.46627  -0.46009
 Alpha  occ. eigenvalues --   -0.45713  -0.45672  -0.45320  -0.43782  -0.43758
 Alpha virt. eigenvalues --    0.21377   0.23164   0.23656   0.24187   0.25238
 Alpha virt. eigenvalues --    0.25600   0.26731   0.27822   0.28433   0.29664
 Alpha virt. eigenvalues --    0.30669   0.31472   0.31714   0.31798   0.32357

 Mulliken charges:
               1
     1  C   -0.297787
     2  C   -0.300795
     3  C   -0.475558
     4  H    0.149646
     5  H    0.149419
     6  H    0.152204
     7  H    0.151162
     8  H    0.155391
     9  H    0.155446
    10  H    0.160227
    11  C   -0.304139
    12  C   -0.299220
    13  C   -0.476739
    14  H    0.155995
    15  H    0.150540
    16  H    0.151756
    17  H    0.151654
    18  H    0.155347
    19  H    0.156586
    20  H    0.159882
    21  C   -0.298270
    22  C   -0.299595
    23  C   -0.475679
    24  H    0.149748
    25  H    0.149513
    26  H    0.151866
    27  H    0.151547
    28  H    0.155192
    29  H    0.155249
    30  H    0.160168
    31  C   -0.298975
    32  C   -0.299439
    33  C   -0.482688
    34  H    0.149522
    35  H    0.149975
    36  H    0.151539
    37  H    0.151625
    38  H    0.162974
    39  H    0.155966
    40  H    0.158748
 Sum of Mulliken charges =  -0.00000

 Dipole moment (field-independent basis, Debye):
    X=              0.0307    Y=             -0.0034    Z=             -0.0006  Tot=              0.0309
 Quadrupole moment (field-independent basis, Debye-Ang):
   XX=            -85.7268   YY=            -84.9307   ZZ=            -84.1880
   XY=              0.1262   XZ=              0.1284   YZ=             -0.1114

 Normal termination of Gaussian 16 at Thu May  6 05:26:55 2021.
