 Gaussian 16, Revision A.03,
 Gaussian 16:  EM64L-G16RevA.03 25-Dec-2016

 -------------
 #p 6-31g* mp2
 -------------

 ------------------------------------------------------
 Input file generated by CHIRIPA (05-May-2021 14:53:18)
 ------------------------------------------------------
 Symbolic Z-matrix:
 Charge =  0 Multiplicity = 1

                         Standard orientation:
 ---------------------------------------------------------------------
 Center     Atomic      Atomic             Coordinates (Angstroms)
 Number     Number       Type             X           Y           Z
 ---------------------------------------------------------------------
      1          6           0        4.014324    1.086048   -0.175866
      2          6           0        2.690225    1.578836    0.408862
      3          6           0        2.485031    3.082521    0.222800
      4          1           0        4.842318    1.631818    0.296897
      5          1           0        4.048599    1.332055   -1.246240
      6          1           0        2.657868    1.330741    1.477515
      7          1           0        1.865297    1.031694   -0.065211
      8          1           0        2.490888    3.343476   -0.840435
      9          1           0        3.287962    3.644223    0.711056
     10          1           0        1.532385    3.413366    0.648087
     11          6           0        4.233885   -0.415205    0.002343
     12          6           0        5.557984   -0.907993   -0.582385
     13          6           0        5.763179   -2.411678   -0.396323
     14          1           0        4.199610   -0.661212    1.072717
     15          1           0        3.405891   -0.960975   -0.470421
     16          1           0        6.382913   -0.360851   -0.108312
     17          1           0        5.590342   -0.659898   -1.651038
     18          1           0        4.960247   -2.973380   -0.884579
     19          1           0        5.757322   -2.672633    0.666912
     20          1           0        6.715824   -2.742523   -0.821610
     21          6           0       -0.959323   -0.498421    1.158902
     22          6           0       -2.122885   -0.675766    1.914676
     23          6           0       -3.381886   -0.547202    1.320591
     24          6           0       -3.440700   -0.239196   -0.037703
     25          6           0       -2.299628   -0.056541   -0.817371
     26          6           0       -1.051247   -0.189918   -0.202309
     27          1           0        0.014574   -0.600162    1.628549
     28          1           0       -2.054528   -0.915412    2.972003
     29          1           0       -4.298748   -0.679235    1.882151
     30          1           0       -2.399709    0.181731   -1.869336
     31          1           0       -0.149294   -0.051639   -0.791720
     32          7           0       -4.767927   -0.100544   -0.677737
     33          8           0       -4.792777    0.171334   -1.876112
     34          8           0       -5.758225   -0.266370    0.031097
 ---------------------------------------------------------------------

 SCF Done:  E(RHF) =  -669.535440249     A.U. after   15 cycles
 E2 =    -0.2091508795D+01 EUMP2 =    -0.67162694904397D+03

 The electronic state is 1-A.
 Alpha  occ. eigenvalues --  -20.60734 -20.60729 -15.85788 -11.31145 -11.27720
 Alpha  occ. eigenvalues --  -11.27716 -11.27433 -11.26722 -11.26707 -11.22738
 Alpha  occ. eigenvalues --  -11.22338 -11.22294 -11.22251 -11.21897 -11.21686
 Alpha  occ. eigenvalues --   -1.59810  -1.39364  -1.19318  -1.09332  -1.08709
 Alpha  occ. eigenvalues --   -1.04726  -1.04370  -0.96782  -0.95545  -0.87799
 Alpha  occ. eigenvalues --   -0.86126  -0.82380  -0.80469  -0.79159  -0.77433
 Alpha  occ. eigenvalues --   -0.72006  -0.71134  -0.70411  -0.65995  -0.64969
 Alpha  occ. eigenvalues --   -0.64736  -0.62141  -0.61706  -0.60154  -0.58403
 Alpha  occ. eigenvalues --   -0.56060  -0.55204  -0.53470  -0.53201  -0.53049
 Alpha  occ. eigenvalues --   -0.52831  -0.50723  -0.48805  -0.48762  -0.48720
 Alpha  occ. eigenvalues --   -0.47498  -0.46680  -0.46602  -0.44771  -0.44627
 Alpha  occ. eigenvalues --   -0.37286  -0.36327
 Alpha virt. eigenvalues --    0.05105   0.11262   0.16596   0.19374   0.22567
 Alpha virt. eigenvalues --    0.23730   0.24722   0.25650   0.27252   0.27860
 Alpha virt. eigenvalues --    0.29488   0.29797   0.31118   0.31521   0.31587

 Mulliken charges:
               1
     1  C   -0.298230
     2  C   -0.304940
     3  C   -0.476115
     4  H    0.153657
     5  H    0.151877
     6  H    0.150562
     7  H    0.144311
     8  H    0.157442
     9  H    0.158769
    10  H    0.163311
    11  C   -0.298538
    12  C   -0.300127
    13  C   -0.476289
    14  H    0.148637
    15  H    0.144532
    16  H    0.154127
    17  H    0.153721
    18  H    0.155314
    19  H    0.155316
    20  H    0.163005
    21  C   -0.171835
    22  C   -0.218958
    23  C   -0.170964
    24  C    0.158509
    25  C   -0.171307
    26  C   -0.221667
    27  H    0.228206
    28  H    0.223259
    29  H    0.275447
    30  H    0.275507
    31  H    0.226552
    32  N    0.488024
    33  O   -0.460571
    34  O   -0.460541
 Sum of Mulliken charges =  -0.00000

 Dipole moment (field-independent basis, Debye):
    X=              4.8930    Y=             -0.4141    Z=              2.2584  Tot=              5.4049
 Quadrupole moment (field-independent basis, Debye-Ang):
   XX=           -125.5048   YY=            -95.8990   ZZ=            -90.4212
   XY=              1.6448   XZ=             -9.9097   YZ=             -1.3211

 Normal termination of Gaussian 16 at Wed May  5 17:18:05 2021.
