 Gaussian 16, Revision A.03,
 Gaussian 16:  EM64L-G16RevA.03 25-Dec-2016

 -------------
 #p 6-31g* mp2
 -------------

 ------------------------------------------------------
 Input file generated by CHIRIPA (05-May-2021 14:51:11)
 ------------------------------------------------------
 Symbolic Z-matrix:
 Charge =  0 Multiplicity = 1

                         Standard orientation:
 ---------------------------------------------------------------------
 Center     Atomic      Atomic             Coordinates (Angstroms)
 Number     Number       Type             X           Y           Z
 ---------------------------------------------------------------------
      1          6           0       -3.299396    0.534067   -0.366345
      2          6           0       -4.280207   -0.239453    0.515505
      3          6           0       -5.447478   -0.830170   -0.275903
      4          1           0       -3.838225    1.339494   -0.883933
      5          1           0       -2.912704   -0.135372   -1.147188
      6          1           0       -4.663882    0.430874    1.295294
      7          1           0       -3.738943   -1.043012    1.031201
      8          1           0       -5.082470   -1.520396   -1.043339
      9          1           0       -6.012665   -0.038135   -0.777745
     10          1           0       -6.136281   -1.378874    0.373969
     11          6           0       -2.127017    1.130611    0.410436
     12          6           0       -1.146206    1.904131   -0.471415
     13          6           0        0.021065    2.494848    0.319994
     14          1           0       -2.513709    1.800050    1.191279
     15          1           0       -1.588188    0.325184    0.928024
     16          1           0       -1.687470    2.707690   -0.987110
     17          1           0       -0.762530    1.233804   -1.251203
     18          1           0        0.586252    1.702813    0.821836
     19          1           0       -0.343943    3.185074    1.087430
     20          1           0        0.709868    3.043552   -0.329878
     21          6           0        2.216969   -1.289667    0.335769
     22          6           0        1.002507   -1.653446   -0.519059
     23          6           0        0.018873   -2.568836    0.210546
     24          1           0        2.730274   -2.211068    0.643150
     25          1           0        1.874188   -0.800303    1.257952
     26          1           0        1.347551   -2.140735   -1.439987
     27          1           0        0.492143   -0.731064   -0.824598
     28          1           0       -0.353453   -2.087025    1.120399
     29          1           0        0.506816   -3.504705    0.501513
     30          1           0       -0.841684   -2.816300   -0.418789
     31          6           0        3.209444   -0.375012   -0.379860
     32          6           0        4.423907   -0.011231    0.474968
     33          6           0        5.407539    0.904158   -0.254637
     34          1           0        3.552226   -0.864375   -1.302043
     35          1           0        2.696139    0.546389   -0.687241
     36          1           0        4.934271   -0.933613    0.780508
     37          1           0        4.078862    0.476057    1.395896
     38          1           0        4.919597    1.840027   -0.545604
     39          1           0        5.779866    0.422347   -1.164490
     40          1           0        6.268097    1.151622    0.374698
 ---------------------------------------------------------------------

 SCF Done:  E(RHF) =  -470.732825842     A.U. after   11 cycles
 E2 =    -0.1585078242D+01 EUMP2 =    -0.47231790408430D+03

 The electronic state is 1-A.
 Alpha  occ. eigenvalues --  -11.21657 -11.21632 -11.21596 -11.21594 -11.21433
 Alpha  occ. eigenvalues --  -11.21426 -11.21365 -11.21351 -11.21162 -11.21159
 Alpha  occ. eigenvalues --  -11.21068 -11.21060  -1.08516  -1.08405  -1.03608
 Alpha  occ. eigenvalues --   -1.03523  -0.96061  -0.95970  -0.87040  -0.87024
 Alpha  occ. eigenvalues --   -0.79703  -0.79558  -0.78317  -0.78224  -0.65530
 Alpha  occ. eigenvalues --   -0.64752  -0.61212  -0.60671  -0.59397  -0.59363
 Alpha  occ. eigenvalues --   -0.57651  -0.57600  -0.55578  -0.55046  -0.52719
 Alpha  occ. eigenvalues --   -0.52703  -0.52451  -0.52428  -0.49983  -0.49941
 Alpha  occ. eigenvalues --   -0.48070  -0.47836  -0.46951  -0.46428  -0.45955
 Alpha  occ. eigenvalues --   -0.45846  -0.45640  -0.45485  -0.43819  -0.43806
 Alpha virt. eigenvalues --    0.18743   0.22016   0.23955   0.24333   0.25829
 Alpha virt. eigenvalues --    0.26100   0.26562   0.28056   0.29264   0.29947
 Alpha virt. eigenvalues --    0.30620   0.31281   0.31706   0.32050   0.32375

 Mulliken charges:
               1
     1  C   -0.298212
     2  C   -0.300381
     3  C   -0.475658
     4  H    0.149666
     5  H    0.149867
     6  H    0.151751
     7  H    0.153018
     8  H    0.155103
     9  H    0.155094
    10  H    0.160343
    11  C   -0.302797
    12  C   -0.303869
    13  C   -0.479980
    14  H    0.149740
    15  H    0.154088
    16  H    0.153287
    17  H    0.154395
    18  H    0.158413
    19  H    0.155901
    20  H    0.160226
    21  C   -0.298966
    22  C   -0.309126
    23  C   -0.477312
    24  H    0.150182
    25  H    0.149315
    26  H    0.152373
    27  H    0.160996
    28  H    0.155889
    29  H    0.155880
    30  H    0.160121
    31  C   -0.301670
    32  C   -0.299564
    33  C   -0.475736
    34  H    0.149417
    35  H    0.153567
    36  H    0.151825
    37  H    0.152079
    38  H    0.155437
    39  H    0.155031
    40  H    0.160265
 Sum of Mulliken charges =  -0.00000

 Dipole moment (field-independent basis, Debye):
    X=             -0.0043    Y=              0.0080    Z=             -0.0030  Tot=              0.0096
 Quadrupole moment (field-independent basis, Debye-Ang):
   XX=            -85.7163   YY=            -84.0400   ZZ=            -84.9834
   XY=             -1.8372   XZ=             -0.3503   YZ=              0.4781

 Normal termination of Gaussian 16 at Thu May  6 00:40:40 2021.
