 Gaussian 16, Revision A.03,
 Gaussian 16:  EM64L-G16RevA.03 25-Dec-2016

 -------------
 #p 6-31g* mp2
 -------------

 ------------------------------------------------------
 Input file generated by CHIRIPA (05-May-2021 14:51:10)
 ------------------------------------------------------
 Symbolic Z-matrix:
 Charge =  0 Multiplicity = 1

                         Standard orientation:
 ---------------------------------------------------------------------
 Center     Atomic      Atomic             Coordinates (Angstroms)
 Number     Number       Type             X           Y           Z
 ---------------------------------------------------------------------
      1          6           0        3.884806    0.316995    0.334574
      2          6           0        3.362425    1.549635   -0.404143
      3          6           0        2.101940    2.132266    0.235789
      4          1           0        3.097275   -0.448577    0.359855
      5          1           0        4.093461    0.585402    1.379473
      6          1           0        3.156125    1.279326   -1.447690
      7          1           0        4.151356    2.312289   -0.427836
      8          1           0        2.297628    2.429369    1.271181
      9          1           0        1.296742    1.390536    0.245533
     10          1           0        1.745689    3.012607   -0.308220
     11          6           0        5.144530   -0.276876   -0.293231
     12          6           0        5.666911   -1.509516    0.445486
     13          6           0        6.927396   -2.092147   -0.194446
     14          1           0        4.935875   -0.545284   -1.338131
     15          1           0        5.932061    0.488696   -0.318513
     16          1           0        4.877980   -2.272171    0.469179
     17          1           0        5.873210   -1.239207    1.489032
     18          1           0        7.732593   -1.350417   -0.204190
     19          1           0        6.731708   -2.389250   -1.229838
     20          1           0        7.283647   -2.972488    0.349562
     21          6           0       -4.849939   -0.697232   -0.132312
     22          6           0       -6.348563   -0.689233    0.171080
     23          6           0       -7.005156   -2.051093   -0.056992
     24          1           0       -4.694794   -1.010889   -1.173702
     25          1           0       -4.359370   -1.451981    0.497840
     26          1           0       -6.835952    0.066241   -0.458465
     27          1           0       -6.500167   -0.375374    1.211812
     28          1           0       -6.545650   -2.812150    0.581951
     29          1           0       -6.883343   -2.368027   -1.097816
     30          1           0       -8.076320   -2.022706    0.165856
     31          6           0       -4.179397    0.657113    0.090969
     32          6           0       -2.680773    0.649114   -0.212423
     33          6           0       -2.024180    2.010975    0.015649
     34          1           0       -4.669966    1.411863   -0.539181
     35          1           0       -4.334541    0.970770    1.132359
     36          1           0       -2.529168    0.335255   -1.253155
     37          1           0       -2.193384   -0.106360    0.417122
     38          1           0       -2.145993    2.327909    1.056474
     39          1           0       -2.483685    2.772031   -0.623294
     40          1           0       -0.953015    1.982587   -0.207199
 ---------------------------------------------------------------------

 SCF Done:  E(RHF) =  -470.733094852     A.U. after   11 cycles
 E2 =    -0.1582271201D+01 EUMP2 =    -0.47231536605280D+03

 The electronic state is 1-A.
 Alpha  occ. eigenvalues --  -11.21616 -11.21609 -11.21584 -11.21559 -11.21417
 Alpha  occ. eigenvalues --  -11.21376 -11.21357 -11.21316 -11.21086 -11.21077
 Alpha  occ. eigenvalues --  -11.21059 -11.20930  -1.08443  -1.08397  -1.03552
 Alpha  occ. eigenvalues --   -1.03482  -0.96025  -0.95908  -0.87070  -0.86899
 Alpha  occ. eigenvalues --   -0.79642  -0.79521  -0.78255  -0.78213  -0.65077
 Alpha  occ. eigenvalues --   -0.65028  -0.60976  -0.60883  -0.59419  -0.59265
 Alpha  occ. eigenvalues --   -0.57645  -0.57530  -0.55300  -0.55210  -0.52888
 Alpha  occ. eigenvalues --   -0.52537  -0.52430  -0.52243  -0.49920  -0.49864
 Alpha  occ. eigenvalues --   -0.47964  -0.47823  -0.46627  -0.46590  -0.45796
 Alpha  occ. eigenvalues --   -0.45753  -0.45718  -0.45681  -0.43870  -0.43635
 Alpha virt. eigenvalues --    0.22282   0.22997   0.23559   0.24818   0.26539
 Alpha virt. eigenvalues --    0.26695   0.26980   0.27513   0.27586   0.28866
 Alpha virt. eigenvalues --    0.30843   0.31415   0.31451   0.31762   0.32136

 Mulliken charges:
               1
     1  C   -0.298646
     2  C   -0.299632
     3  C   -0.479600
     4  H    0.149855
     5  H    0.149576
     6  H    0.151984
     7  H    0.152061
     8  H    0.155777
     9  H    0.158418
    10  H    0.161185
    11  C   -0.298311
    12  C   -0.299667
    13  C   -0.475715
    14  H    0.149570
    15  H    0.149703
    16  H    0.151959
    17  H    0.151934
    18  H    0.155195
    19  H    0.155206
    20  H    0.160277
    21  C   -0.298212
    22  C   -0.299621
    23  C   -0.475681
    24  H    0.149473
    25  H    0.149365
    26  H    0.151906
    27  H    0.151940
    28  H    0.155125
    29  H    0.155110
    30  H    0.160203
    31  C   -0.298096
    32  C   -0.299600
    33  C   -0.483459
    34  H    0.149517
    35  H    0.149654
    36  H    0.151345
    37  H    0.151170
    38  H    0.154851
    39  H    0.154322
    40  H    0.169560
 Sum of Mulliken charges =  -0.00000

 Dipole moment (field-independent basis, Debye):
    X=              0.0436    Y=              0.0128    Z=              0.0051  Tot=              0.0457
 Quadrupole moment (field-independent basis, Debye-Ang):
   XX=            -85.7403   YY=            -85.4884   ZZ=            -83.6076
   XY=              0.2657   XZ=              0.7921   YZ=             -0.1767

 Normal termination of Gaussian 16 at Wed May  5 21:26:14 2021.
