 Gaussian 16, Revision A.03,
 Gaussian 16:  EM64L-G16RevA.03 25-Dec-2016

 -------------
 #p 6-31g* mp2
 -------------

 ------------------------------------------------------
 Input file generated by CHIRIPA (05-May-2021 14:53:18)
 ------------------------------------------------------
 Symbolic Z-matrix:
 Charge =  0 Multiplicity = 1

                         Standard orientation:
 ---------------------------------------------------------------------
 Center     Atomic      Atomic             Coordinates (Angstroms)
 Number     Number       Type             X           Y           Z
 ---------------------------------------------------------------------
      1          6           0       -3.103939   -1.128127    0.193367
      2          6           0       -1.793817   -1.433790   -0.533362
      3          6           0       -0.964017   -2.507906    0.170556
      4          1           0       -2.880122   -0.806557    1.219741
      5          1           0       -3.693075   -2.051907    0.276697
      6          1           0       -1.207941   -0.509425   -0.616520
      7          1           0       -2.020770   -1.754486   -1.558185
      8          1           0       -1.526151   -3.444776    0.240410
      9          1           0       -0.708705   -2.192641    1.187426
     10          1           0       -0.031835   -2.710772   -0.365860
     11          6           0       -3.944539   -0.056290   -0.498215
     12          6           0       -5.254661    0.249373    0.228515
     13          6           0       -6.084461    1.323489   -0.475403
     14          1           0       -3.355403    0.867490   -0.581545
     15          1           0       -4.168356   -0.377860   -1.524589
     16          1           0       -5.027708    0.570069    1.253338
     17          1           0       -5.840536   -0.674992    0.311673
     18          1           0       -6.339773    1.008224   -1.492273
     19          1           0       -5.522326    2.260359   -0.545258
     20          1           0       -7.016643    1.526355    0.061012
     21          6           0        0.745311    1.860040    0.736493
     22          6           0        0.806811    0.515808    1.118304
     23          6           0        1.914503   -0.267937    0.781687
     24          6           0        2.947438    0.327570    0.059392
     25          6           0        2.915520    1.664111   -0.335485
     26          6           0        1.798006    2.428898    0.012093
     27          1           0       -0.118985    2.461507    1.002243
     28          1           0       -0.009256    0.071366    1.680934
     29          1           0        1.988018   -1.311022    1.064504
     30          1           0        3.744504    2.079144   -0.895800
     31          1           0        1.752960    3.472591   -0.285764
     32          7           0        4.125301   -0.492111   -0.302773
     33          8           0        5.022242    0.056177   -0.939573
     34          8           0        4.129266   -1.667342    0.057021
 ---------------------------------------------------------------------

 SCF Done:  E(RHF) =  -669.533993093     A.U. after   15 cycles
 E2 =    -0.2094063861D+01 EUMP2 =    -0.67162805695318D+03

 The electronic state is 1-A.
 Alpha  occ. eigenvalues --  -20.60779 -20.60774 -15.85832 -11.31205 -11.27765
 Alpha  occ. eigenvalues --  -11.27732 -11.27523 -11.26799 -11.26763 -11.22210
 Alpha  occ. eigenvalues --  -11.22157 -11.22102 -11.22039 -11.21798 -11.21614
 Alpha  occ. eigenvalues --   -1.59854  -1.39407  -1.19386  -1.09113  -1.08777
 Alpha  occ. eigenvalues --   -1.04823  -1.04142  -0.96644  -0.95609  -0.87657
 Alpha  occ. eigenvalues --   -0.86190  -0.82445  -0.80221  -0.78910  -0.77495
 Alpha  occ. eigenvalues --   -0.72050  -0.71178  -0.70491  -0.65882  -0.65037
 Alpha  occ. eigenvalues --   -0.64755  -0.62373  -0.61326  -0.59988  -0.58234
 Alpha  occ. eigenvalues --   -0.55988  -0.55261  -0.53371  -0.53079  -0.53047
 Alpha  occ. eigenvalues --   -0.52780  -0.50605  -0.48813  -0.48803  -0.48518
 Alpha  occ. eigenvalues --   -0.47274  -0.46448  -0.46391  -0.44810  -0.44421
 Alpha  occ. eigenvalues --   -0.37350  -0.36318
 Alpha virt. eigenvalues --    0.05028   0.11170   0.16467   0.19398   0.22800
 Alpha virt. eigenvalues --    0.23828   0.25518   0.25916   0.26702   0.28697
 Alpha virt. eigenvalues --    0.29338   0.29456   0.31161   0.31394   0.32201

 Mulliken charges:
               1
     1  C   -0.298739
     2  C   -0.308025
     3  C   -0.478786
     4  H    0.141252
     5  H    0.153390
     6  H    0.157209
     7  H    0.156948
     8  H    0.160707
     9  H    0.141823
    10  H    0.168477
    11  C   -0.297465
    12  C   -0.299869
    13  C   -0.475706
    14  H    0.145004
    15  H    0.153193
    16  H    0.149850
    17  H    0.154306
    18  H    0.157083
    19  H    0.153469
    20  H    0.161932
    21  C   -0.173088
    22  C   -0.218536
    23  C   -0.170617
    24  C    0.157868
    25  C   -0.171160
    26  C   -0.218117
    27  H    0.225554
    28  H    0.227918
    29  H    0.277461
    30  H    0.275636
    31  H    0.223544
    32  N    0.488207
    33  O   -0.460349
    34  O   -0.460372
 Sum of Mulliken charges =  -0.00000

 Dipole moment (field-independent basis, Debye):
    X=             -4.2107    Y=              2.8241    Z=              1.1608  Tot=              5.2012
 Quadrupole moment (field-independent basis, Debye-Ang):
   XX=           -118.8872   YY=            -89.8258   ZZ=            -94.1428
   XY=             10.0651   XZ=              2.7000   YZ=             -0.6092

 Normal termination of Gaussian 16 at Thu May  6 19:00:21 2021.
