 Gaussian 16, Revision A.03,
 Gaussian 16:  EM64L-G16RevA.03 25-Dec-2016

 -------------
 #p 6-31g* mp2
 -------------

 ------------------------------------------------------
 Input file generated by CHIRIPA (05-May-2021 14:53:14)
 ------------------------------------------------------
 Symbolic Z-matrix:
 Charge =  0 Multiplicity = 1

                         Standard orientation:
 ---------------------------------------------------------------------
 Center     Atomic      Atomic             Coordinates (Angstroms)
 Number     Number       Type             X           Y           Z
 ---------------------------------------------------------------------
      1          6           0        3.484457   -0.502602   -0.283821
      2          6           0        2.654624   -1.641730    0.309262
      3          6           0        1.274455   -1.766190   -0.336831
      4          1           0        2.936158    0.442036   -0.165614
      5          1           0        3.597837   -0.665062   -1.364630
      6          1           0        2.544012   -1.477899    1.388864
      7          1           0        3.205047   -2.583738    0.189801
      8          1           0        1.367638   -1.953853   -1.411401
      9          1           0        0.702848   -0.841730   -0.205525
     10          1           0        0.698198   -2.586619    0.102126
     11          6           0        4.866809   -0.365498    0.351815
     12          6           0        5.696643    0.773630   -0.241268
     13          6           0        7.076812    0.898090    0.404825
     14          1           0        4.753430   -0.203038    1.432623
     15          1           0        5.415108   -1.310135    0.233608
     16          1           0        5.146220    1.715639   -0.121808
     17          1           0        5.807254    0.609799   -1.320870
     18          1           0        7.648419   -0.026369    0.273519
     19          1           0        6.983628    1.085754    1.479395
     20          1           0        7.653069    1.718520   -0.034133
     21          6           0       -2.045796    2.540028   -0.231911
     22          6           0       -3.349138    2.505170    0.274648
     23          6           0       -4.032708    1.291374    0.392885
     24          6           0       -3.379812    0.126323   -0.006708
     25          6           0       -2.081844    0.128436   -0.515199
     26          6           0       -1.417416    1.353642   -0.624527
     27          1           0       -1.522217    3.487367   -0.320300
     28          1           0       -3.839628    3.424963    0.580337
     29          1           0       -5.042229    1.235605    0.781700
     30          1           0       -1.619044   -0.805004   -0.811718
     31          1           0       -0.405277    1.377697   -1.018278
     32          7           0       -4.093345   -1.164707    0.113749
     33          8           0       -3.496070   -2.177150   -0.245222
     34          8           0       -5.236376   -1.139729    0.564852
 ---------------------------------------------------------------------

 SCF Done:  E(RHF) =  -669.535034982     A.U. after   15 cycles
 E2 =    -0.2091931579D+01 EUMP2 =    -0.67162696656175D+03

 The electronic state is 1-A.
 Alpha  occ. eigenvalues --  -20.60721 -20.60715 -15.85773 -11.31124 -11.27725
 Alpha  occ. eigenvalues --  -11.27650 -11.27472 -11.26734 -11.26708 -11.22080
 Alpha  occ. eigenvalues --  -11.22014 -11.21936 -11.21795 -11.21666 -11.21405
 Alpha  occ. eigenvalues --   -1.59796  -1.39349  -1.19315  -1.08905  -1.08713
 Alpha  occ. eigenvalues --   -1.04729  -1.03990  -0.96466  -0.95544  -0.87493
 Alpha  occ. eigenvalues --   -0.86113  -0.82388  -0.80076  -0.78727  -0.77417
 Alpha  occ. eigenvalues --   -0.71994  -0.71119  -0.70431  -0.65540  -0.64972
 Alpha  occ. eigenvalues --   -0.64726  -0.62172  -0.61322  -0.59803  -0.58052
 Alpha  occ. eigenvalues --   -0.55774  -0.55215  -0.53188  -0.53072  -0.52867
 Alpha  occ. eigenvalues --   -0.52728  -0.50398  -0.48753  -0.48748  -0.48371
 Alpha  occ. eigenvalues --   -0.47087  -0.46269  -0.46178  -0.44757  -0.44238
 Alpha  occ. eigenvalues --   -0.37304  -0.36301
 Alpha virt. eigenvalues --    0.05081   0.11322   0.16466   0.20542   0.22517
 Alpha virt. eigenvalues --    0.23856   0.25532   0.26214   0.26898   0.28187
 Alpha virt. eigenvalues --    0.29108   0.29561   0.31371   0.31555   0.32069

 Mulliken charges:
               1
     1  C   -0.298193
     2  C   -0.300143
     3  C   -0.485619
     4  H    0.143222
     5  H    0.149964
     6  H    0.154726
     7  H    0.155874
     8  H    0.156350
     9  H    0.147371
    10  H    0.172221
    11  C   -0.298622
    12  C   -0.299672
    13  C   -0.475954
    14  H    0.150695
    15  H    0.151927
    16  H    0.149889
    17  H    0.152275
    18  H    0.156481
    19  H    0.155747
    20  H    0.160777
    21  C   -0.170831
    22  C   -0.219026
    23  C   -0.170569
    24  C    0.156920
    25  C   -0.173490
    26  C   -0.222922
    27  H    0.225393
    28  H    0.223233
    29  H    0.275441
    30  H    0.284720
    31  H    0.224922
    32  N    0.488024
    33  O   -0.460392
    34  O   -0.460736
 Sum of Mulliken charges =  -0.00000

 Dipole moment (field-independent basis, Debye):
    X=              2.6333    Y=              4.4364    Z=             -0.3841  Tot=              5.1734
 Quadrupole moment (field-independent basis, Debye-Ang):
   XX=           -109.2976   YY=            -92.2914   ZZ=            -94.4996
   XY=            -18.0578   XZ=             -0.8286   YZ=              1.2734

 Normal termination of Gaussian 16 at Thu May  6 18:48:19 2021.
