 Gaussian 16, Revision A.03,
 Gaussian 16:  EM64L-G16RevA.03 25-Dec-2016

 -------------
 #p 6-31g* mp2
 -------------

 ------------------------------------------------------
 Input file generated by CHIRIPA (05-May-2021 14:51:11)
 ------------------------------------------------------
 Symbolic Z-matrix:
 Charge =  0 Multiplicity = 1

                         Standard orientation:
 ---------------------------------------------------------------------
 Center     Atomic      Atomic             Coordinates (Angstroms)
 Number     Number       Type             X           Y           Z
 ---------------------------------------------------------------------
      1          6           0        2.665496   -0.525741    0.073371
      2          6           0        3.189448   -1.884509   -0.392686
      3          6           0        2.184123   -3.014420   -0.168152
      4          1           0        2.410179   -0.584656    1.140276
      5          1           0        1.731775   -0.298259   -0.459370
      6          1           0        4.122635   -2.108730    0.139765
      7          1           0        3.443728   -1.822298   -1.458560
      8          1           0        1.255036   -2.817286   -0.712704
      9          1           0        1.937800   -3.105346    0.894702
     10          1           0        2.579130   -3.976743   -0.508392
     11          6           0        3.659215    0.613903   -0.144489
     12          6           0        3.135262    1.972671    0.321568
     13          6           0        4.140588    3.102582    0.097034
     14          1           0        4.592935    0.386421    0.388252
     15          1           0        3.914532    0.672819   -1.211394
     16          1           0        2.880983    1.910460    1.387442
     17          1           0        2.202076    2.196893   -0.210883
     18          1           0        4.386910    3.193509   -0.965820
     19          1           0        5.069675    2.905448    0.641586
     20          1           0        3.745581    4.064906    0.437274
     21          6           0       -2.666537   -0.561812    0.299286
     22          6           0       -2.999708   -1.992190   -0.126156
     23          6           0       -1.998719   -3.016504    0.409191
     24          1           0       -1.656794   -0.307614   -0.051068
     25          1           0       -2.638926   -0.510064    1.396534
     26          1           0       -3.028043   -2.040912   -1.222258
     27          1           0       -4.008849   -2.242945    0.225086
     28          1           0       -1.975815   -2.997186    1.503587
     29          1           0       -0.989437   -2.794005    0.048020
     30          1           0       -2.255902   -4.032287    0.093116
     31          6           0       -3.658174    0.473649   -0.228167
     32          6           0       -3.325003    1.904028    0.197273
     33          6           0       -4.325992    2.928342   -0.338073
     34          1           0       -3.685784    0.421900   -1.325417
     35          1           0       -4.667917    0.219451    0.122186
     36          1           0       -2.315861    2.154782   -0.153968
     37          1           0       -3.296667    1.952748    1.293375
     38          1           0       -5.335274    2.705843    0.023097
     39          1           0       -4.348896    2.909023   -1.432469
     40          1           0       -4.068809    3.944124   -0.021998
 ---------------------------------------------------------------------

 SCF Done:  E(RHF) =  -470.733206204     A.U. after   11 cycles
 E2 =    -0.1582740549D+01 EUMP2 =    -0.47231594675328D+03

 The electronic state is 1-A.
 Alpha  occ. eigenvalues --  -11.21625 -11.21619 -11.21589 -11.21552 -11.21435
 Alpha  occ. eigenvalues --  -11.21382 -11.21375 -11.21321 -11.21084 -11.21082
 Alpha  occ. eigenvalues --  -11.21063 -11.20950  -1.08456  -1.08401  -1.03558
 Alpha  occ. eigenvalues --   -1.03487  -0.96021  -0.95922  -0.87056  -0.86921
 Alpha  occ. eigenvalues --   -0.79660  -0.79513  -0.78287  -0.78193  -0.65107
 Alpha  occ. eigenvalues --   -0.65016  -0.61014  -0.60843  -0.59377  -0.59300
 Alpha  occ. eigenvalues --   -0.57706  -0.57479  -0.55409  -0.55129  -0.52701
 Alpha  occ. eigenvalues --   -0.52640  -0.52575  -0.52206  -0.50072  -0.49752
 Alpha  occ. eigenvalues --   -0.48079  -0.47727  -0.46731  -0.46496  -0.45931
 Alpha  occ. eigenvalues --   -0.45756  -0.45713  -0.45511  -0.43808  -0.43749
 Alpha virt. eigenvalues --    0.21217   0.23237   0.23467   0.24925   0.25452
 Alpha virt. eigenvalues --    0.26592   0.27033   0.27123   0.28686   0.29242
 Alpha virt. eigenvalues --    0.30383   0.31619   0.31726   0.31918   0.32065

 Mulliken charges:
               1
     1  C   -0.298865
     2  C   -0.299724
     3  C   -0.479564
     4  H    0.150361
     5  H    0.148893
     6  H    0.152167
     7  H    0.151794
     8  H    0.158435
     9  H    0.156645
    10  H    0.160723
    11  C   -0.298314
    12  C   -0.299528
    13  C   -0.475744
    14  H    0.149765
    15  H    0.149599
    16  H    0.152256
    17  H    0.151581
    18  H    0.155139
    19  H    0.155246
    20  H    0.160365
    21  C   -0.298785
    22  C   -0.299421
    23  C   -0.482291
    24  H    0.149750
    25  H    0.149662
    26  H    0.151198
    27  H    0.151692
    28  H    0.154650
    29  H    0.162841
    30  H    0.159804
    31  C   -0.298281
    32  C   -0.299501
    33  C   -0.475694
    34  H    0.149240
    35  H    0.149701
    36  H    0.151720
    37  H    0.152027
    38  H    0.155188
    39  H    0.155053
    40  H    0.160217
 Sum of Mulliken charges =  -0.00000

 Dipole moment (field-independent basis, Debye):
    X=              0.0431    Y=             -0.0119    Z=              0.0146  Tot=              0.0471
 Quadrupole moment (field-independent basis, Debye-Ang):
   XX=            -85.1365   YY=            -86.3210   ZZ=            -83.2904
   XY=             -0.1033   XZ=             -0.2440   YZ=              0.1008

 Normal termination of Gaussian 16 at Wed May  5 15:14:14 2021.
