 Gaussian 16, Revision A.03,
 Gaussian 16:  EM64L-G16RevA.03 25-Dec-2016

 -------------
 #p 6-31g* mp2
 -------------

 ------------------------------------------------------
 Input file generated by CHIRIPA (05-May-2021 14:57:22)
 ------------------------------------------------------
 Symbolic Z-matrix:
 Charge =  0 Multiplicity = 1

                         Standard orientation:
 ---------------------------------------------------------------------
 Center     Atomic      Atomic             Coordinates (Angstroms)
 Number     Number       Type             X           Y           Z
 ---------------------------------------------------------------------
      1          6           0       -1.185488    1.898515    0.628303
      2          6           0       -1.922744    1.939775   -0.559667
      3          6           0       -2.868277    0.949775   -0.843243
      4          6           0       -3.051740   -0.071533    0.087651
      5          6           0       -2.332766   -0.140211    1.279980
      6          6           0       -1.392487    0.860484    1.542723
      7          1           0       -0.453017    2.671725    0.840500
      8          1           0       -1.764092    2.744730   -1.271652
      9          1           0       -3.452776    0.957389   -1.755230
     10          1           0       -2.513113   -0.955211    1.970392
     11          1           0       -0.821365    0.825891    2.466123
     12          7           0       -4.049952   -1.125263   -0.201531
     13          8           0       -4.192844   -2.014414    0.634907
     14          8           0       -4.670557   -1.042072   -1.259154
     15          6           0        2.182540    2.318843   -0.225927
     16          6           0        2.271332    1.571047   -1.404672
     17          6           0        2.660729    0.228865   -1.366392
     18          6           0        2.955349   -0.336186   -0.126551
     19          6           0        2.876272    0.382618    1.065236
     20          6           0        2.484761    1.723292    1.003099
     21          1           0        1.879226    3.360896   -0.264931
     22          1           0        2.037224    2.030942   -2.360567
     23          1           0        2.737753   -0.373209   -2.263606
     24          1           0        3.115968   -0.103418    2.003177
     25          1           0        2.416672    2.301613    1.920134
     26          7           0        3.368705   -1.756296   -0.073397
     27          8           0        3.622926   -2.230812    1.031520
     28          8           0        3.430646   -2.367971   -1.137659
 ---------------------------------------------------------------------

 SCF Done:  E(RHF) =  -868.334856399     A.U. after   16 cycles
 E2 =    -0.2602994128D+01 EUMP2 =    -0.87093785052745D+03

 The electronic state is 1-A.
 Alpha  occ. eigenvalues --  -20.61310 -20.61298 -20.60891 -20.60880 -15.86369
 Alpha  occ. eigenvalues --  -15.85950 -11.31954 -11.31401 -11.28595 -11.28527
 Alpha  occ. eigenvalues --  -11.28440 -11.28045 -11.27999 -11.27834 -11.27701
 Alpha  occ. eigenvalues --  -11.27613 -11.27102 -11.27039  -1.60377  -1.59963
 Alpha  occ. eigenvalues --   -1.39925  -1.39514  -1.20174  -1.19616  -1.09575
 Alpha  occ. eigenvalues --   -1.08995  -1.05608  -1.05044  -0.96367  -0.95809
 Alpha  occ. eigenvalues --   -0.87022  -0.86448  -0.83178  -0.82651  -0.78149
 Alpha  occ. eigenvalues --   -0.77669  -0.72588  -0.72168  -0.71701  -0.71475
 Alpha  occ. eigenvalues --   -0.71288  -0.70703  -0.65842  -0.65644  -0.65282
 Alpha  occ. eigenvalues --   -0.65076  -0.62946  -0.62397  -0.56269  -0.55654
 Alpha  occ. eigenvalues --   -0.54053  -0.53717  -0.53164  -0.53120  -0.49362
 Alpha  occ. eigenvalues --   -0.49325  -0.48936  -0.48914  -0.45282  -0.44901
 Alpha  occ. eigenvalues --   -0.38545  -0.37361  -0.37120  -0.36544
 Alpha virt. eigenvalues --    0.04238   0.04997   0.10181   0.11137   0.15575
 Alpha virt. eigenvalues --    0.16514   0.19013   0.22130   0.25564   0.25844
 Alpha virt. eigenvalues --    0.27719   0.29540   0.29721   0.30909   0.32419

 Mulliken charges:
               1
     1  C   -0.157943
     2  C   -0.220892
     3  C   -0.170137
     4  C    0.158330
     5  C   -0.169513
     6  C   -0.218359
     7  H    0.213663
     8  H    0.217466
     9  H    0.275744
    10  H    0.277866
    11  H    0.220132
    12  N    0.488208
    13  O   -0.458472
    14  O   -0.460508
    15  C   -0.176335
    16  C   -0.215033
    17  C   -0.167865
    18  C    0.160848
    19  C   -0.169861
    20  C   -0.222177
    21  H    0.221116
    22  H    0.224419
    23  H    0.279468
    24  H    0.276929
    25  H    0.220744
    26  N    0.487978
    27  O   -0.459121
    28  O   -0.456694
 Sum of Mulliken charges =  -0.00000

 Dipole moment (field-independent basis, Debye):
    X=              2.1868    Y=              8.4132    Z=              0.7302  Tot=              8.7234
 Quadrupole moment (field-independent basis, Debye-Ang):
   XX=           -135.7557   YY=           -109.4569   ZZ=            -95.9589
   XY=              3.0503   XZ=             -1.8875   YZ=             -2.3349

 Normal termination of Gaussian 16 at Thu May  6 11:14:11 2021.
