 Gaussian 16, Revision A.03,
 Gaussian 16:  EM64L-G16RevA.03 25-Dec-2016

 -------------
 #p 6-31g* mp2
 -------------

 ------------------------------------------------------
 Input file generated by CHIRIPA (05-May-2021 14:53:15)
 ------------------------------------------------------
 Symbolic Z-matrix:
 Charge =  0 Multiplicity = 1

                         Standard orientation:
 ---------------------------------------------------------------------
 Center     Atomic      Atomic             Coordinates (Angstroms)
 Number     Number       Type             X           Y           Z
 ---------------------------------------------------------------------
      1          6           0       -2.793183   -1.368909   -0.260949
      2          6           0       -1.272826   -1.516415   -0.329815
      3          6           0       -0.826998   -2.968809   -0.501814
      4          1           0       -3.176387   -1.972794    0.572971
      5          1           0       -3.236676   -1.783560   -1.176794
      6          1           0       -0.832240   -1.100355    0.585277
      7          1           0       -0.893176   -0.911956   -1.163549
      8          1           0       -1.239225   -3.391727   -1.423665
      9          1           0       -1.177942   -3.581197    0.335097
     10          1           0        0.263357   -3.051198   -0.548683
     11          6           0       -3.254362    0.077294   -0.089082
     12          6           0       -4.774718    0.224801   -0.020215
     13          6           0       -5.220546    1.677194    0.151784
     14          1           0       -2.810869    0.491946    0.826764
     15          1           0       -2.871157    0.681180   -0.923001
     16          1           0       -5.154368   -0.379658    0.813519
     17          1           0       -5.215305   -0.191259   -0.935307
     18          1           0       -4.869602    2.289582   -0.685127
     19          1           0       -4.808319    2.100113    1.073635
     20          1           0       -6.310902    1.759584    0.198653
     21          6           0        1.588369    2.892811   -0.114397
     22          6           0        2.624700    2.404735   -0.917092
     23          6           0        3.061677    1.083157   -0.786590
     24          6           0        2.437145    0.273647    0.161009
     25          6           0        1.402182    0.730651    0.975434
     26          6           0        0.981487    2.055687    0.827644
     27          1           0        1.255238    3.920788   -0.222489
     28          1           0        3.097851    3.052587   -1.649527
     29          1           0        3.861816    0.679469   -1.395057
     30          1           0        0.949896    0.060927    1.696770
     31          1           0        0.176433    2.432026    1.452385
     32          7           0        2.891134   -1.127279    0.308316
     33          8           0        2.324563   -1.820268    1.150575
     34          8           0        3.804947   -1.505808   -0.421272
 ---------------------------------------------------------------------

 SCF Done:  E(RHF) =  -669.535062380     A.U. after   15 cycles
 E2 =    -0.2093514594D+01 EUMP2 =    -0.67162857697408D+03

 The electronic state is 1-A.
 Alpha  occ. eigenvalues --  -20.60901 -20.60881 -15.85915 -11.31203 -11.27788
 Alpha  occ. eigenvalues --  -11.27777 -11.27520 -11.26775 -11.26761 -11.21804
 Alpha  occ. eigenvalues --  -11.21595 -11.21376 -11.21373 -11.21305 -11.20370
 Alpha  occ. eigenvalues --   -1.59953  -1.39509  -1.19386  -1.08791  -1.08466
 Alpha  occ. eigenvalues --   -1.04785  -1.03464  -0.95899  -0.95635  -0.86906
 Alpha  occ. eigenvalues --   -0.86187  -0.82475  -0.79573  -0.78309  -0.77514
 Alpha  occ. eigenvalues --   -0.72141  -0.71274  -0.70513  -0.65130  -0.65042
 Alpha  occ. eigenvalues --   -0.64777  -0.62168  -0.60845  -0.59289  -0.57496
 Alpha  occ. eigenvalues --   -0.55303  -0.55186  -0.53137  -0.52889  -0.52527
 Alpha  occ. eigenvalues --   -0.52311  -0.49847  -0.48911  -0.48895  -0.47850
 Alpha  occ. eigenvalues --   -0.46622  -0.45811  -0.45737  -0.44884  -0.43697
 Alpha  occ. eigenvalues --   -0.37351  -0.36324
 Alpha virt. eigenvalues --    0.04960   0.11233   0.16436   0.20703   0.22923
 Alpha virt. eigenvalues --    0.24270   0.25532   0.27001   0.27615   0.28205
 Alpha virt. eigenvalues --    0.29157   0.30246   0.31440   0.31681   0.32430

 Mulliken charges:
               1
     1  C   -0.297980
     2  C   -0.301722
     3  C   -0.477609
     4  H    0.150476
     5  H    0.150347
     6  H    0.147088
     7  H    0.149330
     8  H    0.150463
     9  H    0.155466
    10  H    0.176025
    11  C   -0.296224
    12  C   -0.299488
    13  C   -0.475381
    14  H    0.141055
    15  H    0.148653
    16  H    0.153098
    17  H    0.153543
    18  H    0.153850
    19  H    0.152111
    20  H    0.161540
    21  C   -0.170495
    22  C   -0.218926
    23  C   -0.171138
    24  C    0.158737
    25  C   -0.166372
    26  C   -0.218955
    27  H    0.225839
    28  H    0.223370
    29  H    0.275497
    30  H    0.275535
    31  H    0.223860
    32  N    0.487516
    33  O   -0.459748
    34  O   -0.459362
 Sum of Mulliken charges =  -0.00000

 Dipole moment (field-independent basis, Debye):
    X=             -1.4823    Y=              4.8510    Z=             -0.5309  Tot=              5.1001
 Quadrupole moment (field-independent basis, Debye-Ang):
   XX=           -101.0463   YY=            -93.3071   ZZ=            -91.7960
   XY=             12.7118   XZ=             -4.2637   YZ=             -0.2832

 Normal termination of Gaussian 16 at Thu May  6 13:50:26 2021.
