 Gaussian 16, Revision A.03,
 Gaussian 16:  EM64L-G16RevA.03 25-Dec-2016

 -------------
 #p 6-31g* mp2
 -------------

 ------------------------------------------------------
 Input file generated by CHIRIPA (05-May-2021 14:55:21)
 ------------------------------------------------------
 Symbolic Z-matrix:
 Charge =  0 Multiplicity = 1

                         Standard orientation:
 ---------------------------------------------------------------------
 Center     Atomic      Atomic             Coordinates (Angstroms)
 Number     Number       Type             X           Y           Z
 ---------------------------------------------------------------------
      1          6           0        1.420025    1.411974    1.518228
      2          6           0        1.740162    0.149422    2.028124
      3          6           0        2.596268   -0.703840    1.325576
      4          6           0        3.116618   -0.260385    0.110720
      5          6           0        2.816569    0.991750   -0.423526
      6          6           0        1.958301    1.828374    0.296184
      7          1           0        0.754141    2.068346    2.070650
      8          1           0        1.323605   -0.176604    2.976930
      9          1           0        2.860795   -1.686364    1.697182
     10          1           0        3.247358    1.288890   -1.371971
     11          1           0        1.711428    2.808355   -0.102234
     12          7           0        4.024083   -1.154889   -0.642120
     13          8           0        4.469390   -0.740685   -1.710191
     14          8           0        4.272866   -2.253267   -0.149872
     15          6           0       -4.310708   -0.175762    0.166112
     16          6           0       -5.170334   -1.240047   -0.516770
     17          6           0       -6.191598   -1.871747    0.429681
     18          1           0       -3.789748   -0.627598    1.021326
     19          1           0       -4.964745    0.606224    0.576145
     20          1           0       -4.514782   -2.019091   -0.926597
     21          1           0       -5.689160   -0.785672   -1.370572
     22          1           0       -6.869144   -1.110223    0.829196
     23          1           0       -5.688094   -2.350649    1.275694
     24          1           0       -6.795325   -2.629714   -0.079102
     25          6           0       -3.284957    0.464941   -0.767194
     26          6           0       -2.425330    1.529226   -0.084313
     27          6           0       -1.404067    2.160925   -1.030763
     28          1           0       -2.630920   -0.317046   -1.177227
     29          1           0       -3.805917    0.916776   -1.622407
     30          1           0       -1.906505    1.074850    0.769490
     31          1           0       -3.080883    2.308269    0.325515
     32          1           0       -1.907572    2.639827   -1.876775
     33          1           0       -0.726520    1.399400   -1.430278
     34          1           0       -0.800340    2.918892   -0.521980
 ---------------------------------------------------------------------

 SCF Done:  E(RHF) =  -669.534918851     A.U. after   15 cycles
 E2 =    -0.2092446119D+01 EUMP2 =    -0.67162736497007D+03

 The electronic state is 1-A.
 Alpha  occ. eigenvalues --  -20.60782 -20.60776 -15.85834 -11.31210 -11.27760
 Alpha  occ. eigenvalues --  -11.27744 -11.27500 -11.26803 -11.26763 -11.22254
 Alpha  occ. eigenvalues --  -11.21918 -11.21858 -11.21779 -11.21767 -11.21350
 Alpha  occ. eigenvalues --   -1.59857  -1.39410  -1.19378  -1.08903  -1.08765
 Alpha  occ. eigenvalues --   -1.04782  -1.04009  -0.96467  -0.95602  -0.87497
 Alpha  occ. eigenvalues --   -0.86168  -0.82435  -0.80087  -0.78693  -0.77481
 Alpha  occ. eigenvalues --   -0.72052  -0.71180  -0.70480  -0.65522  -0.65029
 Alpha  occ. eigenvalues --   -0.64806  -0.62152  -0.61399  -0.59851  -0.58075
 Alpha  occ. eigenvalues --   -0.55759  -0.55278  -0.53361  -0.53011  -0.52900
 Alpha  occ. eigenvalues --   -0.52732  -0.50371  -0.48813  -0.48807  -0.48399
 Alpha  occ. eigenvalues --   -0.47103  -0.46241  -0.46144  -0.44813  -0.44273
 Alpha  occ. eigenvalues --   -0.37325  -0.36344
 Alpha virt. eigenvalues --    0.05017   0.11243   0.16455   0.20308   0.22595
 Alpha virt. eigenvalues --    0.24058   0.25966   0.26172   0.26808   0.27880
 Alpha virt. eigenvalues --    0.28596   0.30069   0.30951   0.31623   0.31832

 Mulliken charges:
               1
     1  C   -0.170236
     2  C   -0.219530
     3  C   -0.171556
     4  C    0.158754
     5  C   -0.174004
     6  C   -0.213541
     7  H    0.226263
     8  H    0.223472
     9  H    0.275486
    10  H    0.275790
    11  H    0.225119
    12  N    0.488013
    13  O   -0.460243
    14  O   -0.460429
    15  C   -0.298334
    16  C   -0.300216
    17  C   -0.475895
    18  H    0.148269
    19  H    0.149284
    20  H    0.153607
    21  H    0.152843
    22  H    0.155067
    23  H    0.154896
    24  H    0.161789
    25  C   -0.299102
    26  C   -0.300848
    27  C   -0.474024
    28  H    0.152777
    29  H    0.151279
    30  H    0.148140
    31  H    0.151402
    32  H    0.157224
    33  H    0.161731
    34  H    0.146756
 Sum of Mulliken charges =  -0.00000

 Dipole moment (field-independent basis, Debye):
    X=             -3.2596    Y=              3.0955    Z=              2.5970  Tot=              5.1915
 Quadrupole moment (field-independent basis, Debye-Ang):
   XX=           -115.3912   YY=            -94.3509   ZZ=            -92.1717
   XY=             10.3801   XZ=              8.3475   YZ=             -3.0808

 Normal termination of Gaussian 16 at Thu May  6 12:30:39 2021.
