 Gaussian 16, Revision A.03,
 Gaussian 16:  EM64L-G16RevA.03 25-Dec-2016

 -------------
 #p 6-31g* mp2
 -------------

 ------------------------------------------------------
 Input file generated by CHIRIPA (05-May-2021 14:57:25)
 ------------------------------------------------------
 Symbolic Z-matrix:
 Charge =  0 Multiplicity = 1

                         Standard orientation:
 ---------------------------------------------------------------------
 Center     Atomic      Atomic             Coordinates (Angstroms)
 Number     Number       Type             X           Y           Z
 ---------------------------------------------------------------------
      1          6           0        2.384455    2.660926    0.081504
      2          6           0        2.581967    2.012499   -1.142036
      3          6           0        2.983750    0.673949   -1.179487
      4          6           0        3.179758    0.011163    0.031128
      5          6           0        2.991192    0.629688    1.266102
      6          6           0        2.589336    1.968672    1.279556
      7          1           0        2.072312    3.700913    0.101276
      8          1           0        2.423604    2.547622   -2.074028
      9          1           0        3.143911    0.147674   -2.112654
     10          1           0        3.156970    0.070009    2.178623
     11          1           0        2.436706    2.469704    2.231247
     12          7           0        3.605146   -1.406129    0.004183
     13          8           0        3.771147   -1.967890    1.084694
     14          8           0        3.764508   -1.928406   -1.096938
     15          6           0       -0.708701   -1.007384   -0.176154
     16          6           0       -1.016541    0.354570   -0.258835
     17          6           0       -2.343319    0.788534   -0.182144
     18          6           0       -3.341763   -0.171022   -0.021977
     19          6           0       -3.066974   -1.535006    0.063637
     20          6           0       -1.733094   -1.946170   -0.015466
     21          1           0        0.324731   -1.335642   -0.236666
     22          1           0       -0.223035    1.085884   -0.383634
     23          1           0       -2.609802    1.836706   -0.243297
     24          1           0       -3.879599   -2.240412    0.187976
     25          1           0       -1.496974   -3.004532    0.049045
     26          7           0       -4.750124    0.276328    0.060488
     27          8           0       -5.611501   -0.588969    0.201653
     28          8           0       -4.965951    1.483786   -0.017602
 ---------------------------------------------------------------------

 SCF Done:  E(RHF) =  -868.338073402     A.U. after   16 cycles
 E2 =    -0.2602288890D+01 EUMP2 =    -0.87094036229149D+03

 The electronic state is 1-A.
 Alpha  occ. eigenvalues --  -20.62001 -20.61995 -20.60768 -20.60755 -15.87053
 Alpha  occ. eigenvalues --  -15.85813 -11.32498 -11.31115 -11.29056 -11.29007
 Alpha  occ. eigenvalues --  -11.28750 -11.28049 -11.27994 -11.27685 -11.27635
 Alpha  occ. eigenvalues --  -11.27323 -11.26606 -11.26577  -1.61092  -1.59841
 Alpha  occ. eigenvalues --   -1.40631  -1.39397  -1.20690  -1.19261  -1.10058
 Alpha  occ. eigenvalues --   -1.08657  -1.06043  -1.04652  -0.96860  -0.95513
 Alpha  occ. eigenvalues --   -0.87425  -0.86042  -0.83653  -0.82350  -0.78703
 Alpha  occ. eigenvalues --   -0.77419  -0.73241  -0.72488  -0.72032  -0.71701
 Alpha  occ. eigenvalues --   -0.71164  -0.70342  -0.66284  -0.65979  -0.64904
 Alpha  occ. eigenvalues --   -0.64668  -0.63342  -0.62031  -0.56497  -0.55145
 Alpha  occ. eigenvalues --   -0.54469  -0.54077  -0.52992  -0.52613  -0.50018
 Alpha  occ. eigenvalues --   -0.50004  -0.48795  -0.48780  -0.46001  -0.44817
 Alpha  occ. eigenvalues --   -0.38670  -0.37756  -0.37144  -0.36245
 Alpha virt. eigenvalues --    0.03757   0.05101   0.09958   0.11388   0.15241
 Alpha virt. eigenvalues --    0.16641   0.20352   0.21453   0.26320   0.27163
 Alpha virt. eigenvalues --    0.27425   0.27714   0.30061   0.30986   0.31543

 Mulliken charges:
               1
     1  C   -0.177809
     2  C   -0.224100
     3  C   -0.174496
     4  C    0.149744
     5  C   -0.171055
     6  C   -0.216708
     7  H    0.231783
     8  H    0.229718
     9  H    0.279912
    10  H    0.280138
    11  H    0.230121
    12  N    0.487129
    13  O   -0.456425
    14  O   -0.457948
    15  C   -0.173558
    16  C   -0.225409
    17  C   -0.174656
    18  C    0.158832
    19  C   -0.171799
    20  C   -0.218967
    21  H    0.227140
    22  H    0.228114
    23  H    0.271595
    24  H    0.275608
    25  H    0.227595
    26  N    0.488089
    27  O   -0.459950
    28  O   -0.462639
 Sum of Mulliken charges =  -0.00000

 Dipole moment (field-independent basis, Debye):
    X=              3.8424    Y=              3.4489    Z=             -0.1203  Tot=              5.1646
 Quadrupole moment (field-independent basis, Debye-Ang):
   XX=           -148.0931   YY=            -99.6950   ZZ=           -100.2524
   XY=             22.5758   XZ=              1.0922   YZ=             -0.3552

 Normal termination of Gaussian 16 at Fri May  7 11:08:47 2021.
