 Gaussian 16, Revision A.03,
 Gaussian 16:  EM64L-G16RevA.03 25-Dec-2016

 -------------
 #p 6-31g* mp2
 -------------

 ------------------------------------------------------
 Input file generated by CHIRIPA (05-May-2021 14:51:13)
 ------------------------------------------------------
 Symbolic Z-matrix:
 Charge =  0 Multiplicity = 1

                         Standard orientation:
 ---------------------------------------------------------------------
 Center     Atomic      Atomic             Coordinates (Angstroms)
 Number     Number       Type             X           Y           Z
 ---------------------------------------------------------------------
      1          6           0       -3.083560    0.988085   -0.237365
      2          6           0       -3.950486    2.062576    0.419821
      3          6           0       -3.523472    3.480711    0.039891
      4          1           0       -2.034872    1.146013    0.049438
      5          1           0       -3.130273    1.106062   -1.328829
      6          1           0       -3.903252    1.941746    1.509677
      7          1           0       -4.997258    1.901958    0.131574
      8          1           0       -3.587848    3.625215   -1.043425
      9          1           0       -2.487625    3.665229    0.342507
     10          1           0       -4.156517    4.232990    0.520714
     11          6           0       -3.498108   -0.434887    0.132808
     12          6           0       -2.631182   -1.509378   -0.524378
     13          6           0       -3.058197   -2.927513   -0.144448
     14          1           0       -3.451395   -0.552864    1.224272
     15          1           0       -4.546797   -0.592815   -0.153995
     16          1           0       -1.584411   -1.348759   -0.236131
     17          1           0       -2.678417   -1.388548   -1.614233
     18          1           0       -4.094043   -3.112031   -0.447064
     19          1           0       -2.993821   -3.072016    0.938869
     20          1           0       -2.425151   -3.679791   -0.625271
     21          6           0        3.728485    0.260353    0.374112
     22          6           0        4.354410    1.219778   -0.638658
     23          6           0        5.227146    2.288285    0.020447
     24          1           0        3.127311    0.835577    1.091506
     25          1           0        4.527549   -0.223309    0.952872
     26          1           0        3.554457    1.700455   -1.216277
     27          1           0        4.954007    0.642184   -1.353839
     28          1           0        6.045084    1.825192    0.581805
     29          1           0        4.637583    2.889476    0.720150
     30          1           0        5.664598    2.963287   -0.721759
     31          6           0        2.853184   -0.813551   -0.269555
     32          6           0        2.227259   -1.772977    0.743215
     33          6           0        1.354522   -2.841484    0.084110
     34          1           0        2.054119   -0.329890   -0.848315
     35          1           0        3.454356   -1.388775   -0.986949
     36          1           0        1.627662   -1.195382    1.458396
     37          1           0        3.027211   -2.253654    1.320833
     38          1           0        1.944086   -3.442674   -0.615593
     39          1           0        0.536584   -2.378390   -0.477249
     40          1           0        0.917070   -3.516486    0.826315
 ---------------------------------------------------------------------

 SCF Done:  E(RHF) =  -470.733254338     A.U. after   11 cycles
 E2 =    -0.1582672716D+01 EUMP2 =    -0.47231592705323D+03

 The electronic state is 1-A.
 Alpha  occ. eigenvalues --  -11.21626 -11.21622 -11.21609 -11.21596 -11.21428
 Alpha  occ. eigenvalues --  -11.21419 -11.21366 -11.21360 -11.21097 -11.21078
 Alpha  occ. eigenvalues --  -11.21049 -11.21044  -1.08457  -1.08436  -1.03569
 Alpha  occ. eigenvalues --   -1.03513  -0.96017  -0.95958  -0.87005  -0.87003
 Alpha  occ. eigenvalues --   -0.79656  -0.79559  -0.78288  -0.78234  -0.65155
 Alpha  occ. eigenvalues --   -0.65012  -0.61109  -0.60795  -0.59367  -0.59345
 Alpha  occ. eigenvalues --   -0.57656  -0.57550  -0.55375  -0.55171  -0.52715
 Alpha  occ. eigenvalues --   -0.52644  -0.52416  -0.52404  -0.50022  -0.49861
 Alpha  occ. eigenvalues --   -0.48011  -0.47844  -0.46788  -0.46491  -0.45874
 Alpha  occ. eigenvalues --   -0.45773  -0.45751  -0.45577  -0.43812  -0.43776
 Alpha virt. eigenvalues --    0.21156   0.23228   0.23479   0.24873   0.26127
 Alpha virt. eigenvalues --    0.26926   0.26960   0.27483   0.28059   0.28934
 Alpha virt. eigenvalues --    0.30574   0.31325   0.31550   0.31750   0.32249

 Mulliken charges:
               1
     1  C   -0.298239
     2  C   -0.299652
     3  C   -0.475697
     4  H    0.148832
     5  H    0.149581
     6  H    0.151969
     7  H    0.152130
     8  H    0.155236
     9  H    0.154942
    10  H    0.160392
    11  C   -0.297695
    12  C   -0.305304
    13  C   -0.475857
    14  H    0.149515
    15  H    0.149770
    16  H    0.156729
    17  H    0.151625
    18  H    0.155014
    19  H    0.155066
    20  H    0.161685
    21  C   -0.298240
    22  C   -0.299711
    23  C   -0.475703
    24  H    0.149346
    25  H    0.149598
    26  H    0.152074
    27  H    0.152010
    28  H    0.155185
    29  H    0.155121
    30  H    0.160339
    31  C   -0.298432
    32  C   -0.299927
    33  C   -0.482096
    34  H    0.149524
    35  H    0.149867
    36  H    0.151159
    37  H    0.152180
    38  H    0.155193
    39  H    0.162000
    40  H    0.160473
 Sum of Mulliken charges =  -0.00000

 Dipole moment (field-independent basis, Debye):
    X=             -0.0044    Y=             -0.0115    Z=             -0.0090  Tot=              0.0152
 Quadrupole moment (field-independent basis, Debye-Ang):
   XX=            -84.1659   YY=            -86.2571   ZZ=            -84.2850
   XY=             -1.2312   XZ=              0.2505   YZ=              0.0062

 Normal termination of Gaussian 16 at Thu May  6 05:34:54 2021.
