 Gaussian 16, Revision A.03,
 Gaussian 16:  EM64L-G16RevA.03 25-Dec-2016

 -------------
 #p 6-31g* mp2
 -------------

 ------------------------------------------------------
 Input file generated by CHIRIPA (05-May-2021 14:51:09)
 ------------------------------------------------------
 Symbolic Z-matrix:
 Charge =  0 Multiplicity = 1

                         Standard orientation:
 ---------------------------------------------------------------------
 Center     Atomic      Atomic             Coordinates (Angstroms)
 Number     Number       Type             X           Y           Z
 ---------------------------------------------------------------------
      1          6           0        3.990082   -0.419385    0.218024
      2          6           0        4.721959    0.317802   -0.903981
      3          6           0        6.119578    0.782017   -0.492932
      4          1           0        3.916272    0.239632    1.093920
      5          1           0        4.588838   -1.286676    0.528979
      6          1           0        4.121344    1.182654   -1.213673
      7          1           0        4.793866   -0.342979   -1.777373
      8          1           0        6.739722   -0.072520   -0.203469
      9          1           0        6.063378    1.461782    0.363434
     10          1           0        6.624816    1.306588   -1.309890
     11          6           0        2.591521   -0.889691   -0.177662
     12          6           0        1.859644   -1.626879    0.944343
     13          6           0        0.462026   -2.091093    0.533294
     14          1           0        1.992766   -0.022400   -0.488616
     15          1           0        2.665331   -1.548709   -1.053558
     16          1           0        1.787737   -0.966097    1.817735
     17          1           0        2.460259   -2.491731    1.254035
     18          1           0        0.518225   -2.770858   -0.323072
     19          1           0       -0.158118   -1.236557    0.243831
     20          1           0       -0.043212   -2.615664    1.350252
     21          6           0       -4.008867    0.524047   -0.245538
     22          6           0       -4.386410   -0.957645   -0.239816
     23          6           0       -5.825973   -1.202632   -0.693067
     24          1           0       -4.699312    1.074346    0.408223
     25          1           0       -4.149069    0.927081   -1.258110
     26          1           0       -4.244219   -1.358100    0.772130
     27          1           0       -3.694868   -1.504509   -0.893517
     28          1           0       -5.978051   -0.829779   -1.711130
     29          1           0       -6.530523   -0.682537   -0.036020
     30          1           0       -6.074670   -2.268406   -0.681410
     31          6           0       -2.572736    0.785029    0.205176
     32          6           0       -2.195192    2.266721    0.199454
     33          6           0       -0.755631    2.511709    0.652705
     34          1           0       -2.432534    0.381996    1.217748
     35          1           0       -1.882292    0.234730   -0.448585
     36          1           0       -2.886735    2.813586    0.853154
     37          1           0       -2.337384    2.667176   -0.812492
     38          1           0       -0.051081    1.991614   -0.004343
     39          1           0       -0.603553    2.138855    1.670768
     40          1           0       -0.506932    3.577483    0.641048
 ---------------------------------------------------------------------

 SCF Done:  E(RHF) =  -470.733131875     A.U. after   11 cycles
 E2 =    -0.1583386784D+01 EUMP2 =    -0.47231651865843D+03

 The electronic state is 1-A.
 Alpha  occ. eigenvalues --  -11.21658 -11.21587 -11.21575 -11.21532 -11.21429
 Alpha  occ. eigenvalues --  -11.21372 -11.21368 -11.21312 -11.21164 -11.21061
 Alpha  occ. eigenvalues --  -11.21048 -11.20930  -1.08466  -1.08384  -1.03564
 Alpha  occ. eigenvalues --   -1.03473  -0.96022  -0.95919  -0.87047  -0.86930
 Alpha  occ. eigenvalues --   -0.79645  -0.79530  -0.78318  -0.78164  -0.65128
 Alpha  occ. eigenvalues --   -0.64987  -0.60985  -0.60853  -0.59387  -0.59287
 Alpha  occ. eigenvalues --   -0.57671  -0.57508  -0.55371  -0.55162  -0.52715
 Alpha  occ. eigenvalues --   -0.52618  -0.52521  -0.52274  -0.50023  -0.49808
 Alpha  occ. eigenvalues --   -0.48045  -0.47809  -0.46764  -0.46569  -0.45933
 Alpha  occ. eigenvalues --   -0.45748  -0.45709  -0.45335  -0.43815  -0.43735
 Alpha virt. eigenvalues --    0.20479   0.23046   0.23745   0.25053   0.25407
 Alpha virt. eigenvalues --    0.26213   0.26747   0.27417   0.28676   0.29258
 Alpha virt. eigenvalues --    0.30823   0.31445   0.31557   0.31838   0.32123

 Mulliken charges:
               1
     1  C   -0.298158
     2  C   -0.299663
     3  C   -0.475694
     4  H    0.150053
     5  H    0.149476
     6  H    0.151875
     7  H    0.151732
     8  H    0.155110
     9  H    0.155299
    10  H    0.160126
    11  C   -0.300982
    12  C   -0.298737
    13  C   -0.483563
    14  H    0.151135
    15  H    0.149354
    16  H    0.151973
    17  H    0.151437
    18  H    0.153850
    19  H    0.164138
    20  H    0.159588
    21  C   -0.297640
    22  C   -0.299894
    23  C   -0.475739
    24  H    0.149633
    25  H    0.149413
    26  H    0.152171
    27  H    0.152765
    28  H    0.155101
    29  H    0.155054
    30  H    0.160397
    31  C   -0.303627
    32  C   -0.299201
    33  C   -0.479197
    34  H    0.150678
    35  H    0.154234
    36  H    0.152309
    37  H    0.152044
    38  H    0.156729
    39  H    0.155536
    40  H    0.160886
 Sum of Mulliken charges =  -0.00000

 Dipole moment (field-independent basis, Debye):
    X=             -0.0468    Y=              0.0251    Z=              0.0034  Tot=              0.0532
 Quadrupole moment (field-independent basis, Debye-Ang):
   XX=            -86.6351   YY=            -84.3162   ZZ=            -83.8428
   XY=             -1.0985   XZ=             -0.9023   YZ=              0.2429

 Normal termination of Gaussian 16 at Wed May  5 22:59:40 2021.
