 Gaussian 16, Revision A.03,
 Gaussian 16:  EM64L-G16RevA.03 25-Dec-2016

 -------------
 #p 6-31g* mp2
 -------------

 ------------------------------------------------------
 Input file generated by CHIRIPA (05-May-2021 14:51:11)
 ------------------------------------------------------
 Symbolic Z-matrix:
 Charge =  0 Multiplicity = 1

                         Standard orientation:
 ---------------------------------------------------------------------
 Center     Atomic      Atomic             Coordinates (Angstroms)
 Number     Number       Type             X           Y           Z
 ---------------------------------------------------------------------
      1          6           0       -2.730379   -0.196036    0.065329
      2          6           0       -3.807589   -1.252079   -0.184423
      3          6           0       -3.287456   -2.679446   -0.011574
      4          1           0       -1.891083   -0.367777   -0.622444
      5          1           0       -2.332291   -0.321645    1.081766
      6          1           0       -4.204500   -1.123637   -1.199598
      7          1           0       -4.644502   -1.077688    0.503894
      8          1           0       -2.909267   -2.831246    1.004562
      9          1           0       -2.466765   -2.877456   -0.708610
     10          1           0       -4.073881   -3.418251   -0.194774
     11          6           0       -3.235080    1.235903   -0.103657
     12          6           0       -2.157869    2.291946    0.146095
     13          6           0       -2.678003    3.719314   -0.026754
     14          1           0       -3.633168    1.361513   -1.120093
     15          1           0       -4.074376    1.407644    0.584116
     16          1           0       -1.320957    2.117555   -0.542222
     17          1           0       -1.760959    2.163505    1.161270
     18          1           0       -3.498694    3.917324    0.670282
     19          1           0       -3.056192    3.871113   -1.042890
     20          1           0       -1.891578    4.458119    0.156447
     21          6           0        3.474644   -0.037772    0.349272
     22          6           0        4.627273    0.374238   -0.567069
     23          6           0        5.602940    1.339001    0.107542
     24          1           0        2.935568    0.861684    0.676869
     25          1           0        3.884798   -0.503917    1.255847
     26          1           0        4.215018    0.838216   -1.472268
     27          1           0        5.163551   -0.526320   -0.892676
     28          1           0        6.041615    0.881648    1.000287
     29          1           0        5.087692    2.253937    0.417400
     30          1           0        6.418984    1.620468   -0.565295
     31          6           0        2.490814   -1.002096   -0.310945
     32          6           0        1.338187   -1.414105    0.605397
     33          6           0        0.362519   -2.378868   -0.069214
     34          1           0        2.080660   -0.535951   -1.217520
     35          1           0        3.029891   -1.901552   -0.638541
     36          1           0        0.801908   -0.513548    0.931003
     37          1           0        1.750442   -1.878083    1.510596
     38          1           0        0.877768   -3.293804   -0.379073
     39          1           0       -0.076156   -1.921516   -0.961960
     40          1           0       -0.453524   -2.660336    0.603623
 ---------------------------------------------------------------------

 SCF Done:  E(RHF) =  -470.730860273     A.U. after   11 cycles
 E2 =    -0.1584771718D+01 EUMP2 =    -0.47231563199137D+03

 The electronic state is 1-A.
 Alpha  occ. eigenvalues --  -11.21644 -11.21578 -11.21577 -11.21507 -11.21394
 Alpha  occ. eigenvalues --  -11.21363 -11.21319 -11.21303 -11.21103 -11.21054
 Alpha  occ. eigenvalues --  -11.20961 -11.20888  -1.08458  -1.08361  -1.03586
 Alpha  occ. eigenvalues --   -1.03427  -0.96016  -0.95897  -0.87071  -0.86895
 Alpha  occ. eigenvalues --   -0.79736  -0.79429  -0.78252  -0.78193  -0.65144
 Alpha  occ. eigenvalues --   -0.64955  -0.61043  -0.60795  -0.59591  -0.59127
 Alpha  occ. eigenvalues --   -0.57704  -0.57424  -0.55273  -0.55238  -0.52930
 Alpha  occ. eigenvalues --   -0.52656  -0.52376  -0.52105  -0.49944  -0.49916
 Alpha  occ. eigenvalues --   -0.47948  -0.47783  -0.46754  -0.46487  -0.45850
 Alpha  occ. eigenvalues --   -0.45785  -0.45614  -0.45444  -0.43786  -0.43631
 Alpha virt. eigenvalues --    0.21210   0.23254   0.23635   0.24584   0.25213
 Alpha virt. eigenvalues --    0.26165   0.27065   0.27668   0.28185   0.29494
 Alpha virt. eigenvalues --    0.30020   0.31280   0.31700   0.32163   0.32384

 Mulliken charges:
               1
     1  C   -0.302572
     2  C   -0.299113
     3  C   -0.480012
     4  H    0.154988
     5  H    0.149600
     6  H    0.151407
     7  H    0.151438
     8  H    0.153464
     9  H    0.163243
    10  H    0.159565
    11  C   -0.297834
    12  C   -0.299888
    13  C   -0.475624
    14  H    0.149304
    15  H    0.149590
    16  H    0.151107
    17  H    0.151824
    18  H    0.155439
    19  H    0.155289
    20  H    0.160167
    21  C   -0.298280
    22  C   -0.299544
    23  C   -0.475669
    24  H    0.149757
    25  H    0.149394
    26  H    0.151700
    27  H    0.151860
    28  H    0.155139
    29  H    0.155143
    30  H    0.160134
    31  C   -0.298183
    32  C   -0.302475
    33  C   -0.479049
    34  H    0.148562
    35  H    0.149483
    36  H    0.154057
    37  H    0.151266
    38  H    0.153683
    39  H    0.153169
    40  H    0.168471
 Sum of Mulliken charges =  -0.00000

 Dipole moment (field-independent basis, Debye):
    X=             -0.0308    Y=             -0.0213    Z=              0.0008  Tot=              0.0374
 Quadrupole moment (field-independent basis, Debye-Ang):
   XX=            -85.3454   YY=            -85.8286   ZZ=            -83.8207
   XY=             -0.7226   XZ=             -0.3183   YZ=             -0.3897

 Normal termination of Gaussian 16 at Thu May  6 07:03:24 2021.
