 Gaussian 16, Revision A.03,
 Gaussian 16:  EM64L-G16RevA.03 25-Dec-2016

 -------------
 #p 6-31g* mp2
 -------------

 ------------------------------------------------------
 Input file generated by CHIRIPA (05-May-2021 14:51:09)
 ------------------------------------------------------
 Symbolic Z-matrix:
 Charge =  0 Multiplicity = 1

                         Standard orientation:
 ---------------------------------------------------------------------
 Center     Atomic      Atomic             Coordinates (Angstroms)
 Number     Number       Type             X           Y           Z
 ---------------------------------------------------------------------
      1          6           0       -2.417659    1.529075    0.121699
      2          6           0       -1.350885    2.304147   -0.652408
      3          6           0       -1.389427    3.806192   -0.369271
      4          1           0       -3.409152    1.926677   -0.134814
      5          1           0       -2.279554    1.703978    1.197678
      6          1           0       -1.490110    2.126728   -1.726538
      7          1           0       -0.361830    1.904525   -0.394169
      8          1           0       -1.228130    4.001710    0.695791
      9          1           0       -2.362821    4.225176   -0.644149
     10          1           0       -0.618534    4.340885   -0.932908
     11          6           0       -2.391804    0.026151   -0.150843
     12          6           0       -3.458578   -0.748921    0.623265
     13          6           0       -3.420036   -2.250967    0.340127
     14          1           0       -2.529910   -0.148753   -1.226822
     15          1           0       -1.400311   -0.371452    0.105670
     16          1           0       -4.447633   -0.349300    0.365025
     17          1           0       -3.319353   -0.571503    1.697394
     18          1           0       -2.446642   -2.669950    0.615005
     19          1           0       -3.581333   -2.446485   -0.724935
     20          1           0       -4.190929   -2.785660    0.903764
     21          6           0        1.908152   -1.311765    0.241558
     22          6           0        1.749954   -2.457018   -0.759120
     23          6           0        0.753214   -3.517709   -0.290893
     24          1           0        2.232463   -1.720306    1.208441
     25          1           0        0.928035   -0.845265    0.412267
     26          1           0        2.730319   -2.920332   -0.928943
     27          1           0        1.426168   -2.045681   -1.723786
     28          1           0       -0.236945   -3.075783   -0.139607
     29          1           0        1.074617   -3.955402    0.659752
     30          1           0        0.655539   -4.327015   -1.021197
     31          6           0        2.901311   -0.243460   -0.212414
     32          6           0        3.059509    0.901792    0.788263
     33          6           0        4.056249    1.962485    0.320037
     34          1           0        3.881428   -0.709961   -0.383123
     35          1           0        2.577000    0.165081   -1.179297
     36          1           0        3.383295    0.490456    1.752930
     37          1           0        2.079144    1.365107    0.958087
     38          1           0        3.734846    2.400178   -0.630608
     39          1           0        5.046408    1.520559    0.168751
     40          1           0        4.153924    2.771790    1.050341
 ---------------------------------------------------------------------

 SCF Done:  E(RHF) =  -470.732733067     A.U. after   11 cycles
 E2 =    -0.1584853068D+01 EUMP2 =    -0.47231758613463D+03

 The electronic state is 1-A.
 Alpha  occ. eigenvalues --  -11.21677 -11.21640 -11.21637 -11.21594 -11.21465
 Alpha  occ. eigenvalues --  -11.21421 -11.21405 -11.21362 -11.21121 -11.21088
 Alpha  occ. eigenvalues --  -11.21084 -11.21035  -1.08512  -1.08432  -1.03599
 Alpha  occ. eigenvalues --   -1.03525  -0.96051  -0.95969  -0.87083  -0.86971
 Alpha  occ. eigenvalues --   -0.79707  -0.79552  -0.78425  -0.78164  -0.65360
 Alpha  occ. eigenvalues --   -0.64863  -0.61164  -0.60781  -0.59419  -0.59328
 Alpha  occ. eigenvalues --   -0.57748  -0.57530  -0.55505  -0.55113  -0.52720
 Alpha  occ. eigenvalues --   -0.52681  -0.52592  -0.52284  -0.50163  -0.49703
 Alpha  occ. eigenvalues --   -0.48177  -0.47782  -0.46904  -0.46488  -0.46343
 Alpha  occ. eigenvalues --   -0.45806  -0.45766  -0.45041  -0.43835  -0.43793
 Alpha virt. eigenvalues --    0.19292   0.21845   0.23678   0.25069   0.25300
 Alpha virt. eigenvalues --    0.26366   0.26875   0.27360   0.28685   0.29626
 Alpha virt. eigenvalues --    0.31175   0.31350   0.31614   0.31915   0.32286

 Mulliken charges:
               1
     1  C   -0.297555
     2  C   -0.304509
     3  C   -0.475556
     4  H    0.150225
     5  H    0.149632
     6  H    0.152122
     7  H    0.154911
     8  H    0.155393
     9  H    0.155533
    10  H    0.160451
    11  C   -0.308813
    12  C   -0.298997
    13  C   -0.481903
    14  H    0.149594
    15  H    0.158365
    16  H    0.152207
    17  H    0.152030
    18  H    0.161377
    19  H    0.155276
    20  H    0.160839
    21  C   -0.307449
    22  C   -0.298573
    23  C   -0.484200
    24  H    0.149657
    25  H    0.156448
    26  H    0.151954
    27  H    0.152421
    28  H    0.162876
    29  H    0.154714
    30  H    0.160682
    31  C   -0.297768
    32  C   -0.302905
    33  C   -0.475588
    34  H    0.149826
    35  H    0.150305
    36  H    0.152100
    37  H    0.153808
    38  H    0.155407
    39  H    0.155323
    40  H    0.160341
 Sum of Mulliken charges =  -0.00000

 Dipole moment (field-independent basis, Debye):
    X=             -0.0194    Y=              0.0031    Z=             -0.0038  Tot=              0.0200
 Quadrupole moment (field-independent basis, Debye-Ang):
   XX=            -84.2031   YY=            -86.4218   ZZ=            -83.9980
   XY=             -1.1378   XZ=              0.9740   YZ=             -0.2804

 Normal termination of Gaussian 16 at Thu May  6 06:56:57 2021.
