 Gaussian 16, Revision A.03,
 Gaussian 16:  EM64L-G16RevA.03 25-Dec-2016

 -------------
 #p 6-31g* mp2
 -------------

 ------------------------------------------------------
 Input file generated by CHIRIPA (05-May-2021 14:55:23)
 ------------------------------------------------------
 Symbolic Z-matrix:
 Charge =  0 Multiplicity = 1

                         Standard orientation:
 ---------------------------------------------------------------------
 Center     Atomic      Atomic             Coordinates (Angstroms)
 Number     Number       Type             X           Y           Z
 ---------------------------------------------------------------------
      1          6           0       -2.472184    1.945005   -0.204211
      2          6           0       -1.946635    0.659149   -0.040226
      3          6           0       -2.794941   -0.448528    0.049084
      4          6           0       -4.169931   -0.232957   -0.029793
      5          6           0       -4.723965    1.035781   -0.193012
      6          6           0       -3.856731    2.128893   -0.279946
      7          1           0       -1.805847    2.799818   -0.272666
      8          1           0       -0.871790    0.513346    0.018908
      9          1           0       -2.414916   -1.454931    0.176180
     10          1           0       -5.799778    1.149588   -0.248626
     11          1           0       -4.267693    3.126360   -0.407284
     12          7           0       -5.078014   -1.397896    0.063498
     13          8           0       -6.285706   -1.181354   -0.008807
     14          8           0       -4.564884   -2.505459    0.207159
     15          6           0        5.655379   -0.338508   -0.355794
     16          6           0        7.006596   -0.500091    0.341407
     17          6           0        8.015162   -1.284355   -0.498545
     18          1           0        5.248085   -1.332291   -0.586996
     19          1           0        5.805793    0.169361   -1.318519
     20          1           0        6.853502   -1.006269    1.303156
     21          1           0        7.410632    0.494188    0.571148
     22          1           0        8.197207   -0.779366   -1.452718
     23          1           0        7.636912   -2.288348   -0.716551
     24          1           0        8.974048   -1.388002    0.018809
     25          6           0        4.636507    0.443371    0.471426
     26          6           0        3.285290    0.604952   -0.225774
     27          6           0        2.276725    1.389216    0.614177
     28          1           0        4.486094   -0.064500    1.434150
     29          1           0        5.043802    1.437152    0.702628
     30          1           0        2.881255   -0.389326   -0.455516
     31          1           0        3.438385    1.111130   -1.187525
     32          1           0        2.654974    2.393210    0.832183
     33          1           0        2.094679    0.884227    1.568350
     34          1           0        1.317839    1.492863    0.096824
 ---------------------------------------------------------------------

 SCF Done:  E(RHF) =  -669.535499671     A.U. after   15 cycles
 E2 =    -0.2090693351D+01 EUMP2 =    -0.67162619302247D+03

 The electronic state is 1-A.
 Alpha  occ. eigenvalues --  -20.60727 -20.60721 -15.85779 -11.31135 -11.27704
 Alpha  occ. eigenvalues --  -11.27695 -11.27440 -11.26721 -11.26678 -11.22460
 Alpha  occ. eigenvalues --  -11.22233 -11.22034 -11.22002 -11.21869 -11.21393
 Alpha  occ. eigenvalues --   -1.59802  -1.39356  -1.19305  -1.09049  -1.08703
 Alpha  occ. eigenvalues --   -1.04708  -1.04193  -0.96661  -0.95540  -0.87684
 Alpha  occ. eigenvalues --   -0.86107  -0.82372  -0.80261  -0.78815  -0.77423
 Alpha  occ. eigenvalues --   -0.71998  -0.71125  -0.70416  -0.65673  -0.64959
 Alpha  occ. eigenvalues --   -0.64748  -0.62101  -0.61574  -0.60055  -0.58248
 Alpha  occ. eigenvalues --   -0.55930  -0.55209  -0.53471  -0.53113  -0.53037
 Alpha  occ. eigenvalues --   -0.52672  -0.50579  -0.48760  -0.48754  -0.48566
 Alpha  occ. eigenvalues --   -0.47273  -0.46369  -0.46263  -0.44764  -0.44439
 Alpha  occ. eigenvalues --   -0.37288  -0.36310
 Alpha virt. eigenvalues --    0.05113   0.11340   0.16609   0.19656   0.22479
 Alpha virt. eigenvalues --    0.23755   0.25948   0.26099   0.26934   0.27924
 Alpha virt. eigenvalues --    0.28454   0.30742   0.30781   0.31515   0.31549

 Mulliken charges:
               1
     1  C   -0.172668
     2  C   -0.224795
     3  C   -0.172102
     4  C    0.158968
     5  C   -0.171388
     6  C   -0.218567
     7  H    0.225379
     8  H    0.232680
     9  H    0.275772
    10  H    0.275405
    11  H    0.223218
    12  N    0.487949
    13  O   -0.460590
    14  O   -0.460565
    15  C   -0.298899
    16  C   -0.300174
    17  C   -0.476081
    18  H    0.150793
    19  H    0.150236
    20  H    0.152792
    21  H    0.152341
    22  H    0.155567
    23  H    0.156030
    24  H    0.161551
    25  C   -0.299106
    26  C   -0.299827
    27  C   -0.480427
    28  H    0.151058
    29  H    0.150865
    30  H    0.152377
    31  H    0.153937
    32  H    0.159747
    33  H    0.158765
    34  H    0.149761
 Sum of Mulliken charges =  -0.00000

 Dipole moment (field-independent basis, Debye):
    X=              3.4465    Y=              4.1050    Z=             -0.3081  Tot=              5.3688
 Quadrupole moment (field-independent basis, Debye-Ang):
   XX=           -118.2467   YY=            -94.7359   ZZ=            -95.6306
   XY=            -20.0298   XZ=              2.0513   YZ=             -1.0286

 Normal termination of Gaussian 16 at Wed May  5 23:54:54 2021.
