 Gaussian 16, Revision A.03,
 Gaussian 16:  EM64L-G16RevA.03 25-Dec-2016

 -------------
 #p 6-31g* mp2
 -------------

 ------------------------------------------------------
 Input file generated by CHIRIPA (05-May-2021 14:53:12)
 ------------------------------------------------------
 Symbolic Z-matrix:
 Charge =  0 Multiplicity = 1

                         Standard orientation:
 ---------------------------------------------------------------------
 Center     Atomic      Atomic             Coordinates (Angstroms)
 Number     Number       Type             X           Y           Z
 ---------------------------------------------------------------------
      1          6           0        4.802003    0.213287   -0.003181
      2          6           0        6.136630   -0.309864   -0.535223
      3          6           0        7.160694    0.803111   -0.759659
      4          1           0        4.396126    0.949873   -0.710041
      5          1           0        4.975912    0.748567    0.940549
      6          1           0        5.960069   -0.845189   -1.476960
      7          1           0        6.539283   -1.045432    0.172893
      8          1           0        7.366024    1.332206    0.176556
      9          1           0        6.783520    1.533586   -1.482671
     10          1           0        8.107344    0.406894   -1.140088
     11          6           0        3.767911   -0.887504    0.226255
     12          6           0        2.433284   -0.364352    0.758297
     13          6           0        1.409219   -1.477327    0.982734
     14          1           0        3.594002   -1.422784   -0.717474
     15          1           0        4.173787   -1.624089    0.933116
     16          1           0        2.030631    0.371215    0.050182
     17          1           0        2.609844    0.170973    1.700035
     18          1           0        1.786394   -2.207802    1.705746
     19          1           0        1.203889   -2.006422    0.046519
     20          1           0        0.462569   -1.081111    1.363163
     21          6           0       -4.846489   -1.727292   -0.482876
     22          6           0       -3.474506   -1.912757   -0.283413
     23          6           0       -2.634532   -0.817075   -0.063252
     24          6           0       -3.202717    0.455815   -0.048880
     25          6           0       -4.565760    0.673050   -0.244370
     26          6           0       -5.386784   -0.437254   -0.462753
     27          1           0       -5.491641   -2.584123   -0.653212
     28          1           0       -3.052141   -2.913470   -0.298516
     29          1           0       -1.568947   -0.932023    0.094025
     30          1           0       -4.957677    1.682701   -0.223782
     31          1           0       -6.451924   -0.290218   -0.617359
     32          7           0       -2.323505    1.623505    0.183254
     33          8           0       -2.848659    2.734714    0.191244
     34          8           0       -1.125872    1.405420    0.352813
 ---------------------------------------------------------------------

 SCF Done:  E(RHF) =  -669.535829118     A.U. after   15 cycles
 E2 =    -0.2091541550D+01 EUMP2 =    -0.67162737066853D+03

 The electronic state is 1-A.
 Alpha  occ. eigenvalues --  -20.60832 -20.60823 -15.85873 -11.31185 -11.27762
 Alpha  occ. eigenvalues --  -11.27705 -11.27501 -11.26772 -11.26750 -11.21266
 Alpha  occ. eigenvalues --  -11.21011 -11.20967 -11.20917 -11.20890 -11.20753
 Alpha  occ. eigenvalues --   -1.59899  -1.39454  -1.19360  -1.08768  -1.08008
 Alpha  occ. eigenvalues --   -1.04756  -1.03145  -0.95686  -0.95575  -0.86692
 Alpha  occ. eigenvalues --   -0.86153  -0.82440  -0.79201  -0.77796  -0.77495
 Alpha  occ. eigenvalues --   -0.72096  -0.71216  -0.70476  -0.65016  -0.64779
 Alpha  occ. eigenvalues --   -0.64631  -0.62141  -0.60539  -0.58983  -0.57219
 Alpha  occ. eigenvalues --   -0.55279  -0.54951  -0.53092  -0.52932  -0.52265
 Alpha  occ. eigenvalues --   -0.52060  -0.49600  -0.48847  -0.48844  -0.47513
 Alpha  occ. eigenvalues --   -0.46210  -0.45354  -0.45260  -0.44863  -0.43402
 Alpha  occ. eigenvalues --   -0.37347  -0.36357
 Alpha virt. eigenvalues --    0.05014   0.11270   0.16527   0.20939   0.23229
 Alpha virt. eigenvalues --    0.24240   0.26784   0.27176   0.27728   0.28014
 Alpha virt. eigenvalues --    0.29483   0.30856   0.31638   0.31718   0.32271

 Mulliken charges:
               1
     1  C   -0.298377
     2  C   -0.299261
     3  C   -0.475552
     4  H    0.152261
     5  H    0.150376
     6  H    0.150611
     7  H    0.150608
     8  H    0.155388
     9  H    0.155827
    10  H    0.158796
    11  C   -0.298956
    12  C   -0.298883
    13  C   -0.484940
    14  H    0.146584
    15  H    0.146792
    16  H    0.167161
    17  H    0.154545
    18  H    0.153264
    19  H    0.146465
    20  H    0.167376
    21  C   -0.170324
    22  C   -0.222150
    23  C   -0.177193
    24  C    0.155583
    25  C   -0.170086
    26  C   -0.219073
    27  H    0.225604
    28  H    0.224336
    29  H    0.289029
    30  H    0.275460
    31  H    0.223381
    32  N    0.489164
    33  O   -0.459661
    34  O   -0.464157
 Sum of Mulliken charges =  -0.00000

 Dipole moment (field-independent basis, Debye):
    X=             -3.1461    Y=             -3.9680    Z=             -0.8023  Tot=              5.1270
 Quadrupole moment (field-independent basis, Debye-Ang):
   XX=            -72.9814   YY=            -97.7767   ZZ=            -94.6952
   XY=              8.9625   XZ=              3.7724   YZ=             -0.3156

 Normal termination of Gaussian 16 at Thu May  6 15:18:25 2021.
