 Gaussian 16, Revision A.03,
 Gaussian 16:  EM64L-G16RevA.03 25-Dec-2016

 -------------
 #p 6-31g* mp2
 -------------

 ------------------------------------------------------
 Input file generated by CHIRIPA (05-May-2021 14:51:09)
 ------------------------------------------------------
 Symbolic Z-matrix:
 Charge =  0 Multiplicity = 1

                         Standard orientation:
 ---------------------------------------------------------------------
 Center     Atomic      Atomic             Coordinates (Angstroms)
 Number     Number       Type             X           Y           Z
 ---------------------------------------------------------------------
      1          6           0        3.162550   -0.632132   -0.176741
      2          6           0        2.472110   -1.502050    0.874221
      3          6           0        2.051667   -2.866961    0.328291
      4          1           0        2.486049   -0.494275   -1.031309
      5          1           0        4.045368   -1.162803   -0.559381
      6          1           0        1.591639   -0.969309    1.255764
      7          1           0        3.150260   -1.637692    1.726471
      8          1           0        2.922892   -3.421569   -0.034995
      9          1           0        1.355416   -2.749388   -0.508376
     10          1           0        1.560123   -3.472413    1.096192
     11          6           0        3.588776    0.735514    0.353923
     12          6           0        4.279216    1.605432   -0.697039
     13          6           0        4.699659    2.970343   -0.151109
     14          1           0        2.705957    1.266186    0.736564
     15          1           0        4.265277    0.597658    1.208492
     16          1           0        3.601066    1.741075   -1.549289
     17          1           0        5.159686    1.072691   -1.078582
     18          1           0        5.395910    2.852771    0.685558
     19          1           0        3.828433    3.524952    0.212177
     20          1           0        5.191203    3.575795   -0.919010
     21          6           0       -3.549349    0.576468    0.309758
     22          6           0       -4.680087    1.396024   -0.312930
     23          6           0       -5.016066    2.649589    0.495457
     24          1           0       -3.832400    0.290357    1.331994
     25          1           0       -2.654242    1.207605    0.398334
     26          1           0       -5.572385    0.763124   -0.401579
     27          1           0       -4.394391    1.680055   -1.333871
     28          1           0       -4.141657    3.303802    0.573024
     29          1           0       -5.326343    2.381662    1.510613
     30          1           0       -5.826925    3.220528    0.032429
     31          6           0       -3.201977   -0.679850   -0.486940
     32          6           0       -2.071238   -1.499407    0.135747
     33          6           0       -1.735261   -2.752972   -0.672639
     34          1           0       -4.097083   -1.310988   -0.575516
     35          1           0       -2.918925   -0.393740   -1.509177
     36          1           0       -2.356935   -1.783437    1.156688
     37          1           0       -1.178941   -0.866507    0.224396
     38          1           0       -1.424983   -2.485043   -1.687796
     39          1           0       -2.609670   -3.407185   -0.750206
     40          1           0       -0.924400   -3.323911   -0.209611
 ---------------------------------------------------------------------

 SCF Done:  E(RHF) =  -470.732784242     A.U. after   11 cycles
 E2 =    -0.1583089335D+01 EUMP2 =    -0.47231587357700D+03

 The electronic state is 1-A.
 Alpha  occ. eigenvalues --  -11.21619 -11.21618 -11.21616 -11.21602 -11.21423
 Alpha  occ. eigenvalues --  -11.21421 -11.21363 -11.21362 -11.21086 -11.21086
 Alpha  occ. eigenvalues --  -11.21028 -11.20997  -1.08459  -1.08429  -1.03585
 Alpha  occ. eigenvalues --   -1.03492  -0.96064  -0.95912  -0.87100  -0.86913
 Alpha  occ. eigenvalues --   -0.79672  -0.79534  -0.78274  -0.78238  -0.65153
 Alpha  occ. eigenvalues --   -0.65012  -0.61132  -0.60811  -0.59456  -0.59251
 Alpha  occ. eigenvalues --   -0.57615  -0.57594  -0.55410  -0.55123  -0.52862
 Alpha  occ. eigenvalues --   -0.52573  -0.52420  -0.52315  -0.50029  -0.49789
 Alpha  occ. eigenvalues --   -0.47928  -0.47908  -0.46737  -0.46519  -0.45843
 Alpha  occ. eigenvalues --   -0.45779  -0.45754  -0.45644  -0.43865  -0.43688
 Alpha virt. eigenvalues --    0.20644   0.23193   0.23529   0.25272   0.25985
 Alpha virt. eigenvalues --    0.26864   0.26983   0.27282   0.28130   0.29167
 Alpha virt. eigenvalues --    0.30250   0.30911   0.31453   0.31856   0.32402

 Mulliken charges:
               1
     1  C   -0.298631
     2  C   -0.301668
     3  C   -0.480543
     4  H    0.149412
     5  H    0.149725
     6  H    0.153859
     7  H    0.151989
     8  H    0.154977
     9  H    0.162095
    10  H    0.159449
    11  C   -0.298250
    12  C   -0.299641
    13  C   -0.475701
    14  H    0.149217
    15  H    0.149833
    16  H    0.151752
    17  H    0.152042
    18  H    0.155276
    19  H    0.155111
    20  H    0.160295
    21  C   -0.298201
    22  C   -0.299655
    23  C   -0.475703
    24  H    0.149751
    25  H    0.149015
    26  H    0.152048
    27  H    0.151896
    28  H    0.155083
    29  H    0.155238
    30  H    0.160326
    31  C   -0.298118
    32  C   -0.301851
    33  C   -0.481131
    34  H    0.149851
    35  H    0.149444
    36  H    0.152046
    37  H    0.153004
    38  H    0.153449
    39  H    0.154881
    40  H    0.168028
 Sum of Mulliken charges =  -0.00000

 Dipole moment (field-independent basis, Debye):
    X=              0.0089    Y=             -0.0195    Z=              0.0036  Tot=              0.0217
 Quadrupole moment (field-independent basis, Debye-Ang):
   XX=            -83.7730   YY=            -86.2416   ZZ=            -84.7288
   XY=             -0.0255   XZ=             -0.0829   YZ=             -1.1055

 Normal termination of Gaussian 16 at Wed May  5 15:07:47 2021.
