 Gaussian 16, Revision A.03,
 Gaussian 16:  EM64L-G16RevA.03 25-Dec-2016

 -------------
 #p 6-31g* mp2
 -------------

 ------------------------------------------------------
 Input file generated by CHIRIPA (05-May-2021 14:53:18)
 ------------------------------------------------------
 Symbolic Z-matrix:
 Charge =  0 Multiplicity = 1

                         Standard orientation:
 ---------------------------------------------------------------------
 Center     Atomic      Atomic             Coordinates (Angstroms)
 Number     Number       Type             X           Y           Z
 ---------------------------------------------------------------------
      1          6           0       -3.222202   -0.194575   -0.209562
      2          6           0       -4.601350   -0.801207   -0.470202
      3          6           0       -4.546954   -2.309341   -0.715894
      4          1           0       -2.568326   -0.404470   -1.067079
      5          1           0       -2.768523   -0.692327    0.658662
      6          1           0       -5.052870   -0.301507   -1.336831
      7          1           0       -5.252076   -0.589678    0.387951
      8          1           0       -4.120376   -2.825611    0.150188
      9          1           0       -3.920039   -2.535803   -1.584394
     10          1           0       -5.543657   -2.722312   -0.900007
     11          6           0       -3.260172    1.312435    0.037839
     12          6           0       -1.881024    1.919067    0.298479
     13          6           0       -1.935420    3.427202    0.544170
     14          1           0       -3.713851    1.810187   -0.830386
     15          1           0       -3.914048    1.522330    0.895355
     16          1           0       -1.230298    1.707538   -0.559675
     17          1           0       -1.429504    1.419367    1.165108
     18          1           0       -2.562335    3.653664    1.412671
     19          1           0       -2.361998    3.943471   -0.321912
     20          1           0       -0.938717    3.840172    0.728283
     21          6           0        0.578146   -1.413023    1.329778
     22          6           0        1.765731   -1.109458    2.003582
     23          6           0        2.854826   -0.568148    1.314088
     24          6           0        2.721085   -0.342273   -0.054994
     25          6           0        1.551114   -0.634167   -0.754460
     26          6           0        0.474810   -1.174829   -0.044669
     27          1           0       -0.262921   -1.833275    1.873277
     28          1           0        1.848830   -1.293384    3.070968
     29          1           0        3.785904   -0.323822    1.810896
     30          1           0        1.498277   -0.439666   -1.818789
     31          1           0       -0.446258   -1.409606   -0.570557
     32          7           0        3.867291    0.230445   -0.795673
     33          8           0        3.724137    0.420024   -2.001577
     34          8           0        4.887138    0.478917   -0.156291
 ---------------------------------------------------------------------

 SCF Done:  E(RHF) =  -669.534907034     A.U. after   15 cycles
 E2 =    -0.2093297166D+01 EUMP2 =    -0.67162820419991D+03

 The electronic state is 1-A.
 Alpha  occ. eigenvalues --  -20.60732 -20.60727 -15.85783 -11.31140 -11.27690
 Alpha  occ. eigenvalues --  -11.27669 -11.27423 -11.26733 -11.26631 -11.22490
 Alpha  occ. eigenvalues --  -11.22426 -11.22102 -11.22041 -11.21951 -11.21410
 Alpha  occ. eigenvalues --   -1.59807  -1.39361  -1.19299  -1.09239  -1.08694
 Alpha  occ. eigenvalues --   -1.04697  -1.04205  -0.96687  -0.95538  -0.87695
 Alpha  occ. eigenvalues --   -0.86102  -0.82373  -0.80300  -0.79092  -0.77399
 Alpha  occ. eigenvalues --   -0.72002  -0.71129  -0.70415  -0.65872  -0.64947
 Alpha  occ. eigenvalues --   -0.64705  -0.62059  -0.61593  -0.60059  -0.58283
 Alpha  occ. eigenvalues --   -0.55995  -0.55201  -0.53370  -0.53178  -0.52994
 Alpha  occ. eigenvalues --   -0.52731  -0.50625  -0.48779  -0.48759  -0.48577
 Alpha  occ. eigenvalues --   -0.47346  -0.46532  -0.46498  -0.44769  -0.44502
 Alpha  occ. eigenvalues --   -0.37253  -0.36255
 Alpha virt. eigenvalues --    0.05071   0.11300   0.16478   0.19928   0.22768
 Alpha virt. eigenvalues --    0.23588   0.24230   0.25772   0.27288   0.28522
 Alpha virt. eigenvalues --    0.29624   0.30093   0.31094   0.31186   0.31604

 Mulliken charges:
               1
     1  C   -0.301370
     2  C   -0.299392
     3  C   -0.476933
     4  H    0.145278
     5  H    0.142281
     6  H    0.155976
     7  H    0.154733
     8  H    0.151748
     9  H    0.154013
    10  H    0.165124
    11  C   -0.298403
    12  C   -0.300513
    13  C   -0.476643
    14  H    0.152627
    15  H    0.151321
    16  H    0.152096
    17  H    0.152035
    18  H    0.154705
    19  H    0.156522
    20  H    0.164016
    21  C   -0.174952
    22  C   -0.218524
    23  C   -0.171601
    24  C    0.159092
    25  C   -0.174153
    26  C   -0.215326
    27  H    0.225268
    28  H    0.223026
    29  H    0.275241
    30  H    0.274741
    31  H    0.231166
    32  N    0.488034
    33  O   -0.460645
    34  O   -0.460586
 Sum of Mulliken charges =  -0.00000

 Dipole moment (field-independent basis, Debye):
    X=             -4.1937    Y=             -1.9272    Z=              2.5943  Tot=              5.2945
 Quadrupole moment (field-independent basis, Debye-Ang):
   XX=           -115.2853   YY=            -95.1374   ZZ=            -90.7144
   XY=             -4.2317   XZ=              9.9687   YZ=             -1.0397

 Normal termination of Gaussian 16 at Thu May  6 04:26:43 2021.
