 Gaussian 16, Revision A.03,
 Gaussian 16:  EM64L-G16RevA.03 25-Dec-2016

 -------------
 #p 6-31g* mp2
 -------------

 ------------------------------------------------------
 Input file generated by CHIRIPA (05-May-2021 14:57:23)
 ------------------------------------------------------
 Symbolic Z-matrix:
 Charge =  0 Multiplicity = 1

                         Standard orientation:
 ---------------------------------------------------------------------
 Center     Atomic      Atomic             Coordinates (Angstroms)
 Number     Number       Type             X           Y           Z
 ---------------------------------------------------------------------
      1          6           0        0.981845   -2.218256    1.330740
      2          6           0        1.832816   -1.378776    2.057131
      3          6           0        2.631246   -0.437277    1.400902
      4          6           0        2.553250   -0.362043    0.011101
      5          6           0        1.715391   -1.184392   -0.740580
      6          6           0        0.925947   -2.118561   -0.063339
      7          1           0        0.365096   -2.946788    1.848676
      8          1           0        1.878290   -1.453973    3.139869
      9          1           0        3.298849    0.225013    1.938578
     10          1           0        1.691797   -1.085951   -1.819084
     11          1           0        0.265996   -2.769213   -0.630050
     12          7           0        3.393755    0.630800   -0.694742
     13          8           0        3.306689    0.677256   -1.919853
     14          8           0        4.123695    1.343734   -0.009504
     15          6           0       -1.135034    2.600117    0.524492
     16          6           0       -2.369955    2.323322    1.120205
     17          6           0       -3.087732    1.176865    0.766679
     18          6           0       -2.538440    0.325126   -0.190458
     19          6           0       -1.310522    0.573473   -0.801875
     20          6           0       -0.610184    1.725852   -0.432959
     21          1           0       -0.584220    3.493012    0.805097
     22          1           0       -2.780000    3.000502    1.864069
     23          1           0       -4.045942    0.938375    1.212070
     24          1           0       -0.927471   -0.120397   -1.540275
     25          1           0        0.348645    1.938277   -0.897252
     26          7           0       -3.289088   -0.891711   -0.572867
     27          8           0       -2.783463   -1.626202   -1.418741
     28          8           0       -4.368855   -1.087935   -0.019483
 ---------------------------------------------------------------------

 SCF Done:  E(RHF) =  -868.338150256     A.U. after   16 cycles
 E2 =    -0.2603715878D+01 EUMP2 =    -0.87094186613419D+03

 The electronic state is 1-A.
 Alpha  occ. eigenvalues --  -20.61493 -20.61487 -20.61278 -20.61242 -15.86514
 Alpha  occ. eigenvalues --  -15.86295 -11.31662 -11.31372 -11.28180 -11.28149
 Alpha  occ. eigenvalues --  -11.27939 -11.27923 -11.27767 -11.27582 -11.27137
 Alpha  occ. eigenvalues --  -11.26988 -11.26874 -11.26785  -1.60576  -1.60334
 Alpha  occ. eigenvalues --   -1.40130  -1.39898  -1.19808  -1.19520  -1.09210
 Alpha  occ. eigenvalues --   -1.08966  -1.05201  -1.04852  -0.96094  -0.95851
 Alpha  occ. eigenvalues --   -0.86546  -0.86308  -0.82918  -0.82701  -0.78061
 Alpha  occ. eigenvalues --   -0.77756  -0.72724  -0.72523  -0.71928  -0.71653
 Alpha  occ. eigenvalues --   -0.70888  -0.70621  -0.65440  -0.65212  -0.65059
 Alpha  occ. eigenvalues --   -0.64874  -0.62585  -0.62177  -0.55591  -0.55398
 Alpha  occ. eigenvalues --   -0.53892  -0.53195  -0.52996  -0.52808  -0.49509
 Alpha  occ. eigenvalues --   -0.49466  -0.49289  -0.49243  -0.45566  -0.45363
 Alpha  occ. eigenvalues --   -0.37916  -0.37483  -0.37007  -0.35954
 Alpha virt. eigenvalues --    0.04305   0.04850   0.10658   0.11289   0.16013
 Alpha virt. eigenvalues --    0.16282   0.20456   0.21795   0.25745   0.27300
 Alpha virt. eigenvalues --    0.27963   0.29106   0.30469   0.31331   0.32231

 Mulliken charges:
               1
     1  C   -0.170908
     2  C   -0.216644
     3  C   -0.172687
     4  C    0.159019
     5  C   -0.186022
     6  C   -0.219101
     7  H    0.231326
     8  H    0.224797
     9  H    0.274689
    10  H    0.274682
    11  H    0.241035
    12  N    0.485351
    13  O   -0.462106
    14  O   -0.458967
    15  C   -0.170934
    16  C   -0.219650
    17  C   -0.172082
    18  C    0.155003
    19  C   -0.162443
    20  C   -0.221538
    21  H    0.229357
    22  H    0.223417
    23  H    0.274365
    24  H    0.267932
    25  H    0.230700
    26  N    0.488689
    27  O   -0.468416
    28  O   -0.458864
 Sum of Mulliken charges =  -0.00000

 Dipole moment (field-independent basis, Debye):
    X=             -0.2805    Y=              0.6944    Z=              4.0009  Tot=              4.0704
 Quadrupole moment (field-independent basis, Debye-Ang):
   XX=           -131.5798   YY=            -99.2480   ZZ=           -100.0111
   XY=            -18.5153   XZ=              1.6757   YZ=              0.9539

 Normal termination of Gaussian 16 at Thu May  6 06:38:29 2021.
