 Gaussian 16, Revision A.03,
 Gaussian 16:  EM64L-G16RevA.03 25-Dec-2016

 -------------
 #p 6-31g* mp2
 -------------

 ------------------------------------------------------
 Input file generated by CHIRIPA (05-May-2021 14:53:13)
 ------------------------------------------------------
 Symbolic Z-matrix:
 Charge =  0 Multiplicity = 1

                         Standard orientation:
 ---------------------------------------------------------------------
 Center     Atomic      Atomic             Coordinates (Angstroms)
 Number     Number       Type             X           Y           Z
 ---------------------------------------------------------------------
      1          6           0        3.080742   -0.615991   -0.555121
      2          6           0        1.915392   -1.093072    0.312255
      3          6           0        0.646032   -1.359256   -0.497476
      4          1           0        2.783970    0.299055   -1.085746
      5          1           0        3.288064   -1.371059   -1.326019
      6          1           0        1.711231   -0.337960    1.082150
      7          1           0        2.215038   -2.006982    0.841024
      8          1           0        0.826709   -2.128478   -1.255272
      9          1           0        0.320039   -0.449972   -1.012775
     10          1           0       -0.174320   -1.699308    0.142248
     11          6           0        4.356813   -0.345679    0.240053
     12          6           0        5.522162    0.131402   -0.627322
     13          6           0        6.791523    0.397585    0.182409
     14          1           0        4.149491    0.409389    1.010952
     15          1           0        4.653584   -1.260725    0.770678
     16          1           0        5.222516    1.045312   -1.156091
     17          1           0        5.726324   -0.623711   -1.397218
     18          1           0        7.117516   -0.511698    0.697708
     19          1           0        6.610846    1.166807    0.940204
     20          1           0        7.611875    0.737637   -0.457316
     21          6           0       -4.857216   -1.156447   -0.333655
     22          6           0       -4.059392   -1.357340    0.797558
     23          6           0       -2.975323   -0.514630    1.060577
     24          6           0       -2.716590    0.523770    0.167228
     25          6           0       -3.492971    0.749691   -0.968326
     26          6           0       -4.571962   -0.105425   -1.211438
     27          1           0       -5.697374   -1.815903   -0.530242
     28          1           0       -4.278568   -2.172768    1.480994
     29          1           0       -2.341341   -0.647421    1.928823
     30          1           0       -3.249660    1.571086   -1.631296
     31          1           0       -5.189850    0.052975   -2.090738
     32          7           0       -1.571623    1.422477    0.435137
     33          8           0       -1.364639    2.330102   -0.367366
     34          8           0       -0.902861    1.202241    1.442556
 ---------------------------------------------------------------------

 SCF Done:  E(RHF) =  -669.536012079     A.U. after   15 cycles
 E2 =    -0.2092960494D+01 EUMP2 =    -0.67162897257323D+03

 The electronic state is 1-A.
 Alpha  occ. eigenvalues --  -20.60929 -20.60920 -15.85932 -11.31233 -11.27799
 Alpha  occ. eigenvalues --  -11.27796 -11.27536 -11.26815 -11.26804 -11.21000
 Alpha  occ. eigenvalues --  -11.20716 -11.20681 -11.20583 -11.20550 -11.20528
 Alpha  occ. eigenvalues --   -1.59975  -1.39533  -1.19407  -1.08815  -1.07708
 Alpha  occ. eigenvalues --   -1.04807  -1.02865  -0.95665  -0.95360  -0.86400
 Alpha  occ. eigenvalues --   -0.86198  -0.82502  -0.78935  -0.77564  -0.77505
 Alpha  occ. eigenvalues --   -0.72173  -0.71309  -0.70524  -0.65069  -0.64814
 Alpha  occ. eigenvalues --   -0.64313  -0.62161  -0.60233  -0.58736  -0.56969
 Alpha  occ. eigenvalues --   -0.55314  -0.54641  -0.53182  -0.52902  -0.52035
 Alpha  occ. eigenvalues --   -0.51789  -0.49298  -0.48934  -0.48929  -0.47255
 Alpha  occ. eigenvalues --   -0.45948  -0.45090  -0.45066  -0.44760  -0.43130
 Alpha  occ. eigenvalues --   -0.37356  -0.36390
 Alpha virt. eigenvalues --    0.04941   0.11176   0.16432   0.21299   0.23578
 Alpha virt. eigenvalues --    0.24735   0.27150   0.27346   0.27976   0.28269
 Alpha virt. eigenvalues --    0.28738   0.30954   0.31396   0.32019   0.32490

 Mulliken charges:
               1
     1  C   -0.298947
     2  C   -0.303757
     3  C   -0.477900
     4  H    0.154760
     5  H    0.144587
     6  H    0.171825
     7  H    0.145494
     8  H    0.150464
     9  H    0.155661
    10  H    0.153917
    11  C   -0.298609
    12  C   -0.299411
    13  C   -0.475466
    14  H    0.153745
    15  H    0.146615
    16  H    0.153357
    17  H    0.149573
    18  H    0.153532
    19  H    0.156125
    20  H    0.158487
    21  C   -0.170460
    22  C   -0.219110
    23  C   -0.171067
    24  C    0.160776
    25  C   -0.171201
    26  C   -0.218273
    27  H    0.225807
    28  H    0.223690
    29  H    0.275606
    30  H    0.275598
    31  H    0.223652
    32  N    0.490185
    33  O   -0.459995
    34  O   -0.459259
 Sum of Mulliken charges =  -0.00000

 Dipole moment (field-independent basis, Debye):
    X=             -4.1816    Y=             -3.0023    Z=             -0.8668  Tot=              5.2203
 Quadrupole moment (field-independent basis, Debye-Ang):
   XX=            -74.5725   YY=            -96.7146   ZZ=            -92.0968
   XY=              5.8897   XZ=              2.7110   YZ=             -3.5701

 Normal termination of Gaussian 16 at Thu May  6 05:46:31 2021.
