 Gaussian 16, Revision A.03,
 Gaussian 16:  EM64L-G16RevA.03 25-Dec-2016

 -------------
 #p 6-31g* mp2
 -------------

 ------------------------------------------------------
 Input file generated by CHIRIPA (05-May-2021 14:51:10)
 ------------------------------------------------------
 Symbolic Z-matrix:
 Charge =  0 Multiplicity = 1

                         Standard orientation:
 ---------------------------------------------------------------------
 Center     Atomic      Atomic             Coordinates (Angstroms)
 Number     Number       Type             X           Y           Z
 ---------------------------------------------------------------------
      1          6           0        3.137003   -0.003925   -0.642882
      2          6           0        2.778635   -1.458869   -0.338419
      3          6           0        3.409295   -2.441949   -1.325139
      4          1           0        2.813478    0.240794   -1.663856
      5          1           0        4.229923    0.108469   -0.625928
      6          1           0        1.686662   -1.568186   -0.354578
      7          1           0        3.102879   -1.700096    0.682018
      8          1           0        4.500981   -2.362138   -1.303854
      9          1           0        3.076718   -2.229479   -2.346339
     10          1           0        3.140068   -3.476153   -1.088921
     11          6           0        2.513971    0.990813    0.334899
     12          6           0        2.872338    2.445756    0.030437
     13          6           0        2.241678    3.428837    1.017156
     14          1           0        1.421051    0.878418    0.317946
     15          1           0        2.837496    0.746094    1.355874
     16          1           0        2.548095    2.686984   -0.990000
     17          1           0        3.964311    2.555074    0.046596
     18          1           0        2.574255    3.216367    2.038357
     19          1           0        1.149992    3.349026    0.995871
     20          1           0        2.510905    4.463041    0.780939
     21          6           0       -3.041704   -0.023112   -0.407676
     22          6           0       -4.368714    0.683754   -0.129530
     23          6           0       -4.787913    1.621261   -1.262292
     24          1           0       -2.259131    0.730589   -0.570338
     25          1           0       -3.126680   -0.592479   -1.343622
     26          1           0       -4.281702    1.250506    0.806333
     27          1           0       -5.148180   -0.071718    0.032678
     28          1           0       -4.902390    1.066416   -2.199118
     29          1           0       -4.030989    2.396153   -1.421068
     30          1           0       -5.739107    2.116080   -1.042650
     31          6           0       -2.609270   -0.963776    0.715658
     32          6           0       -1.282259   -1.670642    0.437512
     33          6           0       -0.863061   -2.608149    1.570274
     34          1           0       -2.524294   -0.394408    1.651605
     35          1           0       -3.391843   -1.717477    0.878320
     36          1           0       -0.502794   -0.915170    0.275304
     37          1           0       -1.369271   -2.237394   -0.498350
     38          1           0       -1.619984   -3.383041    1.729050
     39          1           0       -0.748584   -2.053304    2.507100
     40          1           0        0.088134   -3.102968    1.350633
 ---------------------------------------------------------------------

 SCF Done:  E(RHF) =  -470.732868612     A.U. after   11 cycles
 E2 =    -0.1583841187D+01 EUMP2 =    -0.47231670979883D+03

 The electronic state is 1-A.
 Alpha  occ. eigenvalues --  -11.21634 -11.21630 -11.21618 -11.21532 -11.21440
 Alpha  occ. eigenvalues --  -11.21431 -11.21378 -11.21359 -11.21111 -11.21096
 Alpha  occ. eigenvalues --  -11.21058 -11.21052  -1.08485  -1.08423  -1.03585
 Alpha  occ. eigenvalues --   -1.03507  -0.96007  -0.95983  -0.87017  -0.87002
 Alpha  occ. eigenvalues --   -0.79682  -0.79562  -0.78392  -0.78151  -0.65226
 Alpha  occ. eigenvalues --   -0.64964  -0.61030  -0.60879  -0.59492  -0.59243
 Alpha  occ. eigenvalues --   -0.57691  -0.57519  -0.55289  -0.55276  -0.52712
 Alpha  occ. eigenvalues --   -0.52660  -0.52445  -0.52393  -0.49947  -0.49931
 Alpha  occ. eigenvalues --   -0.48004  -0.47895  -0.46846  -0.46587  -0.46103
 Alpha  occ. eigenvalues --   -0.45779  -0.45761  -0.45190  -0.43806  -0.43790
 Alpha virt. eigenvalues --    0.20800   0.23045   0.23516   0.24419   0.25409
 Alpha virt. eigenvalues --    0.26786   0.26863   0.27249   0.28153   0.29541
 Alpha virt. eigenvalues --    0.30739   0.31184   0.31533   0.31786   0.32311

 Mulliken charges:
               1
     1  C   -0.297719
     2  C   -0.309854
     3  C   -0.475269
     4  H    0.149428
     5  H    0.149548
     6  H    0.164041
     7  H    0.151456
     8  H    0.155004
     9  H    0.155080
    10  H    0.159778
    11  C   -0.303065
    12  C   -0.299503
    13  C   -0.475616
    14  H    0.152607
    15  H    0.149917
    16  H    0.152034
    17  H    0.152323
    18  H    0.155307
    19  H    0.154530
    20  H    0.160488
    21  C   -0.298320
    22  C   -0.299683
    23  C   -0.475723
    24  H    0.148575
    25  H    0.149601
    26  H    0.152089
    27  H    0.152158
    28  H    0.155195
    29  H    0.155085
    30  H    0.160431
    31  C   -0.297371
    32  C   -0.308245
    33  C   -0.477183
    34  H    0.149735
    35  H    0.149846
    36  H    0.158500
    37  H    0.151587
    38  H    0.155142
    39  H    0.155440
    40  H    0.162627
 Sum of Mulliken charges =  -0.00000

 Dipole moment (field-independent basis, Debye):
    X=             -0.0089    Y=             -0.0047    Z=              0.0076  Tot=              0.0126
 Quadrupole moment (field-independent basis, Debye-Ang):
   XX=            -84.2303   YY=            -85.4040   ZZ=            -85.1523
   XY=              1.0086   XZ=              0.6745   YZ=              0.2878

 Normal termination of Gaussian 16 at Wed May  5 19:48:38 2021.
