 Gaussian 16, Revision A.03,
 Gaussian 16:  EM64L-G16RevA.03 25-Dec-2016

 -------------
 #p 6-31g* mp2
 -------------

 ------------------------------------------------------
 Input file generated by CHIRIPA (05-May-2021 14:55:22)
 ------------------------------------------------------
 Symbolic Z-matrix:
 Charge =  0 Multiplicity = 1

                         Standard orientation:
 ---------------------------------------------------------------------
 Center     Atomic      Atomic             Coordinates (Angstroms)
 Number     Number       Type             X           Y           Z
 ---------------------------------------------------------------------
      1          6           0       -2.968496    2.796057    0.102671
      2          6           0       -1.771363    2.076017    0.032417
      3          6           0       -1.785842    0.680137   -0.044116
      4          6           0       -3.020893    0.033669   -0.048177
      5          6           0       -4.230608    0.722970    0.020705
      6          6           0       -4.192140    2.118430    0.096602
      7          1           0       -2.947931    3.880247    0.161876
      8          1           0       -0.819593    2.599620    0.036946
      9          1           0       -0.874045    0.097919   -0.099487
     10          1           0       -5.163879    0.173078    0.014255
     11          1           0       -5.123420    2.675024    0.151059
     12          7           0       -3.048919   -1.443865   -0.128862
     13          8           0       -4.150087   -1.989816   -0.130806
     14          8           0       -1.969188   -2.028026   -0.188630
     15          6           0        3.207465   -0.668561    0.285678
     16          6           0        3.050539   -2.133136   -0.124659
     17          6           0        1.738492   -2.746882    0.364875
     18          1           0        3.151595   -0.593059    1.380267
     19          1           0        2.360961   -0.091141   -0.111075
     20          1           0        3.897808   -2.707370    0.271580
     21          1           0        3.106981   -2.205183   -1.218386
     22          1           0        0.881874   -2.199313   -0.041295
     23          1           0        1.677195   -2.704353    1.457136
     24          1           0        1.646969   -3.794174    0.060467
     25          6           0        4.514196   -0.041031   -0.196388
     26          6           0        4.671123    1.423545    0.213949
     27          6           0        5.983170    2.037291   -0.275584
     28          1           0        5.360700   -0.618450    0.200365
     29          1           0        4.570067   -0.116533   -1.290976
     30          1           0        4.614681    1.495593    1.307677
     31          1           0        3.823853    1.997779   -0.182290
     32          1           0        6.044466    1.994762   -1.367846
     33          1           0        6.839788    1.489722    0.130587
     34          1           0        6.074692    3.084582    0.028824
 ---------------------------------------------------------------------

 SCF Done:  E(RHF) =  -669.535807533     A.U. after   15 cycles
 E2 =    -0.2091378699D+01 EUMP2 =    -0.67162718623244D+03

 The electronic state is 1-A.
 Alpha  occ. eigenvalues --  -20.60837 -20.60832 -15.85881 -11.31227 -11.27797
 Alpha  occ. eigenvalues --  -11.27792 -11.27535 -11.26808 -11.26797 -11.21826
 Alpha  occ. eigenvalues --  -11.21488 -11.21428 -11.21265 -11.21260 -11.20301
 Alpha  occ. eigenvalues --   -1.59906  -1.39462  -1.19399  -1.08798  -1.08436
 Alpha  occ. eigenvalues --   -1.04799  -1.03416  -0.95838  -0.95632  -0.86843
 Alpha  occ. eigenvalues --   -0.86199  -0.82471  -0.79496  -0.78254  -0.77513
 Alpha  occ. eigenvalues --   -0.72107  -0.71223  -0.70510  -0.65086  -0.65047
 Alpha  occ. eigenvalues --   -0.64801  -0.62154  -0.60805  -0.59257  -0.57448
 Alpha  occ. eigenvalues --   -0.55303  -0.55111  -0.53129  -0.52895  -0.52487
 Alpha  occ. eigenvalues --   -0.52254  -0.49800  -0.48857  -0.48847  -0.47773
 Alpha  occ. eigenvalues --   -0.46537  -0.45764  -0.45702  -0.44867  -0.43689
 Alpha  occ. eigenvalues --   -0.37380  -0.36401
 Alpha virt. eigenvalues --    0.05017   0.11252   0.16513   0.19855   0.22847
 Alpha virt. eigenvalues --    0.23669   0.25528   0.27109   0.27452   0.28109
 Alpha virt. eigenvalues --    0.29380   0.30203   0.31530   0.31815   0.32244

 Mulliken charges:
               1
     1  C   -0.170457
     2  C   -0.220190
     3  C   -0.172485
     4  C    0.157073
     5  C   -0.170480
     6  C   -0.218806
     7  H    0.225795
     8  H    0.224107
     9  H    0.280381
    10  H    0.275677
    11  H    0.223589
    12  N    0.493053
    13  O   -0.459776
    14  O   -0.466000
    15  C   -0.296302
    16  C   -0.300877
    17  C   -0.482900
    18  H    0.149714
    19  H    0.138887
    20  H    0.150892
    21  H    0.151514
    22  H    0.172647
    23  H    0.152112
    24  H    0.163876
    25  C   -0.298007
    26  C   -0.298622
    27  C   -0.475600
    28  H    0.151389
    29  H    0.150219
    30  H    0.151845
    31  H    0.146306
    32  H    0.155593
    33  H    0.156610
    34  H    0.159220
 Sum of Mulliken charges =  -0.00000

 Dipole moment (field-independent basis, Debye):
    X=              0.0056    Y=              5.1002    Z=              0.2788  Tot=              5.1078
 Quadrupole moment (field-independent basis, Debye-Ang):
   XX=            -90.9274   YY=            -94.9969   ZZ=            -95.0788
   XY=            -16.7916   XZ=             -0.3987   YZ=             -0.2755

 Normal termination of Gaussian 16 at Wed May  5 19:01:12 2021.
