 Gaussian 16, Revision A.03,
 Gaussian 16:  EM64L-G16RevA.03 25-Dec-2016

 -------------
 #p 6-31g* mp2
 -------------

 ------------------------------------------------------
 Input file generated by CHIRIPA (05-May-2021 14:55:24)
 ------------------------------------------------------
 Symbolic Z-matrix:
 Charge =  0 Multiplicity = 1

                         Standard orientation:
 ---------------------------------------------------------------------
 Center     Atomic      Atomic             Coordinates (Angstroms)
 Number     Number       Type             X           Y           Z
 ---------------------------------------------------------------------
      1          6           0       -2.263813   -2.474072   -0.515488
      2          6           0       -1.564580   -1.629385   -1.383877
      3          6           0       -1.705753   -0.241567   -1.291260
      4          6           0       -2.558406    0.269824   -0.314144
      5          6           0       -3.268605   -0.545614    0.565610
      6          6           0       -3.112098   -1.930449    0.454773
      7          1           0       -2.148190   -3.551004   -0.594513
      8          1           0       -0.905099   -2.048773   -2.138359
      9          1           0       -1.176376    0.435432   -1.950692
     10          1           0       -3.918715   -0.098081    1.307559
     11          1           0       -3.656383   -2.584026    1.130521
     12          7           0       -2.715976    1.737466   -0.206450
     13          8           0       -3.473322    2.163124    0.662963
     14          8           0       -2.079150    2.434355   -0.993492
     15          6           0        3.740625   -0.120178   -0.147189
     16          6           0        5.138819    0.401288    0.186143
     17          6           0        6.126061    0.225399   -0.968072
     18          1           0        3.807146   -1.183345   -0.415882
     19          1           0        3.363741    0.403952   -1.036369
     20          1           0        5.512391   -0.122686    1.075249
     21          1           0        5.068935    1.463290    0.454259
     22          1           0        5.779364    0.762586   -1.856797
     23          1           0        6.225340   -0.832401   -1.232278
     24          1           0        7.119221    0.604838   -0.708229
     25          6           0        2.742411    0.048655    0.996837
     26          6           0        1.344217   -0.472811    0.663505
     27          6           0        0.356976   -0.296921    1.817720
     28          1           0        3.119296   -0.475474    1.886017
     29          1           0        2.675890    1.111822    1.265529
     30          1           0        1.414101   -1.534812    0.395389
     31          1           0        0.970645    0.051163   -0.225601
     32          1           0        0.257696    0.760879    2.081926
     33          1           0        0.703672   -0.834108    2.706445
     34          1           0       -0.636184   -0.676362    1.557877
 ---------------------------------------------------------------------

 SCF Done:  E(RHF) =  -669.533224004     A.U. after   15 cycles
 E2 =    -0.2095938519D+01 EUMP2 =    -0.67162916252279D+03

 The electronic state is 1-A.
 Alpha  occ. eigenvalues --  -20.60817 -20.60810 -15.85870 -11.31229 -11.27826
 Alpha  occ. eigenvalues --  -11.27806 -11.27608 -11.26868 -11.26853 -11.21634
 Alpha  occ. eigenvalues --  -11.21619 -11.21461 -11.21337 -11.21125 -11.20861
 Alpha  occ. eigenvalues --   -1.59891  -1.39444  -1.19477  -1.08841  -1.08455
 Alpha  occ. eigenvalues --   -1.04874  -1.03535  -0.95992  -0.95659  -0.87001
 Alpha  occ. eigenvalues --   -0.86252  -0.82501  -0.79624  -0.78295  -0.77532
 Alpha  occ. eigenvalues --   -0.72091  -0.71224  -0.70562  -0.65117  -0.65084
 Alpha  occ. eigenvalues --   -0.64846  -0.62210  -0.60946  -0.59531  -0.57781
 Alpha  occ. eigenvalues --   -0.55364  -0.55274  -0.53667  -0.52944  -0.52502
 Alpha  occ. eigenvalues --   -0.51689  -0.49921  -0.48850  -0.48844  -0.47948
 Alpha  occ. eigenvalues --   -0.46663  -0.45836  -0.45757  -0.44843  -0.43803
 Alpha  occ. eigenvalues --   -0.37429  -0.36359
 Alpha virt. eigenvalues --    0.04975   0.11112   0.16458   0.21117   0.22881
 Alpha virt. eigenvalues --    0.24366   0.26156   0.26771   0.27900   0.28038
 Alpha virt. eigenvalues --    0.28502   0.30629   0.31391   0.31861   0.32419

 Mulliken charges:
               1
     1  C   -0.171778
     2  C   -0.212763
     3  C   -0.171227
     4  C    0.163831
     5  C   -0.177240
     6  C   -0.217208
     7  H    0.226351
     8  H    0.224610
     9  H    0.275560
    10  H    0.276205
    11  H    0.224360
    12  N    0.488398
    13  O   -0.460113
    14  O   -0.461196
    15  C   -0.298003
    16  C   -0.299675
    17  C   -0.475762
    18  H    0.146168
    19  H    0.148759
    20  H    0.151749
    21  H    0.154157
    22  H    0.155425
    23  H    0.153661
    24  H    0.160888
    25  C   -0.298673
    26  C   -0.296052
    27  C   -0.486296
    28  H    0.148625
    29  H    0.153560
    30  H    0.144769
    31  H    0.149012
    32  H    0.158500
    33  H    0.152478
    34  H    0.168922
 Sum of Mulliken charges =  -0.00000

 Dipole moment (field-independent basis, Debye):
    X=              0.4331    Y=             -5.1504    Z=             -0.4109  Tot=              5.1848
 Quadrupole moment (field-independent basis, Debye-Ang):
   XX=            -96.7068   YY=            -97.2051   ZZ=            -92.4954
   XY=             14.0841   XZ=             -1.3083   YZ=              0.7435

 Normal termination of Gaussian 16 at Wed May  5 17:35:47 2021.
