 Gaussian 16, Revision A.03,
 Gaussian 16:  EM64L-G16RevA.03 25-Dec-2016

 -------------
 #p 6-31g* mp2
 -------------

 ------------------------------------------------------
 Input file generated by CHIRIPA (05-May-2021 14:53:15)
 ------------------------------------------------------
 Symbolic Z-matrix:
 Charge =  0 Multiplicity = 1

                         Standard orientation:
 ---------------------------------------------------------------------
 Center     Atomic      Atomic             Coordinates (Angstroms)
 Number     Number       Type             X           Y           Z
 ---------------------------------------------------------------------
      1          6           0        3.243169    1.079961    0.004613
      2          6           0        2.103347    1.787179    0.738530
      3          6           0        2.060627    3.289288    0.456330
      4          1           0        4.198457    1.536794    0.297313
      5          1           0        3.134359    1.248057   -1.075803
      6          1           0        2.213494    1.616644    1.817141
      7          1           0        1.150677    1.328482    0.444195
      8          1           0        1.927026    3.476527   -0.614041
      9          1           0        2.995882    3.766325    0.766707
     10          1           0        1.238339    3.774986    0.990933
     11          6           0        3.298987   -0.422232    0.276692
     12          6           0        4.438809   -1.129449   -0.457225
     13          6           0        4.481529   -2.631559   -0.175025
     14          1           0        3.407796   -0.590328    1.357108
     15          1           0        2.343699   -0.879065   -0.016008
     16          1           0        5.391479   -0.670753   -0.162890
     17          1           0        4.328661   -0.958915   -1.535836
     18          1           0        3.546274   -3.108596   -0.485402
     19          1           0        4.615129   -2.818798    0.895346
     20          1           0        5.303816   -3.117256   -0.709628
     21          6           0       -2.539164    2.230831   -0.530271
     22          6           0       -1.396925    1.468471   -0.796015
     23          6           0       -1.394630    0.089328   -0.566875
     24          6           0       -2.557112   -0.497432   -0.069244
     25          6           0       -3.710915    0.235075    0.205455
     26          6           0       -3.690483    1.612789   -0.031262
     27          1           0       -2.532120    3.301627   -0.711216
     28          1           0       -0.501372    1.945768   -1.183594
     29          1           0       -0.524255   -0.524732   -0.763843
     30          1           0       -4.588645   -0.268988    0.591367
     31          1           0       -4.579019    2.202346    0.176036
     32          7           0       -2.566712   -1.956714    0.177349
     33          8           0       -3.603526   -2.449781    0.616139
     34          8           0       -1.537240   -2.579797   -0.072833
 ---------------------------------------------------------------------

 SCF Done:  E(RHF) =  -669.534618012     A.U. after   15 cycles
 E2 =    -0.2093243772D+01 EUMP2 =    -0.67162786178392D+03

 The electronic state is 1-A.
 Alpha  occ. eigenvalues --  -20.60797 -20.60792 -15.85850 -11.31227 -11.27795
 Alpha  occ. eigenvalues --  -11.27789 -11.27520 -11.26810 -11.26776 -11.22158
 Alpha  occ. eigenvalues --  -11.21864 -11.21850 -11.21724 -11.21632 -11.20972
 Alpha  occ. eigenvalues --   -1.59871  -1.39425  -1.19402  -1.08833  -1.08774
 Alpha  occ. eigenvalues --   -1.04821  -1.03888  -0.96344  -0.95624  -0.87354
 Alpha  occ. eigenvalues --   -0.86200  -0.82474  -0.79974  -0.78588  -0.77501
 Alpha  occ. eigenvalues --   -0.72069  -0.71193  -0.70504  -0.65569  -0.65040
 Alpha  occ. eigenvalues --   -0.64794  -0.62244  -0.61192  -0.59734  -0.57927
 Alpha  occ. eigenvalues --   -0.55661  -0.55287  -0.53162  -0.53014  -0.52879
 Alpha  occ. eigenvalues --   -0.52733  -0.50294  -0.48827  -0.48824  -0.48259
 Alpha  occ. eigenvalues --   -0.47026  -0.46113  -0.46038  -0.44826  -0.44138
 Alpha  occ. eigenvalues --   -0.37372  -0.36344
 Alpha virt. eigenvalues --    0.04991   0.11204   0.16346   0.19203   0.22959
 Alpha virt. eigenvalues --    0.23374   0.24900   0.26315   0.27467   0.28692
 Alpha virt. eigenvalues --    0.29405   0.30550   0.31179   0.31866   0.32247

 Mulliken charges:
               1
     1  C   -0.298691
     2  C   -0.307559
     3  C   -0.478008
     4  H    0.152160
     5  H    0.145192
     6  H    0.157517
     7  H    0.150964
     8  H    0.148068
     9  H    0.160686
    10  H    0.159934
    11  C   -0.300708
    12  C   -0.299821
    13  C   -0.476980
    14  H    0.153143
    15  H    0.150611
    16  H    0.151844
    17  H    0.150770
    18  H    0.160972
    19  H    0.156332
    20  H    0.160335
    21  C   -0.173020
    22  C   -0.219559
    23  C   -0.172608
    24  C    0.157534
    25  C   -0.170837
    26  C   -0.218554
    27  H    0.226252
    28  H    0.229123
    29  H    0.278369
    30  H    0.275768
    31  H    0.223664
    32  N    0.487954
    33  O   -0.460154
    34  O   -0.460693
 Sum of Mulliken charges =  -0.00000

 Dipole moment (field-independent basis, Debye):
    X=              0.0769    Y=              5.0690    Z=             -0.7839  Tot=              5.1298
 Quadrupole moment (field-independent basis, Debye-Ang):
   XX=            -89.6753   YY=           -101.5789   ZZ=            -94.2666
   XY=            -13.6070   XZ=              1.2475   YZ=              0.5334

 Normal termination of Gaussian 16 at Thu May  6 07:29:25 2021.
