 Gaussian 16, Revision A.03,
 Gaussian 16:  EM64L-G16RevA.03 25-Dec-2016

 -------------
 #p 6-31g* mp2
 -------------

 ------------------------------------------------------
 Input file generated by CHIRIPA (05-May-2021 14:53:12)
 ------------------------------------------------------
 Symbolic Z-matrix:
 Charge =  0 Multiplicity = 1

                         Standard orientation:
 ---------------------------------------------------------------------
 Center     Atomic      Atomic             Coordinates (Angstroms)
 Number     Number       Type             X           Y           Z
 ---------------------------------------------------------------------
      1          6           0        3.327383    0.924113   -0.383264
      2          6           0        2.164199    1.490984   -1.197909
      3          6           0        2.400856    2.935293   -1.640358
      4          1           0        3.491442    1.557298    0.499406
      5          1           0        4.246739    0.979023   -0.982568
      6          1           0        1.247051    1.433747   -0.597761
      7          1           0        2.002767    0.856267   -2.078642
      8          1           0        3.300219    3.005723   -2.260670
      9          1           0        2.540209    3.586484   -0.771374
     10          1           0        1.557062    3.320614   -2.221217
     11          6           0        3.105619   -0.518953    0.066300
     12          6           0        4.268803   -1.085824    0.880945
     13          6           0        4.032146   -2.530133    1.323393
     14          1           0        2.186264   -0.573863    0.665603
     15          1           0        2.941561   -1.152137   -0.816371
     16          1           0        4.430235   -0.451107    1.761678
     17          1           0        5.185952   -1.028587    0.280796
     18          1           0        3.892793   -3.181324    0.454410
     19          1           0        3.132783   -2.600563    1.943706
     20          1           0        4.875940   -2.915454    1.904253
     21          6           0       -2.625250   -1.703215   -1.867776
     22          6           0       -3.803635   -1.222435   -1.287448
     23          6           0       -3.753364   -0.365884   -0.183663
     24          6           0       -2.502029   -0.008905    0.316354
     25          6           0       -1.310278   -0.471221   -0.239780
     26          6           0       -1.384520   -1.326737   -1.343014
     27          1           0       -2.673612   -2.368202   -2.725009
     28          1           0       -4.768605   -1.513137   -1.692875
     29          1           0       -4.650015    0.021054    0.285074
     30          1           0       -0.363128   -0.163780    0.186606
     31          1           0       -0.467734   -1.698574   -1.791664
     32          7           0       -2.436121    0.897338    1.484591
     33          8           0       -1.321216    1.196932    1.906333
     34          8           0       -3.500616    1.290900    1.956392
 ---------------------------------------------------------------------

 SCF Done:  E(RHF) =  -669.535598667     A.U. after   15 cycles
 E2 =    -0.2092248627D+01 EUMP2 =    -0.67162784729403D+03

 The electronic state is 1-A.
 Alpha  occ. eigenvalues --  -20.60784 -20.60775 -15.85828 -11.31145 -11.27722
 Alpha  occ. eigenvalues --  -11.27671 -11.27458 -11.26735 -11.26704 -11.21896
 Alpha  occ. eigenvalues --  -11.21875 -11.21816 -11.21604 -11.21295 -11.21160
 Alpha  occ. eigenvalues --   -1.59853  -1.39409  -1.19320  -1.08733  -1.08726
 Alpha  occ. eigenvalues --   -1.04714  -1.03761  -0.96205  -0.95568  -0.87220
 Alpha  occ. eigenvalues --   -0.86121  -0.82399  -0.79852  -0.78621  -0.77431
 Alpha  occ. eigenvalues --   -0.72050  -0.71173  -0.70443  -0.65392  -0.64972
 Alpha  occ. eigenvalues --   -0.64687  -0.62081  -0.61131  -0.59575  -0.57832
 Alpha  occ. eigenvalues --   -0.55480  -0.55232  -0.53057  -0.52917  -0.52782
 Alpha  occ. eigenvalues --   -0.52632  -0.50135  -0.48809  -0.48803  -0.48160
 Alpha  occ. eigenvalues --   -0.46871  -0.46093  -0.45998  -0.44818  -0.44040
 Alpha  occ. eigenvalues --   -0.37306  -0.36303
 Alpha virt. eigenvalues --    0.05048   0.11280   0.16568   0.19866   0.23004
 Alpha virt. eigenvalues --    0.24140   0.24557   0.25425   0.27720   0.28264
 Alpha virt. eigenvalues --    0.30445   0.30840   0.31406   0.31719   0.31848

 Mulliken charges:
               1
     1  C   -0.297696
     2  C   -0.306901
     3  C   -0.475250
     4  H    0.156453
     5  H    0.150193
     6  H    0.157332
     7  H    0.145318
     8  H    0.154520
     9  H    0.160737
    10  H    0.161177
    11  C   -0.304249
    12  C   -0.299392
    13  C   -0.476646
    14  H    0.150778
    15  H    0.143094
    16  H    0.156812
    17  H    0.152782
    18  H    0.152316
    19  H    0.157193
    20  H    0.162287
    21  C   -0.170667
    22  C   -0.218832
    23  C   -0.170266
    24  C    0.157966
    25  C   -0.178318
    26  C   -0.222378
    27  H    0.225417
    28  H    0.223251
    29  H    0.275352
    30  H    0.287837
    31  H    0.224765
    32  N    0.487481
    33  O   -0.462484
    34  O   -0.459982
 Sum of Mulliken charges =  -0.00000

 Dipole moment (field-independent basis, Debye):
    X=             -0.1191    Y=             -3.0934    Z=             -4.0344  Tot=              5.0852
 Quadrupole moment (field-independent basis, Debye-Ang):
   XX=            -87.8909   YY=            -96.1864   ZZ=            -97.5442
   XY=              7.9439   XZ=             10.2239   YZ=             -0.2160

 Normal termination of Gaussian 16 at Thu May  6 11:59:01 2021.
