 Gaussian 16, Revision A.03,
 Gaussian 16:  EM64L-G16RevA.03 25-Dec-2016

 -------------
 #p 6-31g* mp2
 -------------

 ------------------------------------------------------
 Input file generated by CHIRIPA (05-May-2021 14:51:12)
 ------------------------------------------------------
 Symbolic Z-matrix:
 Charge =  0 Multiplicity = 1

                         Standard orientation:
 ---------------------------------------------------------------------
 Center     Atomic      Atomic             Coordinates (Angstroms)
 Number     Number       Type             X           Y           Z
 ---------------------------------------------------------------------
      1          6           0        4.248556    0.612758   -0.263211
      2          6           0        3.982958    1.930903    0.464758
      3          6           0        4.741315    3.108289   -0.148797
      4          1           0        5.327023    0.403872   -0.248346
      5          1           0        3.965831    0.721820   -1.319415
      6          1           0        4.264805    1.818958    1.519578
      7          1           0        2.904977    2.136579    0.448325
      8          1           0        4.453366    3.248471   -1.195714
      9          1           0        5.820920    2.929045   -0.118374
     10          1           0        4.536951    4.040493    0.387013
     11          6           0        3.497438   -0.573627    0.338486
     12          6           0        3.763036   -1.891772   -0.389482
     13          6           0        3.004678   -3.069158    0.224072
     14          1           0        3.780163   -0.682689    1.394690
     15          1           0        2.418971   -0.364741    0.323621
     16          1           0        4.841017   -2.097448   -0.373049
     17          1           0        3.481189   -1.779826   -1.444303
     18          1           0        1.925074   -2.889914    0.193649
     19          1           0        3.292628   -3.209340    1.270989
     20          1           0        3.209043   -4.001362   -0.311738
     21          6           0       -3.328287   -0.551051    0.027516
     22          6           0       -1.921814   -0.013705   -0.239093
     23          6           0       -0.842961   -1.088820   -0.104938
     24          1           0       -3.363380   -0.983822    1.036686
     25          1           0       -3.538358   -1.371922   -0.672081
     26          1           0       -1.714982    0.806825    0.459883
     27          1           0       -1.890117    0.418009   -1.247674
     28          1           0       -1.021707   -1.904416   -0.813072
     29          1           0       -0.845579   -1.513392    0.904187
     30          1           0        0.154653   -0.682984   -0.299668
     31          6           0       -4.417708    0.511920   -0.102790
     32          6           0       -5.824180   -0.025426    0.163818
     33          6           0       -6.903032    1.049690    0.029663
     34          1           0       -4.207636    1.332791    0.596807
     35          1           0       -4.382614    0.944691   -1.111960
     36          1           0       -5.855877   -0.457140    1.172398
     37          1           0       -6.031011   -0.845956   -0.535158
     38          1           0       -6.900416    1.474261   -0.979462
     39          1           0       -6.724286    1.865286    0.737796
     40          1           0       -7.900647    0.643852    0.224392
 ---------------------------------------------------------------------

 SCF Done:  E(RHF) =  -470.733171801     A.U. after   11 cycles
 E2 =    -0.1582900185D+01 EUMP2 =    -0.47231607198554D+03

 The electronic state is 1-A.
 Alpha  occ. eigenvalues --  -11.21667 -11.21624 -11.21589 -11.21545 -11.21442
 Alpha  occ. eigenvalues --  -11.21381 -11.21370 -11.21304 -11.21149 -11.21089
 Alpha  occ. eigenvalues --  -11.21061 -11.20961  -1.08472  -1.08396  -1.03582
 Alpha  occ. eigenvalues --   -1.03483  -0.96032  -0.95934  -0.87053  -0.86951
 Alpha  occ. eigenvalues --   -0.79669  -0.79528  -0.78285  -0.78207  -0.65100
 Alpha  occ. eigenvalues --   -0.65050  -0.60971  -0.60909  -0.59442  -0.59254
 Alpha  occ. eigenvalues --   -0.57667  -0.57526  -0.55315  -0.55222  -0.52768
 Alpha  occ. eigenvalues --   -0.52622  -0.52510  -0.52304  -0.49969  -0.49875
 Alpha  occ. eigenvalues --   -0.47958  -0.47864  -0.46674  -0.46581  -0.45822
 Alpha  occ. eigenvalues --   -0.45760  -0.45739  -0.45683  -0.43767  -0.43728
 Alpha virt. eigenvalues --    0.21161   0.22992   0.23804   0.24658   0.26093
 Alpha virt. eigenvalues --    0.26622   0.26933   0.27276   0.27888   0.28983
 Alpha virt. eigenvalues --    0.30632   0.31341   0.31635   0.31822   0.32006

 Mulliken charges:
               1
     1  C   -0.297786
     2  C   -0.299579
     3  C   -0.475665
     4  H    0.149692
     5  H    0.149174
     6  H    0.151959
     7  H    0.151568
     8  H    0.155150
     9  H    0.155196
    10  H    0.160175
    11  C   -0.306190
    12  C   -0.298833
    13  C   -0.480540
    14  H    0.149595
    15  H    0.156316
    16  H    0.151699
    17  H    0.151421
    18  H    0.161875
    19  H    0.154538
    20  H    0.159626
    21  C   -0.298748
    22  C   -0.300141
    23  C   -0.482822
    24  H    0.149925
    25  H    0.149694
    26  H    0.152204
    27  H    0.151929
    28  H    0.155715
    29  H    0.156193
    30  H    0.166251
    31  C   -0.298290
    32  C   -0.299668
    33  C   -0.475729
    34  H    0.149624
    35  H    0.149666
    36  H    0.152045
    37  H    0.151987
    38  H    0.155194
    39  H    0.155231
    40  H    0.160352
 Sum of Mulliken charges =  -0.00000

 Dipole moment (field-independent basis, Debye):
    X=             -0.0444    Y=             -0.0024    Z=              0.0052  Tot=              0.0448
 Quadrupole moment (field-independent basis, Debye-Ang):
   XX=            -85.2706   YY=            -86.0948   ZZ=            -83.5048
   XY=              0.0554   XZ=              0.7141   YZ=              0.4637

 Normal termination of Gaussian 16 at Wed May  5 18:20:08 2021.
