 Gaussian 16, Revision A.03,
 Gaussian 16:  EM64L-G16RevA.03 25-Dec-2016

 -------------
 #p 6-31g* mp2
 -------------

 ------------------------------------------------------
 Input file generated by CHIRIPA (05-May-2021 14:55:24)
 ------------------------------------------------------
 Symbolic Z-matrix:
 Charge =  0 Multiplicity = 1

                         Standard orientation:
 ---------------------------------------------------------------------
 Center     Atomic      Atomic             Coordinates (Angstroms)
 Number     Number       Type             X           Y           Z
 ---------------------------------------------------------------------
      1          6           0       -4.688841    0.376097   -1.446610
      2          6           0       -3.650027    1.279454   -1.198953
      3          6           0       -2.623303    0.953813   -0.307694
      4          6           0       -2.667032   -0.289450    0.321334
      5          6           0       -3.688420   -1.210883    0.095461
      6          6           0       -4.704694   -0.864002   -0.799753
      7          1           0       -5.482366    0.637313   -2.140498
      8          1           0       -3.635132    2.243245   -1.699882
      9          1           0       -1.807081    1.634282   -0.097547
     10          1           0       -3.676044   -2.164113    0.609871
     11          1           0       -5.510191   -1.567539   -0.990157
     12          7           0       -1.585617   -0.645434    1.266963
     13          8           0       -1.647127   -1.747103    1.808424
     14          8           0       -0.696970    0.183954    1.448782
     15          6           0        3.450471    1.007839   -0.409808
     16          6           0        2.815405    1.804189    0.730589
     17          6           0        2.437846    3.227516    0.319028
     18          1           0        4.344867    1.537814   -0.764952
     19          1           0        2.751272    0.972355   -1.256718
     20          1           0        3.515038    1.836983    1.575606
     21          1           0        1.922525    1.272158    1.083187
     22          1           0        1.721142    3.211968   -0.508435
     23          1           0        3.322703    3.780000   -0.013218
     24          1           0        1.985572    3.778878    1.149273
     25          6           0        3.833401   -0.417045   -0.013828
     26          6           0        4.468466   -1.213394   -1.154224
     27          6           0        4.846026   -2.636721   -0.742663
     28          1           0        4.532600   -0.381561    0.833082
     29          1           0        2.939005   -0.947020    0.341317
     30          1           0        5.361347   -0.681364   -1.506823
     31          1           0        3.768834   -1.246189   -1.999241
     32          1           0        3.961169   -3.189206   -0.410417
     33          1           0        5.562730   -2.621173    0.084800
     34          1           0        5.298301   -3.188084   -1.572909
 ---------------------------------------------------------------------

 SCF Done:  E(RHF) =  -669.536251645     A.U. after   15 cycles
 E2 =    -0.2091006490D+01 EUMP2 =    -0.67162725813456D+03

 The electronic state is 1-A.
 Alpha  occ. eigenvalues --  -20.60989 -20.60977 -15.86026 -11.31321 -11.27882
 Alpha  occ. eigenvalues --  -11.27878 -11.27616 -11.26885 -11.26875 -11.20947
 Alpha  occ. eigenvalues --  -11.20584 -11.20496 -11.20471 -11.20463 -11.20405
 Alpha  occ. eigenvalues --   -1.60050  -1.39606  -1.19488  -1.08897  -1.07599
 Alpha  occ. eigenvalues --   -1.04881  -1.02752  -0.95743  -0.95247  -0.86284
 Alpha  occ. eigenvalues --   -0.86266  -0.82579  -0.78804  -0.77640  -0.77380
 Alpha  occ. eigenvalues --   -0.72252  -0.71365  -0.70596  -0.65147  -0.64883
 Alpha  occ. eigenvalues --   -0.64220  -0.62228  -0.60143  -0.58607  -0.56841
 Alpha  occ. eigenvalues --   -0.55386  -0.54551  -0.53215  -0.52972  -0.51961
 Alpha  occ. eigenvalues --   -0.51669  -0.49208  -0.49008  -0.48992  -0.47129
 Alpha  occ. eigenvalues --   -0.45817  -0.45112  -0.44954  -0.44699  -0.43002
 Alpha  occ. eigenvalues --   -0.37466  -0.36482
 Alpha virt. eigenvalues --    0.04880   0.11173   0.16366   0.21138   0.23555
 Alpha virt. eigenvalues --    0.24723   0.27046   0.27432   0.28131   0.28560
 Alpha virt. eigenvalues --    0.28837   0.30803   0.31750   0.32417   0.32595

 Mulliken charges:
               1
     1  C   -0.170538
     2  C   -0.218577
     3  C   -0.171025
     4  C    0.157464
     5  C   -0.170659
     6  C   -0.218588
     7  H    0.226145
     8  H    0.224146
     9  H    0.276180
    10  H    0.275877
    11  H    0.223916
    12  N    0.494262
    13  O   -0.458741
    14  O   -0.466687
    15  C   -0.296052
    16  C   -0.312796
    17  C   -0.473602
    18  H    0.144865
    19  H    0.144605
    20  H    0.149126
    21  H    0.182127
    22  H    0.146795
    23  H    0.151470
    24  H    0.159382
    25  C   -0.300322
    26  C   -0.298782
    27  C   -0.475535
    28  H    0.148547
    29  H    0.159465
    30  H    0.149241
    31  H    0.149108
    32  H    0.157283
    33  H    0.154828
    34  H    0.157071
 Sum of Mulliken charges =  -0.00000

 Dipole moment (field-independent basis, Debye):
    X=             -4.0696    Y=              1.1342    Z=             -3.1889  Tot=              5.2931
 Quadrupole moment (field-independent basis, Debye-Ang):
   XX=            -73.9750   YY=            -93.2994   ZZ=            -97.5502
   XY=              0.3554   XZ=              8.2115   YZ=              0.7181

 Normal termination of Gaussian 16 at Wed May  5 16:05:36 2021.
