 Gaussian 16, Revision A.03,
 Gaussian 16:  EM64L-G16RevA.03 25-Dec-2016

 -------------
 #p 6-31g* mp2
 -------------

 ------------------------------------------------------
 Input file generated by CHIRIPA (05-May-2021 14:55:20)
 ------------------------------------------------------
 Symbolic Z-matrix:
 Charge =  0 Multiplicity = 1

                         Standard orientation:
 ---------------------------------------------------------------------
 Center     Atomic      Atomic             Coordinates (Angstroms)
 Number     Number       Type             X           Y           Z
 ---------------------------------------------------------------------
      1          6           0       -0.966329    0.590668    1.512812
      2          6           0       -1.991917    1.490506    1.204619
      3          6           0       -3.129488    1.061281    0.514513
      4          6           0       -3.208886   -0.280850    0.146180
      5          6           0       -2.203882   -1.201554    0.438690
      6          6           0       -1.075393   -0.750126    1.129540
      7          1           0       -0.086164    0.932724    2.049192
      8          1           0       -1.909923    2.532363    1.501022
      9          1           0       -3.938300    1.736576    0.263081
     10          1           0       -2.314138   -2.234023    0.130035
     11          1           0       -0.280463   -1.451188    1.367541
     12          7           0       -4.408374   -0.747004   -0.584798
     13          8           0       -4.454246   -1.934578   -0.898167
     14          8           0       -5.279950    0.084026   -0.830528
     15          6           0        3.407017    0.644423   -0.827571
     16          6           0        2.255715    1.380109   -0.141091
     17          6           0        1.369723    2.142205   -1.127003
     18          1           0        4.015870    1.368954   -1.385512
     19          1           0        2.995950   -0.054877   -1.568786
     20          1           0        2.668776    2.076814    0.599584
     21          1           0        1.649643    0.653769    0.415436
     22          1           0        0.930361    1.457059   -1.859214
     23          1           0        1.955285    2.888189   -1.674021
     24          1           0        0.553149    2.660746   -0.614966
     25          6           0        4.301645   -0.122124    0.144938
     26          6           0        5.452946   -0.857811   -0.541543
     27          6           0        6.338938   -1.619908    0.444368
     28          1           0        4.712711    0.577175    0.886152
     29          1           0        3.692792   -0.846656    0.702877
     30          1           0        6.059018   -0.131471   -1.098070
     31          1           0        5.039885   -1.554516   -1.282218
     32          1           0        5.753377   -2.365891    0.991386
     33          1           0        6.778302   -0.934760    1.176580
     34          1           0        7.155513   -2.138449   -0.067668
 ---------------------------------------------------------------------

 SCF Done:  E(RHF) =  -669.534545404     A.U. after   15 cycles
 E2 =    -0.2093093335D+01 EUMP2 =    -0.67162763873856D+03

 The electronic state is 1-A.
 Alpha  occ. eigenvalues --  -20.60781 -20.60776 -15.85837 -11.31209 -11.27805
 Alpha  occ. eigenvalues --  -11.27800 -11.27514 -11.26803 -11.26792 -11.22385
 Alpha  occ. eigenvalues --  -11.22141 -11.22067 -11.22007 -11.21660 -11.21554
 Alpha  occ. eigenvalues --   -1.59857  -1.39410  -1.19400  -1.09099  -1.08784
 Alpha  occ. eigenvalues --   -1.04807  -1.04154  -0.96580  -0.95619  -0.87590
 Alpha  occ. eigenvalues --   -0.86205  -0.82461  -0.80245  -0.78922  -0.77496
 Alpha  occ. eigenvalues --   -0.72056  -0.71181  -0.70528  -0.65732  -0.65051
 Alpha  occ. eigenvalues --   -0.64811  -0.62157  -0.61551  -0.59978  -0.58228
 Alpha  occ. eigenvalues --   -0.55872  -0.55286  -0.53366  -0.53086  -0.52910
 Alpha  occ. eigenvalues --   -0.52885  -0.50505  -0.48818  -0.48809  -0.48538
 Alpha  occ. eigenvalues --   -0.47272  -0.46450  -0.46369  -0.44815  -0.44412
 Alpha  occ. eigenvalues --   -0.37298  -0.36401
 Alpha virt. eigenvalues --    0.05028   0.11076   0.16479   0.20372   0.22500
 Alpha virt. eigenvalues --    0.23975   0.25357   0.26372   0.26679   0.28108
 Alpha virt. eigenvalues --    0.28900   0.30455   0.30784   0.31303   0.32148

 Mulliken charges:
               1
     1  C   -0.166280
     2  C   -0.220747
     3  C   -0.170670
     4  C    0.158107
     5  C   -0.170889
     6  C   -0.219513
     7  H    0.229129
     8  H    0.223553
     9  H    0.275905
    10  H    0.275706
    11  H    0.223190
    12  N    0.488146
    13  O   -0.460525
    14  O   -0.460325
    15  C   -0.298139
    16  C   -0.304098
    17  C   -0.473968
    18  H    0.152400
    19  H    0.151915
    20  H    0.149038
    21  H    0.145358
    22  H    0.160176
    23  H    0.156894
    24  H    0.156319
    25  C   -0.297624
    26  C   -0.300154
    27  C   -0.475932
    28  H    0.149644
    29  H    0.144169
    30  H    0.153801
    31  H    0.153213
    32  H    0.154288
    33  H    0.155508
    34  H    0.162404
 Sum of Mulliken charges =  -0.00000

 Dipole moment (field-independent basis, Debye):
    X=              4.2764    Y=              1.6468    Z=              2.5023  Tot=              5.2212
 Quadrupole moment (field-independent basis, Debye-Ang):
   XX=           -121.5993   YY=            -91.2071   ZZ=            -95.0369
   XY=             -7.6824   XZ=             -8.3866   YZ=              0.1098

 Normal termination of Gaussian 16 at Thu May  6 07:44:30 2021.
