 Gaussian 16, Revision A.03,
 Gaussian 16:  EM64L-G16RevA.03 25-Dec-2016

 -------------
 #p 6-31g* mp2
 -------------

 ------------------------------------------------------
 Input file generated by CHIRIPA (05-May-2021 14:55:21)
 ------------------------------------------------------
 Symbolic Z-matrix:
 Charge =  0 Multiplicity = 1

                         Standard orientation:
 ---------------------------------------------------------------------
 Center     Atomic      Atomic             Coordinates (Angstroms)
 Number     Number       Type             X           Y           Z
 ---------------------------------------------------------------------
      1          6           0        0.818586   -1.783174    1.304264
      2          6           0        0.527385   -1.415768   -0.013589
      3          6           0        1.457872   -0.700652   -0.773425
      4          6           0        2.675181   -0.367961   -0.181171
      5          6           0        2.994722   -0.719605    1.129375
      6          6           0        2.049156   -1.434535    1.870541
      7          1           0        0.089905   -2.338622    1.887271
      8          1           0       -0.427483   -1.685169   -0.455963
      9          1           0        1.258385   -0.403501   -1.795836
     10          1           0        3.955098   -0.436758    1.543010
     11          1           0        2.278027   -1.718535    2.893775
     12          7           0        3.668228    0.389002   -0.975693
     13          8           0        4.733489    0.670036   -0.430830
     14          8           0        3.362513    0.686943   -2.128258
     15          6           0       -2.611486    0.819803    0.492947
     16          6           0       -2.240584    2.300162    0.398320
     17          6           0       -1.031826    2.663076    1.261449
     18          1           0       -2.818730    0.566585    1.541696
     19          1           0       -1.747528    0.212394    0.189587
     20          1           0       -3.105432    2.904624    0.700443
     21          1           0       -2.034385    2.549929   -0.650353
     22          1           0       -0.153363    2.085154    0.956637
     23          1           0       -1.230496    2.441865    2.315108
     24          1           0       -0.784090    3.725928    1.178794
     25          6           0       -3.817993    0.441553   -0.364373
     26          6           0       -4.188895   -1.038806   -0.269746
     27          6           0       -5.397652   -1.401720   -1.132877
     28          1           0       -4.681951    1.048962   -0.061015
     29          1           0       -3.610749    0.694771   -1.413123
     30          1           0       -4.395094   -1.288573    0.778926
     31          1           0       -3.324047   -1.643268   -0.571869
     32          1           0       -5.198982   -1.180509   -2.186535
     33          1           0       -6.276115   -0.823798   -0.828064
     34          1           0       -5.645388   -2.464572   -1.050221
 ---------------------------------------------------------------------

 SCF Done:  E(RHF) =  -669.534846691     A.U. after   15 cycles
 E2 =    -0.2093329122D+01 EUMP2 =    -0.67162817581260D+03

 The electronic state is 1-A.
 Alpha  occ. eigenvalues --  -20.60812 -20.60807 -15.85867 -11.31265 -11.27839
 Alpha  occ. eigenvalues --  -11.27816 -11.27552 -11.26836 -11.26825 -11.22417
 Alpha  occ. eigenvalues --  -11.21975 -11.21929 -11.21843 -11.21689 -11.21246
 Alpha  occ. eigenvalues --   -1.59887  -1.39439  -1.19437  -1.08998  -1.08812
 Alpha  occ. eigenvalues --   -1.04848  -1.04024  -0.96450  -0.95647  -0.87469
 Alpha  occ. eigenvalues --   -0.86240  -0.82487  -0.80117  -0.78824  -0.77523
 Alpha  occ. eigenvalues --   -0.72083  -0.71211  -0.70519  -0.65725  -0.65083
 Alpha  occ. eigenvalues --   -0.64787  -0.62190  -0.61432  -0.59834  -0.58065
 Alpha  occ. eigenvalues --   -0.55743  -0.55315  -0.53226  -0.53126  -0.52981
 Alpha  occ. eigenvalues --   -0.52818  -0.50402  -0.48849  -0.48837  -0.48415
 Alpha  occ. eigenvalues --   -0.47170  -0.46317  -0.46241  -0.44838  -0.44283
 Alpha  occ. eigenvalues --   -0.37375  -0.36382
 Alpha virt. eigenvalues --    0.05002   0.11114   0.16421   0.19518   0.22852
 Alpha virt. eigenvalues --    0.23627   0.24960   0.26429   0.27396   0.28265
 Alpha virt. eigenvalues --    0.29363   0.30030   0.31300   0.31417   0.31873

 Mulliken charges:
               1
     1  C   -0.170791
     2  C   -0.219143
     3  C   -0.173692
     4  C    0.158653
     5  C   -0.170463
     6  C   -0.218271
     7  H    0.226966
     8  H    0.227910
     9  H    0.276079
    10  H    0.276022
    11  H    0.223922
    12  N    0.488138
    13  O   -0.460046
    14  O   -0.460300
    15  C   -0.304915
    16  C   -0.299394
    17  C   -0.477510
    18  H    0.147456
    19  H    0.149762
    20  H    0.152757
    21  H    0.153461
    22  H    0.158647
    23  H    0.152837
    24  H    0.162995
    25  C   -0.298526
    26  C   -0.300140
    27  C   -0.475744
    28  H    0.152597
    29  H    0.150597
    30  H    0.152310
    31  H    0.141998
    32  H    0.156879
    33  H    0.158185
    34  H    0.160766
 Sum of Mulliken charges =  -0.00000

 Dipole moment (field-independent basis, Debye):
    X=             -3.5004    Y=             -2.6290    Z=              2.8199  Tot=              5.2073
 Quadrupole moment (field-independent basis, Debye-Ang):
   XX=           -111.8882   YY=            -93.5916   ZZ=            -92.6849
   XY=             -6.5099   XZ=             10.1761   YZ=             -0.7970

 Normal termination of Gaussian 16 at Thu May  6 06:12:49 2021.
