 Gaussian 16, Revision A.03,
 Gaussian 16:  EM64L-G16RevA.03 25-Dec-2016

 -------------
 #p 6-31g* mp2
 -------------

 ------------------------------------------------------
 Input file generated by CHIRIPA (05-May-2021 14:55:24)
 ------------------------------------------------------
 Symbolic Z-matrix:
 Charge =  0 Multiplicity = 1

                         Standard orientation:
 ---------------------------------------------------------------------
 Center     Atomic      Atomic             Coordinates (Angstroms)
 Number     Number       Type             X           Y           Z
 ---------------------------------------------------------------------
      1          6           0        3.215722   -2.093978    0.869557
      2          6           0        3.907168   -1.050376    1.493512
      3          6           0        3.770494    0.264250    1.037852
      4          6           0        2.930233    0.500409   -0.049107
      5          6           0        2.228022   -0.517964   -0.691841
      6          6           0        2.379830   -1.824915   -0.219209
      7          1           0        3.327772   -3.112230    1.230117
      8          1           0        4.557021   -1.256382    2.339265
      9          1           0        4.294046    1.091048    1.502305
     10          1           0        1.587468   -0.281504   -1.532790
     11          1           0        1.841614   -2.633411   -0.705730
     12          7           0        2.777533    1.888082   -0.540478
     13          8           0        2.031139    2.069879   -1.499897
     14          8           0        3.407130    2.767668    0.043108
     15          6           0       -3.462541   -0.792622   -0.572695
     16          6           0       -2.130953   -1.401543   -0.132157
     17          6           0       -1.502358   -2.288942   -1.206953
     18          1           0       -4.158618   -1.600677   -0.836268
     19          1           0       -3.304315   -0.205440   -1.487887
     20          1           0       -2.291381   -1.986268    0.782706
     21          1           0       -1.438028   -0.591951    0.130581
     22          1           0       -1.313733   -1.714011   -2.119354
     23          1           0       -2.171935   -3.116251   -1.463524
     24          1           0       -0.551335   -2.713874   -0.871021
     25          6           0       -4.103284    0.097062    0.491091
     26          6           0       -5.434872    0.705982    0.050553
     27          6           0       -6.063468    1.593382    1.125349
     28          1           0       -4.261509   -0.490120    1.406284
     29          1           0       -3.407207    0.905116    0.754664
     30          1           0       -6.127797   -0.103610   -0.212185
     31          1           0       -5.274444    1.290707   -0.864310
     32          1           0       -5.393891    2.420690    1.381919
     33          1           0       -6.252092    1.018450    2.037751
     34          1           0       -7.014490    2.018312    0.789417
 ---------------------------------------------------------------------

 SCF Done:  E(RHF) =  -669.535510625     A.U. after   15 cycles
 E2 =    -0.2091519017D+01 EUMP2 =    -0.67162702964112D+03

 The electronic state is 1-A.
 Alpha  occ. eigenvalues --  -20.60784 -20.60778 -15.85837 -11.31194 -11.27766
 Alpha  occ. eigenvalues --  -11.27756 -11.27502 -11.26780 -11.26752 -11.21960
 Alpha  occ. eigenvalues --  -11.21750 -11.21598 -11.21561 -11.21424 -11.21025
 Alpha  occ. eigenvalues --   -1.59860  -1.39413  -1.19368  -1.08765  -1.08592
 Alpha  occ. eigenvalues --   -1.04770  -1.03750  -0.96225  -0.95599  -0.87251
 Alpha  occ. eigenvalues --   -0.86167  -0.82432  -0.79815  -0.78368  -0.77482
 Alpha  occ. eigenvalues --   -0.72055  -0.71183  -0.70473  -0.65217  -0.65018
 Alpha  occ. eigenvalues --   -0.64798  -0.62175  -0.61130  -0.59609  -0.57816
 Alpha  occ. eigenvalues --   -0.55505  -0.55264  -0.53206  -0.53044  -0.52771
 Alpha  occ. eigenvalues --   -0.52510  -0.50149  -0.48814  -0.48810  -0.48126
 Alpha  occ. eigenvalues --   -0.46824  -0.45923  -0.45816  -0.44821  -0.43996
 Alpha  occ. eigenvalues --   -0.37347  -0.36353
 Alpha virt. eigenvalues --    0.05032   0.11225   0.16440   0.20232   0.22870
 Alpha virt. eigenvalues --    0.24006   0.26213   0.26342   0.27250   0.27758
 Alpha virt. eigenvalues --    0.29135   0.29657   0.31288   0.31844   0.32261

 Mulliken charges:
               1
     1  C   -0.171339
     2  C   -0.218495
     3  C   -0.170779
     4  C    0.158125
     5  C   -0.171760
     6  C   -0.220092
     7  H    0.225760
     8  H    0.223469
     9  H    0.275604
    10  H    0.276924
    11  H    0.226905
    12  N    0.488128
    13  O   -0.460764
    14  O   -0.460378
    15  C   -0.299129
    16  C   -0.299783
    17  C   -0.480459
    18  H    0.149162
    19  H    0.152676
    20  H    0.151760
    21  H    0.155651
    22  H    0.156636
    23  H    0.158395
    24  H    0.150388
    25  C   -0.299058
    26  C   -0.300053
    27  C   -0.476050
    28  H    0.148527
    29  H    0.152995
    30  H    0.151113
    31  H    0.153879
    32  H    0.157005
    33  H    0.154371
    34  H    0.160667
 Sum of Mulliken charges =  -0.00000

 Dipole moment (field-independent basis, Debye):
    X=              0.4589    Y=             -4.8232    Z=              1.7522  Tot=              5.1521
 Quadrupole moment (field-independent basis, Debye-Ang):
   XX=            -89.8565   YY=            -99.6840   ZZ=            -93.1668
   XY=            -12.4004   XZ=              8.0209   YZ=              1.5639

 Normal termination of Gaussian 16 at Thu May  6 09:31:13 2021.
