 Gaussian 16, Revision A.03,
 Gaussian 16:  EM64L-G16RevA.03 25-Dec-2016

 -------------
 #p 6-31g* mp2
 -------------

 ------------------------------------------------------
 Input file generated by CHIRIPA (05-May-2021 14:53:12)
 ------------------------------------------------------
 Symbolic Z-matrix:
 Charge =  0 Multiplicity = 1

                         Standard orientation:
 ---------------------------------------------------------------------
 Center     Atomic      Atomic             Coordinates (Angstroms)
 Number     Number       Type             X           Y           Z
 ---------------------------------------------------------------------
      1          6           0        3.691748   -0.162627   -0.122426
      2          6           0        3.186435   -1.519409   -0.614142
      3          6           0        4.150801   -2.661425   -0.292286
      4          1           0        4.670760    0.043345   -0.576358
      5          1           0        3.854587   -0.211312    0.963166
      6          1           0        3.023280   -1.467766   -1.698268
      7          1           0        2.208424   -1.722088   -0.159136
      8          1           0        4.305811   -2.741698    0.788514
      9          1           0        5.125297   -2.485930   -0.759364
     10          1           0        3.769933   -3.622114   -0.652670
     11          6           0        2.738547    0.989033   -0.436777
     12          6           0        3.243859    2.345815    0.054940
     13          6           0        2.279493    3.487831   -0.266916
     14          1           0        2.575708    1.037718   -1.522368
     15          1           0        1.759534    0.783061    0.017156
     16          1           0        4.221871    2.548494   -0.400066
     17          1           0        3.407015    2.294172    1.139066
     18          1           0        1.304998    3.312336    0.200161
     19          1           0        2.124484    3.568104   -1.347716
     20          1           0        2.660361    4.448520    0.093467
     21          6           0       -4.513289    0.497177   -1.080683
     22          6           0       -3.775805   -0.595930   -1.547326
     23          6           0       -2.665023   -1.058852   -0.835697
     24          6           0       -2.318340   -0.402088    0.344033
     25          6           0       -3.033039    0.689521    0.834833
     26          6           0       -4.140210    1.135288    0.106814
     27          1           0       -5.374768    0.850123   -1.639858
     28          1           0       -4.063227   -1.093438   -2.469236
     29          1           0       -2.076372   -1.902876   -1.174127
     30          1           0       -2.722133    1.164998    1.757154
     31          1           0       -4.711094    1.984442    0.471607
     32          7           0       -1.144317   -0.883083    1.106077
     33          8           0       -0.859481   -0.287197    2.142622
     34          8           0       -0.531184   -1.846866    0.652395
 ---------------------------------------------------------------------

 SCF Done:  E(RHF) =  -669.536589443     A.U. after   15 cycles
 E2 =    -0.2091605530D+01 EUMP2 =    -0.67162819497293D+03

 The electronic state is 1-A.
 Alpha  occ. eigenvalues --  -20.61057 -20.61047 -15.86073 -11.31335 -11.27893
 Alpha  occ. eigenvalues --  -11.27886 -11.27621 -11.26886 -11.26876 -11.20921
 Alpha  occ. eigenvalues --  -11.20597 -11.20532 -11.20351 -11.20244 -11.20003
 Alpha  occ. eigenvalues --   -1.60108  -1.39664  -1.19498  -1.08915  -1.07490
 Alpha  occ. eigenvalues --   -1.04885  -1.02619  -0.95765  -0.95120  -0.86289
 Alpha  occ. eigenvalues --   -0.86142  -0.82601  -0.78703  -0.77662  -0.77275
 Alpha  occ. eigenvalues --   -0.72291  -0.71416  -0.70608  -0.65155  -0.64889
 Alpha  occ. eigenvalues --   -0.64099  -0.62233  -0.60000  -0.58506  -0.56717
 Alpha  occ. eigenvalues --   -0.55394  -0.54411  -0.53219  -0.52977  -0.51836
 Alpha  occ. eigenvalues --   -0.51551  -0.49129  -0.49052  -0.49012  -0.47034
 Alpha  occ. eigenvalues --   -0.45760  -0.45157  -0.44818  -0.44516  -0.42877
 Alpha  occ. eigenvalues --   -0.37473  -0.36482
 Alpha virt. eigenvalues --    0.04829   0.11173   0.16311   0.21295   0.23753
 Alpha virt. eigenvalues --    0.25208   0.27231   0.27398   0.28041   0.28573
 Alpha virt. eigenvalues --    0.28758   0.30951   0.32113   0.32344   0.32822

 Mulliken charges:
               1
     1  C   -0.296680
     2  C   -0.312651
     3  C   -0.474321
     4  H    0.144040
     5  H    0.152444
     6  H    0.143100
     7  H    0.180876
     8  H    0.156326
     9  H    0.149139
    10  H    0.158031
    11  C   -0.298517
    12  C   -0.298794
    13  C   -0.475266
    14  H    0.144086
    15  H    0.154106
    16  H    0.149477
    17  H    0.154530
    18  H    0.154331
    19  H    0.152013
    20  H    0.157932
    21  C   -0.170318
    22  C   -0.218574
    23  C   -0.170252
    24  C    0.157812
    25  C   -0.170612
    26  C   -0.218513
    27  H    0.226229
    28  H    0.224057
    29  H    0.276177
    30  H    0.275789
    31  H    0.224045
    32  N    0.489248
    33  O   -0.459428
    34  O   -0.459863
 Sum of Mulliken charges =  -0.00000

 Dipole moment (field-independent basis, Debye):
    X=             -4.4357    Y=              1.6004    Z=             -2.5412  Tot=              5.3567
 Quadrupole moment (field-independent basis, Debye-Ang):
   XX=            -77.0295   YY=            -95.2441   ZZ=            -94.0161
   XY=             -2.4321   XZ=              4.4396   YZ=              4.5275

 Normal termination of Gaussian 16 at Thu May  6 05:43:50 2021.
