 Gaussian 16, Revision A.03,
 Gaussian 16:  EM64L-G16RevA.03 25-Dec-2016

 -------------
 #p 6-31g* mp2
 -------------

 ------------------------------------------------------
 Input file generated by CHIRIPA (05-May-2021 14:51:12)
 ------------------------------------------------------
 Symbolic Z-matrix:
 Charge =  0 Multiplicity = 1

                         Standard orientation:
 ---------------------------------------------------------------------
 Center     Atomic      Atomic             Coordinates (Angstroms)
 Number     Number       Type             X           Y           Z
 ---------------------------------------------------------------------
      1          6           0        2.251602    1.239079   -0.352936
      2          6           0        1.761254    2.078001    0.827637
      3          6           0        0.735349    3.134508    0.416413
      4          1           0        2.690715    1.903691   -1.109518
      5          1           0        1.390493    0.749694   -0.828740
      6          1           0        2.623192    2.564557    1.301918
      7          1           0        1.323431    1.411296    1.581581
      8          1           0       -0.142379    2.663080   -0.037404
      9          1           0        1.164766    3.822894   -0.318655
     10          1           0        0.398332    3.722701    1.275662
     11          6           0        3.277651    0.178518    0.042238
     12          6           0        3.767999   -0.660404   -1.138335
     13          6           0        4.793905   -1.716911   -0.727112
     14          1           0        4.138761    0.667903    0.518042
     15          1           0        2.838539   -0.486094    0.798820
     16          1           0        4.205823    0.006301   -1.892279
     17          1           0        2.906062   -1.146960   -1.612616
     18          1           0        4.364487   -2.405297    0.007957
     19          1           0        5.671633   -1.245483   -0.273294
     20          1           0        5.130922   -2.305104   -1.586361
     21          6           0       -3.189596   -0.489975   -0.440427
     22          6           0       -4.579298    0.009009   -0.043277
     23          6           0       -5.417553    0.443187   -1.246028
     24          1           0       -2.664210    0.304657   -0.987671
     25          1           0       -3.295609   -1.332377   -1.137933
     26          1           0       -4.470706    0.849330    0.654352
     27          1           0       -5.101365   -0.786835    0.503252
     28          1           0       -5.555432   -0.391472   -1.940963
     29          1           0       -4.921189    1.253990   -1.789005
     30          1           0       -6.407055    0.796264   -0.939300
     31          6           0       -2.339658   -0.927622    0.751125
     32          6           0       -0.949956   -1.426606    0.353975
     33          6           0       -0.111701   -1.860784    1.556726
     34          1           0       -2.233644   -0.085220    1.448631
     35          1           0       -2.865044   -1.722254    1.298369
     36          1           0       -0.427888   -0.630762   -0.192554
     37          1           0       -1.058547   -2.266927   -0.343654
     38          1           0       -0.608064   -2.671587    2.099703
     39          1           0        0.026178   -1.026125    2.251661
     40          1           0        0.877802   -2.213861    1.249998
 ---------------------------------------------------------------------

 SCF Done:  E(RHF) =  -470.732965228     A.U. after   11 cycles
 E2 =    -0.1584478460D+01 EUMP2 =    -0.47231744368764D+03

 The electronic state is 1-A.
 Alpha  occ. eigenvalues --  -11.21674 -11.21632 -11.21627 -11.21591 -11.21463
 Alpha  occ. eigenvalues --  -11.21403 -11.21388 -11.21320 -11.21178 -11.21130
 Alpha  occ. eigenvalues --  -11.21090 -11.21073  -1.08514  -1.08413  -1.03600
 Alpha  occ. eigenvalues --   -1.03538  -0.96060  -0.95977  -0.87068  -0.87004
 Alpha  occ. eigenvalues --   -0.79678  -0.79596  -0.78353  -0.78190  -0.65405
 Alpha  occ. eigenvalues --   -0.64854  -0.61143  -0.60771  -0.59426  -0.59347
 Alpha  occ. eigenvalues --   -0.57660  -0.57602  -0.55427  -0.55172  -0.52751
 Alpha  occ. eigenvalues --   -0.52690  -0.52476  -0.52407  -0.50036  -0.49920
 Alpha  occ. eigenvalues --   -0.48059  -0.47854  -0.46903  -0.46556  -0.46037
 Alpha  occ. eigenvalues --   -0.45818  -0.45719  -0.45318  -0.43825  -0.43790
 Alpha virt. eigenvalues --    0.18827   0.22143   0.23902   0.24453   0.25407
 Alpha virt. eigenvalues --    0.26259   0.26886   0.27867   0.28949   0.29179
 Alpha virt. eigenvalues --    0.30194   0.31672   0.31755   0.31928   0.32518

 Mulliken charges:
               1
     1  C   -0.302912
     2  C   -0.302724
     3  C   -0.476169
     4  H    0.149974
     5  H    0.153812
     6  H    0.152404
     7  H    0.154530
     8  H    0.154202
     9  H    0.155670
    10  H    0.160323
    11  C   -0.302848
    12  C   -0.300079
    13  C   -0.475638
    14  H    0.149401
    15  H    0.155140
    16  H    0.151935
    17  H    0.152144
    18  H    0.154654
    19  H    0.155315
    20  H    0.160303
    21  C   -0.298645
    22  C   -0.299744
    23  C   -0.475794
    24  H    0.149288
    25  H    0.149765
    26  H    0.152269
    27  H    0.152053
    28  H    0.155190
    29  H    0.155392
    30  H    0.160426
    31  C   -0.298075
    32  C   -0.307655
    33  C   -0.478899
    34  H    0.149909
    35  H    0.149982
    36  H    0.158830
    37  H    0.152290
    38  H    0.155888
    39  H    0.156471
    40  H    0.161624
 Sum of Mulliken charges =  -0.00000

 Dipole moment (field-independent basis, Debye):
    X=             -0.0144    Y=             -0.0114    Z=              0.0112  Tot=              0.0214
 Quadrupole moment (field-independent basis, Debye-Ang):
   XX=            -85.1280   YY=            -84.2007   ZZ=            -85.3522
   XY=              1.7519   XZ=             -0.7382   YZ=              0.3474

 Normal termination of Gaussian 16 at Thu May  6 07:06:39 2021.
