 Gaussian 16, Revision A.03,
 Gaussian 16:  EM64L-G16RevA.03 25-Dec-2016

 -------------
 #p 6-31g* mp2
 -------------

 ------------------------------------------------------
 Input file generated by CHIRIPA (05-May-2021 14:53:12)
 ------------------------------------------------------
 Symbolic Z-matrix:
 Charge =  0 Multiplicity = 1

                         Standard orientation:
 ---------------------------------------------------------------------
 Center     Atomic      Atomic             Coordinates (Angstroms)
 Number     Number       Type             X           Y           Z
 ---------------------------------------------------------------------
      1          6           0       -2.896287   -0.490600   -0.161113
      2          6           0       -4.239164   -1.191117   -0.370738
      3          6           0       -4.085857   -2.674942   -0.706229
      4          1           0       -2.286408   -0.601811   -1.068100
      5          1           0       -2.349417   -0.995622    0.647145
      6          1           0       -4.783929   -0.684067   -1.177427
      7          1           0       -4.845991   -1.078060    0.536784
      8          1           0       -3.564673   -3.200454    0.100497
      9          1           0       -3.502259   -2.804222   -1.623454
     10          1           0       -5.058013   -3.156105   -0.852015
     11          6           0       -3.033053    0.993331    0.175001
     12          6           0       -1.690176    1.693848    0.384625
     13          6           0       -1.843483    3.177673    0.720116
     14          1           0       -3.579923    1.498353   -0.633257
     15          1           0       -3.642931    1.104542    1.081988
     16          1           0       -1.083349    1.580792   -0.522896
     17          1           0       -1.145410    1.186798    1.191314
     18          1           0       -2.427080    3.306953    1.637341
     19          1           0       -2.364666    3.703185   -0.086609
     20          1           0       -0.871327    3.658836    0.865903
     21          6           0        2.169219   -1.069122    2.357340
     22          6           0        1.708501    0.216786    2.056175
     23          6           0        1.784943    0.710703    0.750514
     24          6           0        2.330353   -0.112005   -0.233848
     25          6           0        2.797845   -1.397534    0.034775
     26          6           0        2.711465   -1.870764    1.347458
     27          1           0        2.105977   -1.444775    3.374336
     28          1           0        1.286908    0.841572    2.838445
     29          1           0        1.435742    1.702375    0.489625
     30          1           0        3.213084   -1.996951   -0.766283
     31          1           0        3.070048   -2.869820    1.578438
     32          7           0        2.416540    0.399933   -1.619811
     33          8           0        2.901289   -0.344632   -2.469092
     34          8           0        1.997711    1.536060   -1.830602
 ---------------------------------------------------------------------

 SCF Done:  E(RHF) =  -669.535175229     A.U. after   15 cycles
 E2 =    -0.2093008191D+01 EUMP2 =    -0.67162818342016D+03

 The electronic state is 1-A.
 Alpha  occ. eigenvalues --  -20.60823 -20.60818 -15.85861 -11.31164 -11.27766
 Alpha  occ. eigenvalues --  -11.27735 -11.27512 -11.26754 -11.26741 -11.21700
 Alpha  occ. eigenvalues --  -11.21633 -11.21468 -11.21394 -11.21293 -11.21105
 Alpha  occ. eigenvalues --   -1.59888  -1.39444  -1.19361  -1.08764  -1.08508
 Alpha  occ. eigenvalues --   -1.04767  -1.03633  -0.96087  -0.95604  -0.87096
 Alpha  occ. eigenvalues --   -0.86161  -0.82445  -0.79723  -0.78349  -0.77458
 Alpha  occ. eigenvalues --   -0.72081  -0.71204  -0.70477  -0.65165  -0.64992
 Alpha  occ. eigenvalues --   -0.64762  -0.62142  -0.61020  -0.59451  -0.57701
 Alpha  occ. eigenvalues --   -0.55357  -0.55265  -0.53131  -0.52862  -0.52759
 Alpha  occ. eigenvalues --   -0.52500  -0.50010  -0.48843  -0.48837  -0.48017
 Alpha  occ. eigenvalues --   -0.46720  -0.45868  -0.45776  -0.44828  -0.43881
 Alpha  occ. eigenvalues --   -0.37346  -0.36282
 Alpha virt. eigenvalues --    0.05025   0.11244   0.16394   0.20496   0.22911
 Alpha virt. eigenvalues --    0.23858   0.26253   0.26381   0.27379   0.27943
 Alpha virt. eigenvalues --    0.29335   0.29856   0.31510   0.31533   0.32004

 Mulliken charges:
               1
     1  C   -0.298923
     2  C   -0.299737
     3  C   -0.475770
     4  H    0.153512
     5  H    0.147054
     6  H    0.153540
     7  H    0.150569
     8  H    0.153063
     9  H    0.157240
    10  H    0.160337
    11  C   -0.297632
    12  C   -0.310836
    13  C   -0.476194
    14  H    0.152407
    15  H    0.147484
    16  H    0.164270
    17  H    0.145827
    18  H    0.153359
    19  H    0.161165
    20  H    0.155573
    21  C   -0.170907
    22  C   -0.221297
    23  C   -0.165590
    24  C    0.156108
    25  C   -0.170436
    26  C   -0.219105
    27  H    0.225524
    28  H    0.223465
    29  H    0.280199
    30  H    0.275502
    31  H    0.223314
    32  N    0.488232
    33  O   -0.459934
    34  O   -0.461384
 Sum of Mulliken charges =  -0.00000

 Dipole moment (field-independent basis, Debye):
    X=             -0.3108    Y=             -1.8087    Z=              4.7640  Tot=              5.1053
 Quadrupole moment (field-independent basis, Debye-Ang):
   XX=            -96.0042   YY=            -92.0001   ZZ=            -96.3375
   XY=             -6.4591   XZ=             11.0793   YZ=              0.6119

 Normal termination of Gaussian 16 at Wed May  5 15:29:30 2021.
