 Gaussian 16, Revision A.03,
 Gaussian 16:  EM64L-G16RevA.03 25-Dec-2016

 -------------
 #p 6-31g* mp2
 -------------

 ------------------------------------------------------
 Input file generated by CHIRIPA (05-May-2021 14:53:16)
 ------------------------------------------------------
 Symbolic Z-matrix:
 Charge =  0 Multiplicity = 1

                         Standard orientation:
 ---------------------------------------------------------------------
 Center     Atomic      Atomic             Coordinates (Angstroms)
 Number     Number       Type             X           Y           Z
 ---------------------------------------------------------------------
      1          6           0       -4.932359    0.210119   -0.187678
      2          6           0       -5.437728   -1.232594   -0.221824
      3          6           0       -6.943140   -1.337610    0.024145
      4          1           0       -5.178115    0.655046    0.786277
      5          1           0       -5.470343    0.797730   -0.944435
      6          1           0       -4.897971   -1.817629    0.533829
      7          1           0       -5.190571   -1.674199   -1.195741
      8          1           0       -7.497669   -0.778199   -0.736222
      9          1           0       -7.203406   -0.922445    1.003176
     10          1           0       -7.283041   -2.377563   -0.004593
     11          6           0       -3.429241    0.331436   -0.431907
     12          6           0       -2.923872    1.774149   -0.397762
     13          6           0       -1.418460    1.879166   -0.643731
     14          1           0       -2.891257   -0.256175    0.324850
     15          1           0       -3.183485   -0.113490   -1.405863
     16          1           0       -3.171030    2.215754    0.576155
     17          1           0       -3.463630    2.359184   -1.153415
     18          1           0       -1.158194    1.464000   -1.622761
     19          1           0       -0.863931    1.319755    0.116636
     20          1           0       -1.078559    2.919118   -0.614992
     21          6           0        5.329972   -0.583010   -1.161181
     22          6           0        4.518603   -1.666590   -0.808969
     23          6           0        3.372759   -1.472526   -0.031841
     24          6           0        3.066737   -0.175633    0.377683
     25          6           0        3.855117    0.924270    0.043079
     26          6           0        4.996228    0.706689   -0.734784
     27          1           0        6.218254   -0.742898   -1.765158
     28          1           0        4.775342   -2.669291   -1.138699
     29          1           0        2.726969   -2.293481    0.255224
     30          1           0        3.573364    1.912181    0.386686
     31          1           0        5.624497    1.550090   -1.006808
     32          7           0        1.856188    0.042263    1.200782
     33          8           0        1.608384    1.194647    1.548980
     34          8           0        1.178087   -0.943461    1.482145
 ---------------------------------------------------------------------

 SCF Done:  E(RHF) =  -669.536339341     A.U. after   15 cycles
 E2 =    -0.2091100862D+01 EUMP2 =    -0.67162744020331D+03

 The electronic state is 1-A.
 Alpha  occ. eigenvalues --  -20.60947 -20.60929 -15.85958 -11.31269 -11.27831
 Alpha  occ. eigenvalues --  -11.27826 -11.27571 -11.26836 -11.26826 -11.20963
 Alpha  occ. eigenvalues --  -11.20637 -11.20607 -11.20545 -11.20429 -11.19832
 Alpha  occ. eigenvalues --   -1.59997  -1.39551  -1.19436  -1.08844  -1.07597
 Alpha  occ. eigenvalues --   -1.04830  -1.02684  -0.95688  -0.95126  -0.86232
 Alpha  occ. eigenvalues --   -0.86146  -0.82522  -0.78772  -0.77577  -0.77396
 Alpha  occ. eigenvalues --   -0.72177  -0.71314  -0.70547  -0.65091  -0.64835
 Alpha  occ. eigenvalues --   -0.64224  -0.62178  -0.60072  -0.58525  -0.56743
 Alpha  occ. eigenvalues --   -0.55341  -0.54402  -0.53161  -0.52923  -0.51834
 Alpha  occ. eigenvalues --   -0.51561  -0.49200  -0.48942  -0.48807  -0.47079
 Alpha  occ. eigenvalues --   -0.45812  -0.45009  -0.44927  -0.44752  -0.42942
 Alpha  occ. eigenvalues --   -0.37413  -0.36430
 Alpha virt. eigenvalues --    0.04918   0.11226   0.16415   0.21357   0.23691
 Alpha virt. eigenvalues --    0.25202   0.27275   0.27486   0.28175   0.28362
 Alpha virt. eigenvalues --    0.28883   0.30900   0.32265   0.32453   0.32576

 Mulliken charges:
               1
     1  C   -0.297746
     2  C   -0.299352
     3  C   -0.475262
     4  H    0.149843
     5  H    0.146651
     6  H    0.153796
     7  H    0.149852
     8  H    0.153623
     9  H    0.155083
    10  H    0.158345
    11  C   -0.300072
    12  C   -0.298212
    13  C   -0.483578
    14  H    0.158629
    15  H    0.145395
    16  H    0.153205
    17  H    0.146125
    18  H    0.145320
    19  H    0.177504
    20  H    0.156562
    21  C   -0.170500
    22  C   -0.218667
    23  C   -0.170748
    24  C    0.159469
    25  C   -0.170320
    26  C   -0.218662
    27  H    0.225911
    28  H    0.223722
    29  H    0.275787
    30  H    0.276076
    31  H    0.223784
    32  N    0.487810
    33  O   -0.458738
    34  O   -0.460636
 Sum of Mulliken charges =  -0.00000

 Dipole moment (field-independent basis, Debye):
    X=              4.5326    Y=             -0.8133    Z=             -2.7508  Tot=              5.3640
 Quadrupole moment (field-independent basis, Debye-Ang):
   XX=            -70.9271   YY=            -89.9515   ZZ=            -96.9739
   XY=             -2.2042   XZ=             -7.5736   YZ=              0.5890

 Normal termination of Gaussian 16 at Wed May  5 23:36:17 2021.
