 Gaussian 16, Revision A.03,
 Gaussian 16:  EM64L-G16RevA.03 25-Dec-2016

 -------------
 #p 6-31g* mp2
 -------------

 ------------------------------------------------------
 Input file generated by CHIRIPA (05-May-2021 14:55:21)
 ------------------------------------------------------
 Symbolic Z-matrix:
 Charge =  0 Multiplicity = 1

                         Standard orientation:
 ---------------------------------------------------------------------
 Center     Atomic      Atomic             Coordinates (Angstroms)
 Number     Number       Type             X           Y           Z
 ---------------------------------------------------------------------
      1          6           0        0.532154   -1.166854    0.022007
      2          6           0        0.809433    0.135846   -0.405322
      3          6           0        2.125513    0.606109   -0.441826
      4          6           0        3.144538   -0.257119   -0.042181
      5          6           0        2.900328   -1.560255    0.388502
      6          6           0        1.576645   -2.009262    0.416859
      7          1           0       -0.493162   -1.523910    0.047200
      8          1           0        0.000267    0.792282   -0.712546
      9          1           0        2.368453    1.610006   -0.768304
     10          1           0        3.728022   -2.191316    0.688674
     11          1           0        1.364271   -3.021439    0.749184
     12          7           0        4.541838    0.229475   -0.076514
     13          8           0        5.421805   -0.550708    0.280711
     14          8           0        4.730616    1.381838   -0.459999
     15          6           0       -3.094383    0.844000    0.142599
     16          6           0       -3.349874    2.350838    0.188933
     17          6           0       -2.068198    3.162106    0.381138
     18          1           0       -2.598413    0.533858    1.072529
     19          1           0       -2.393444    0.622939   -0.674231
     20          1           0       -4.051200    2.568834    1.004554
     21          1           0       -3.845467    2.657395   -0.741135
     22          1           0       -1.366630    2.973853   -0.437987
     23          1           0       -1.573531    2.884789    1.317621
     24          1           0       -2.273954    4.236633    0.411402
     25          6           0       -4.366087    0.019530   -0.049101
     26          6           0       -4.110595   -1.487309   -0.095434
     27          6           0       -5.392272   -2.298577   -0.287639
     28          1           0       -5.067026    0.240590    0.767730
     29          1           0       -4.862056    0.329670   -0.979031
     30          1           0       -3.615004   -1.793867    0.834633
     31          1           0       -3.409271   -1.705304   -0.911056
     32          1           0       -5.886938   -2.021260   -1.224123
     33          1           0       -6.093840   -2.110324    0.531485
     34          1           0       -5.186517   -3.373104   -0.317904
 ---------------------------------------------------------------------

 SCF Done:  E(RHF) =  -669.535295582     A.U. after   15 cycles
 E2 =    -0.2092576875D+01 EUMP2 =    -0.67162787245629D+03

 The electronic state is 1-A.
 Alpha  occ. eigenvalues --  -20.60666 -20.60661 -15.85717 -11.31053 -11.27624
 Alpha  occ. eigenvalues --  -11.27603 -11.27308 -11.26629 -11.26549 -11.22764
 Alpha  occ. eigenvalues --  -11.22692 -11.22608 -11.22447 -11.22091 -11.21970
 Alpha  occ. eigenvalues --   -1.59742  -1.39296  -1.19217  -1.09572  -1.08610
 Alpha  occ. eigenvalues --   -1.04638  -1.04566  -0.97025  -0.95453  -0.88038
 Alpha  occ. eigenvalues --   -0.86022  -0.82291  -0.80663  -0.79452  -0.77339
 Alpha  occ. eigenvalues --   -0.71936  -0.71065  -0.70308  -0.66217  -0.64864
 Alpha  occ. eigenvalues --   -0.64624  -0.62104  -0.61852  -0.60379  -0.58653
 Alpha  occ. eigenvalues --   -0.56310  -0.55096  -0.53678  -0.53459  -0.52949
 Alpha  occ. eigenvalues --   -0.52735  -0.50965  -0.48971  -0.48694  -0.48678
 Alpha  occ. eigenvalues --   -0.47680  -0.46897  -0.46853  -0.44857  -0.44709
 Alpha  occ. eigenvalues --   -0.37188  -0.36220
 Alpha virt. eigenvalues --    0.05180   0.11394   0.16659   0.19300   0.21939
 Alpha virt. eigenvalues --    0.22699   0.25037   0.25116   0.26291   0.28399
 Alpha virt. eigenvalues --    0.29698   0.30036   0.30920   0.31434   0.31721

 Mulliken charges:
               1
     1  C   -0.177599
     2  C   -0.225283
     3  C   -0.172821
     4  C    0.158595
     5  C   -0.171325
     6  C   -0.219170
     7  H    0.231234
     8  H    0.233607
     9  H    0.275146
    10  H    0.274956
    11  H    0.222834
    12  N    0.488003
    13  O   -0.460939
    14  O   -0.460721
    15  C   -0.305567
    16  C   -0.300582
    17  C   -0.478942
    18  H    0.151743
    19  H    0.142089
    20  H    0.156825
    21  H    0.155282
    22  H    0.148290
    23  H    0.159522
    24  H    0.167105
    25  C   -0.297454
    26  C   -0.303887
    27  C   -0.475952
    28  H    0.154206
    29  H    0.153452
    30  H    0.150113
    31  H    0.148782
    32  H    0.158226
    33  H    0.158326
    34  H    0.161906
 Sum of Mulliken charges =  -0.00000

 Dipole moment (field-independent basis, Debye):
    X=             -5.2877    Y=             -1.6119    Z=              0.1864  Tot=              5.5311
 Quadrupole moment (field-independent basis, Debye-Ang):
   XX=           -125.2354   YY=            -90.1131   ZZ=            -93.9367
   XY=             -6.5447   XZ=              0.8631   YZ=             -1.7158

 Normal termination of Gaussian 16 at Wed May  5 23:50:51 2021.
