 Gaussian 16, Revision A.03,
 Gaussian 16:  EM64L-G16RevA.03 25-Dec-2016

 -------------
 #p 6-31g* mp2
 -------------

 ------------------------------------------------------
 Input file generated by CHIRIPA (05-May-2021 14:53:17)
 ------------------------------------------------------
 Symbolic Z-matrix:
 Charge =  0 Multiplicity = 1

                         Standard orientation:
 ---------------------------------------------------------------------
 Center     Atomic      Atomic             Coordinates (Angstroms)
 Number     Number       Type             X           Y           Z
 ---------------------------------------------------------------------
      1          6           0        3.188927    0.843973   -0.428650
      2          6           0        2.495972    1.576568    0.720743
      3          6           0        1.386967    2.513607    0.241306
      4          1           0        3.606984    1.582293   -1.126544
      5          1           0        2.440641    0.269757   -0.992333
      6          1           0        3.245561    2.148131    1.282923
      7          1           0        2.079681    0.836418    1.416082
      8          1           0        0.618086    1.954437   -0.301606
      9          1           0        1.790591    3.273603   -0.435520
     10          1           0        0.905039    3.027010    1.079174
     11          6           0        4.299992   -0.096527    0.034732
     12          6           0        4.992947   -0.829121   -1.114661
     13          6           0        6.101952   -1.766160   -0.635224
     14          1           0        5.048277    0.477690    0.598415
     15          1           0        3.881934   -0.834847    0.732626
     16          1           0        5.409238   -0.088971   -1.809999
     17          1           0        4.243357   -1.400684   -1.676841
     18          1           0        5.698327   -2.526156    0.041603
     19          1           0        6.870832   -1.206990   -0.092312
     20          1           0        6.583879   -2.279564   -1.473092
     21          6           0       -4.767110    0.073925   -1.531355
     22          6           0       -4.582690   -1.189019   -0.959092
     23          6           0       -3.565439   -1.403265   -0.024294
     24          6           0       -2.747305   -0.327345    0.316796
     25          6           0       -2.905861    0.942612   -0.235799
     26          6           0       -3.929583    1.133841   -1.168521
     27          1           0       -5.559849    0.231416   -2.256722
     28          1           0       -5.231615   -2.014004   -1.238985
     29          1           0       -3.400443   -2.370709    0.434231
     30          1           0       -2.243079    1.745604    0.063104
     31          1           0       -4.070476    2.115737   -1.611323
     32          7           0       -1.666961   -0.541974    1.305326
     33          8           0       -0.959608    0.422287    1.589034
     34          8           0       -1.547997   -1.670397    1.777710
 ---------------------------------------------------------------------

 SCF Done:  E(RHF) =  -669.535982849     A.U. after   15 cycles
 E2 =    -0.2091850523D+01 EUMP2 =    -0.67162783337203D+03

 The electronic state is 1-A.
 Alpha  occ. eigenvalues --  -20.60961 -20.60950 -15.85981 -11.31292 -11.27854
 Alpha  occ. eigenvalues --  -11.27836 -11.27588 -11.26859 -11.26845 -11.21019
 Alpha  occ. eigenvalues --  -11.20631 -11.20559 -11.20536 -11.20410 -11.20077
 Alpha  occ. eigenvalues --   -1.60021  -1.39576  -1.19459  -1.08867  -1.07611
 Alpha  occ. eigenvalues --   -1.04850  -1.02695  -0.95719  -0.95176  -0.86258
 Alpha  occ. eigenvalues --   -0.86213  -0.82542  -0.78792  -0.77598  -0.77405
 Alpha  occ. eigenvalues --   -0.72217  -0.71338  -0.70565  -0.65119  -0.64854
 Alpha  occ. eigenvalues --   -0.64225  -0.62200  -0.60061  -0.58562  -0.56778
 Alpha  occ. eigenvalues --   -0.55358  -0.54472  -0.53185  -0.52943  -0.51887
 Alpha  occ. eigenvalues --   -0.51624  -0.49294  -0.48962  -0.48833  -0.47116
 Alpha  occ. eigenvalues --   -0.45790  -0.45065  -0.44866  -0.44807  -0.42970
 Alpha  occ. eigenvalues --   -0.37439  -0.36451
 Alpha virt. eigenvalues --    0.04891   0.11164   0.16381   0.21156   0.23670
 Alpha virt. eigenvalues --    0.24840   0.26678   0.27489   0.27828   0.28328
 Alpha virt. eigenvalues --    0.29178   0.30854   0.31605   0.32545   0.32794

 Mulliken charges:
               1
     1  C   -0.297463
     2  C   -0.303680
     3  C   -0.469268
     4  H    0.144550
     5  H    0.147119
     6  H    0.146439
     7  H    0.172960
     8  H    0.151489
     9  H    0.144109
    10  H    0.161737
    11  C   -0.298702
    12  C   -0.298842
    13  C   -0.475422
    14  H    0.147909
    15  H    0.153977
    16  H    0.149592
    17  H    0.150645
    18  H    0.156166
    19  H    0.154376
    20  H    0.157793
    21  C   -0.170478
    22  C   -0.218587
    23  C   -0.170764
    24  C    0.157248
    25  C   -0.172980
    26  C   -0.218895
    27  H    0.226027
    28  H    0.223789
    29  H    0.275685
    30  H    0.279536
    31  H    0.224286
    32  N    0.490041
    33  O   -0.460845
    34  O   -0.459547
 Sum of Mulliken charges =  -0.00000

 Dipole moment (field-independent basis, Debye):
    X=             -4.0423    Y=              0.6474    Z=             -3.3128  Tot=              5.2664
 Quadrupole moment (field-independent basis, Debye-Ang):
   XX=            -75.0083   YY=            -91.1341   ZZ=            -97.7279
   XY=              1.5126   XZ=              8.7693   YZ=              1.0792

 Normal termination of Gaussian 16 at Thu May  6 17:15:51 2021.
