 Gaussian 16, Revision A.03,
 Gaussian 16:  EM64L-G16RevA.03 25-Dec-2016

 -------------
 #p 6-31g* mp2
 -------------

 ------------------------------------------------------
 Input file generated by CHIRIPA (05-May-2021 14:53:15)
 ------------------------------------------------------
 Symbolic Z-matrix:
 Charge =  0 Multiplicity = 1

                         Standard orientation:
 ---------------------------------------------------------------------
 Center     Atomic      Atomic             Coordinates (Angstroms)
 Number     Number       Type             X           Y           Z
 ---------------------------------------------------------------------
      1          6           0       -5.700911   -0.236821   -0.293575
      2          6           0       -6.522786   -0.895245    0.815021
      3          6           0       -7.833423   -1.493697    0.303279
      4          1           0       -6.302944    0.548846   -0.770262
      5          1           0       -5.485636   -0.981464   -1.072393
      6          1           0       -6.735268   -0.149932    1.592181
      7          1           0       -5.918659   -1.679306    1.289252
      8          1           0       -7.637557   -2.257041   -0.456683
      9          1           0       -8.458806   -0.718978   -0.152032
     10          1           0       -8.405087   -1.959168    1.112227
     11          6           0       -4.387806    0.366070    0.202413
     12          6           0       -3.565931    1.024494   -0.906183
     13          6           0       -2.255294    1.622946   -0.394442
     14          1           0       -4.603080    1.110713    0.981231
     15          1           0       -3.785773   -0.419596    0.679100
     16          1           0       -4.170058    1.808555   -1.380414
     17          1           0       -3.353449    0.279182   -1.683343
     18          1           0       -1.629911    0.848228    0.060870
     19          1           0       -2.451160    2.386291    0.365520
     20          1           0       -1.683630    2.088418   -1.203389
     21          6           0        1.660743    1.027905   -0.026445
     22          6           0        2.472207    1.170950    1.103857
     23          6           0        3.737384    0.577811    1.149271
     24          6           0        4.161343   -0.154743    0.041609
     25          6           0        3.376121   -0.315419   -1.098960
     26          6           0        2.114489    0.286484   -1.122314
     27          1           0        0.679301    1.492075   -0.053156
     28          1           0        2.122423    1.746179    1.956387
     29          1           0        4.386118    0.672529    2.011589
     30          1           0        3.752209   -0.894823   -1.933387
     31          1           0        1.486446    0.173714   -2.001456
     32          7           0        5.498852   -0.787313    0.078010
     33          8           0        5.849223   -1.427639   -0.910857
     34          8           0        6.171495   -0.630816    1.094720
 ---------------------------------------------------------------------

 SCF Done:  E(RHF) =  -669.535478753     A.U. after   15 cycles
 E2 =    -0.2090993223D+01 EUMP2 =    -0.67162647197632D+03

 The electronic state is 1-A.
 Alpha  occ. eigenvalues --  -20.60701 -20.60696 -15.85755 -11.31099 -11.27672
 Alpha  occ. eigenvalues --  -11.27667 -11.27310 -11.26666 -11.26654 -11.22602
 Alpha  occ. eigenvalues --  -11.22443 -11.22163 -11.22103 -11.21980 -11.21482
 Alpha  occ. eigenvalues --   -1.59777  -1.39331  -1.19266  -1.09175  -1.08656
 Alpha  occ. eigenvalues --   -1.04670  -1.04327  -0.96814  -0.95494  -0.87846
 Alpha  occ. eigenvalues --   -0.86063  -0.82337  -0.80413  -0.78935  -0.77392
 Alpha  occ. eigenvalues --   -0.71972  -0.71101  -0.70369  -0.65798  -0.64913
 Alpha  occ. eigenvalues --   -0.64676  -0.62023  -0.61721  -0.60216  -0.58384
 Alpha  occ. eigenvalues --   -0.56181  -0.55152  -0.53453  -0.53216  -0.52989
 Alpha  occ. eigenvalues --   -0.52758  -0.50721  -0.48745  -0.48729  -0.48693
 Alpha  occ. eigenvalues --   -0.47403  -0.46489  -0.46377  -0.44742  -0.44560
 Alpha  occ. eigenvalues --   -0.37229  -0.36284
 Alpha virt. eigenvalues --    0.05129   0.11370   0.16569   0.20710   0.22269
 Alpha virt. eigenvalues --    0.23722   0.25927   0.26128   0.26796   0.27434
 Alpha virt. eigenvalues --    0.29005   0.30457   0.30580   0.30847   0.31930

 Mulliken charges:
               1
     1  C   -0.299011
     2  C   -0.300218
     3  C   -0.476116
     4  H    0.150797
     5  H    0.150524
     6  H    0.152482
     7  H    0.152765
     8  H    0.155903
     9  H    0.155759
    10  H    0.161818
    11  C   -0.299577
    12  C   -0.299002
    13  C   -0.485558
    14  H    0.150614
    15  H    0.150820
    16  H    0.155746
    17  H    0.153437
    18  H    0.153224
    19  H    0.159559
    20  H    0.157164
    21  C   -0.179049
    22  C   -0.221285
    23  C   -0.170700
    24  C    0.158091
    25  C   -0.170804
    26  C   -0.222167
    27  H    0.241402
    28  H    0.223528
    29  H    0.275163
    30  H    0.275143
    31  H    0.222975
    32  N    0.488045
    33  O   -0.460770
    34  O   -0.460706
 Sum of Mulliken charges =  -0.00000

 Dipole moment (field-independent basis, Debye):
    X=             -5.0108    Y=              2.2263    Z=             -0.1207  Tot=              5.4844
 Quadrupole moment (field-independent basis, Debye-Ang):
   XX=           -134.4665   YY=            -94.9209   ZZ=            -90.6927
   XY=              9.4891   XZ=             -0.2220   YZ=              2.1631

 Normal termination of Gaussian 16 at Thu May  6 04:16:40 2021.
