 Gaussian 16, Revision A.03,
 Gaussian 16:  EM64L-G16RevA.03 25-Dec-2016

 -------------
 #p 6-31g* mp2
 -------------

 ------------------------------------------------------
 Input file generated by CHIRIPA (05-May-2021 14:51:11)
 ------------------------------------------------------
 Symbolic Z-matrix:
 Charge =  0 Multiplicity = 1

                         Standard orientation:
 ---------------------------------------------------------------------
 Center     Atomic      Atomic             Coordinates (Angstroms)
 Number     Number       Type             X           Y           Z
 ---------------------------------------------------------------------
      1          6           0        3.512299   -0.725130   -0.143269
      2          6           0        4.044765    0.571890   -0.753354
      3          6           0        5.468608    0.430723   -1.292371
      4          1           0        4.182549   -1.044115    0.666644
      5          1           0        3.540722   -1.518311   -0.903171
      6          1           0        4.014052    1.362730    0.007070
      7          1           0        3.373065    0.887926   -1.561782
      8          1           0        5.511654   -0.338836   -2.069884
      9          1           0        6.156283    0.138665   -0.492118
     10          1           0        5.829428    1.369567   -1.723927
     11          6           0        2.089990   -0.599902    0.399946
     12          6           0        1.557523   -1.896922    1.010031
     13          6           0        0.133681   -1.755756    1.549048
     14          1           0        2.061567    0.193279    1.159847
     15          1           0        1.419740   -0.280917   -0.409967
     16          1           0        2.229223   -2.212959    1.818459
     17          1           0        1.588236   -2.687762    0.249607
     18          1           0       -0.553995   -1.463697    0.748795
     19          1           0        0.090634   -0.986196    2.326561
     20          1           0       -0.227139   -2.694600    1.980604
     21          6           0       -2.601730    1.393877   -0.034647
     22          6           0       -1.249112    1.569834    0.656330
     23          6           0       -0.864005    3.038501    0.836614
     24          1           0       -2.573015    1.889836   -1.014517
     25          1           0       -3.375352    1.907285    0.552989
     26          1           0       -0.478494    1.055074    0.068296
     27          1           0       -1.280989    1.073234    1.634588
     28          1           0       -1.611557    3.561266    1.441993
     29          1           0       -0.804502    3.543004   -0.133199
     30          1           0        0.106245    3.141164    1.332535
     31          6           0       -3.000558   -0.068844   -0.222030
     32          6           0       -4.353176   -0.244802   -0.913007
     33          6           0       -4.738283   -1.713469   -1.093291
     34          1           0       -2.226936   -0.582253   -0.809665
     35          1           0       -3.029274   -0.564803    0.757840
     36          1           0       -4.321300    0.251799   -1.891265
     37          1           0       -5.123795    0.269958   -0.324972
     38          1           0       -4.797787   -2.217972   -0.123478
     39          1           0       -3.990732   -2.236234   -1.698670
     40          1           0       -5.708533   -1.816131   -1.589211
 ---------------------------------------------------------------------

 SCF Done:  E(RHF) =  -470.730747620     A.U. after   11 cycles
 E2 =    -0.1585605303D+01 EUMP2 =    -0.47231635292364D+03

 The electronic state is 1-A.
 Alpha  occ. eigenvalues --  -11.21608 -11.21599 -11.21544 -11.21415 -11.21396
 Alpha  occ. eigenvalues --  -11.21386 -11.21336 -11.21308 -11.21076 -11.21072
 Alpha  occ. eigenvalues --  -11.20991 -11.20851  -1.08475  -1.08353  -1.03546
 Alpha  occ. eigenvalues --   -1.03432  -0.95984  -0.95908  -0.86966  -0.86964
 Alpha  occ. eigenvalues --   -0.79766  -0.79470  -0.78496  -0.77899  -0.65166
 Alpha  occ. eigenvalues --   -0.64938  -0.60989  -0.60808  -0.59476  -0.59167
 Alpha  occ. eigenvalues --   -0.57674  -0.57477  -0.55263  -0.55209  -0.52707
 Alpha  occ. eigenvalues --   -0.52634  -0.52372  -0.52340  -0.49910  -0.49880
 Alpha  occ. eigenvalues --   -0.48246  -0.47685  -0.46910  -0.46499  -0.46126
 Alpha  occ. eigenvalues --   -0.45808  -0.45516  -0.44841  -0.43753  -0.43727
 Alpha virt. eigenvalues --    0.21633   0.23217   0.23795   0.24069   0.24971
 Alpha virt. eigenvalues --    0.25969   0.26664   0.27794   0.28654   0.29746
 Alpha virt. eigenvalues --    0.30431   0.31186   0.31651   0.31897   0.32021

 Mulliken charges:
               1
     1  C   -0.297365
     2  C   -0.299535
     3  C   -0.475686
     4  H    0.149734
     5  H    0.149293
     6  H    0.151913
     7  H    0.151445
     8  H    0.155137
     9  H    0.155251
    10  H    0.160279
    11  C   -0.301343
    12  C   -0.299553
    13  C   -0.482638
    14  H    0.150629
    15  H    0.150693
    16  H    0.151253
    17  H    0.151027
    18  H    0.166303
    19  H    0.155115
    20  H    0.158126
    21  C   -0.297165
    22  C   -0.307760
    23  C   -0.475352
    24  H    0.148705
    25  H    0.149036
    26  H    0.160098
    27  H    0.154807
    28  H    0.154443
    29  H    0.154412
    30  H    0.159513
    31  C   -0.302415
    32  C   -0.298645
    33  C   -0.475749
    34  H    0.148508
    35  H    0.153095
    36  H    0.151713
    37  H    0.152119
    38  H    0.155491
    39  H    0.154796
    40  H    0.160272
 Sum of Mulliken charges =  -0.00000

 Dipole moment (field-independent basis, Debye):
    X=             -0.0169    Y=             -0.0067    Z=              0.0030  Tot=              0.0184
 Quadrupole moment (field-independent basis, Debye-Ang):
   XX=            -85.7109   YY=            -85.9834   ZZ=            -83.3870
   XY=             -0.2838   XZ=              0.2231   YZ=              0.1244

 Normal termination of Gaussian 16 at Wed May  5 19:52:54 2021.
