 Gaussian 16, Revision A.03,
 Gaussian 16:  EM64L-G16RevA.03 25-Dec-2016

 -------------
 #p 6-31g* mp2
 -------------

 ------------------------------------------------------
 Input file generated by CHIRIPA (05-May-2021 14:53:15)
 ------------------------------------------------------
 Symbolic Z-matrix:
 Charge =  0 Multiplicity = 1

                         Standard orientation:
 ---------------------------------------------------------------------
 Center     Atomic      Atomic             Coordinates (Angstroms)
 Number     Number       Type             X           Y           Z
 ---------------------------------------------------------------------
      1          6           0        3.529699    0.895324   -0.220990
      2          6           0        2.170738    1.470474   -0.621508
      3          6           0        2.114715    2.993666   -0.500918
      4          1           0        3.755780    1.191302    0.812561
      5          1           0        4.309902    1.342973   -0.852091
      6          1           0        1.393169    1.020842    0.009231
      7          1           0        1.947779    1.172931   -1.654162
      8          1           0        2.869480    3.458970   -1.143118
      9          1           0        2.311719    3.306017    0.529726
     10          1           0        1.134421    3.383656   -0.792110
     11          6           0        3.601310   -0.626293   -0.336240
     12          6           0        4.960270   -1.201443    0.064278
     13          6           0        5.016294   -2.724635   -0.056313
     14          1           0        2.821107   -1.073942    0.294861
     15          1           0        3.375229   -0.922271   -1.369792
     16          1           0        5.183230   -0.903900    1.096932
     17          1           0        5.737840   -0.751811   -0.566461
     18          1           0        4.819290   -3.036986   -1.086957
     19          1           0        4.261528   -3.189939    0.585887
     20          1           0        5.996587   -3.114624    0.234879
     21          6           0       -1.249454    0.814334    1.995585
     22          6           0       -2.074112   -0.279054    2.280125
     23          6           0       -2.929189   -0.796800    1.302714
     24          6           0       -2.934054   -0.193977    0.045785
     25          6           0       -2.124321    0.896421   -0.268306
     26          6           0       -1.277141    1.397553    0.724519
     27          1           0       -0.588276    1.210079    2.760848
     28          1           0       -2.054711   -0.734002    3.266376
     29          1           0       -3.578107   -1.642357    1.495997
     30          1           0       -2.165804    1.328742   -1.260675
     31          1           0       -0.637800    2.246788    0.500712
     32          7           0       -3.835106   -0.733298   -0.997114
     33          8           0       -3.820698   -0.184316   -2.096681
     34          8           0       -4.538697   -1.694785   -0.695223
 ---------------------------------------------------------------------

 SCF Done:  E(RHF) =  -669.534323571     A.U. after   15 cycles
 E2 =    -0.2092967230D+01 EUMP2 =    -0.67162729080151D+03

 The electronic state is 1-A.
 Alpha  occ. eigenvalues --  -20.60771 -20.60766 -15.85823 -11.31204 -11.27758
 Alpha  occ. eigenvalues --  -11.27743 -11.27505 -11.26794 -11.26718 -11.22253
 Alpha  occ. eigenvalues --  -11.22083 -11.21972 -11.21961 -11.21798 -11.21356
 Alpha  occ. eigenvalues --   -1.59845  -1.39398  -1.19374  -1.08985  -1.08763
 Alpha  occ. eigenvalues --   -1.04789  -1.04115  -0.96590  -0.95600  -0.87594
 Alpha  occ. eigenvalues --   -0.86181  -0.82434  -0.80181  -0.78757  -0.77474
 Alpha  occ. eigenvalues --   -0.72042  -0.71168  -0.70478  -0.65693  -0.65021
 Alpha  occ. eigenvalues --   -0.64790  -0.62250  -0.61435  -0.59940  -0.58172
 Alpha  occ. eigenvalues --   -0.55876  -0.55260  -0.53338  -0.53167  -0.53028
 Alpha  occ. eigenvalues --   -0.52700  -0.50506  -0.48800  -0.48796  -0.48494
 Alpha  occ. eigenvalues --   -0.47196  -0.46297  -0.46204  -0.44800  -0.44359
 Alpha  occ. eigenvalues --   -0.37333  -0.36317
 Alpha virt. eigenvalues --    0.05048   0.11174   0.16517   0.20121   0.22675
 Alpha virt. eigenvalues --    0.23890   0.25978   0.26278   0.27085   0.28099
 Alpha virt. eigenvalues --    0.29138   0.30096   0.30941   0.31689   0.32323

 Mulliken charges:
               1
     1  C   -0.297279
     2  C   -0.309332
     3  C   -0.481495
     4  H    0.147232
     5  H    0.151401
     6  H    0.155612
     7  H    0.156191
     8  H    0.163560
     9  H    0.153398
    10  H    0.152786
    11  C   -0.298845
    12  C   -0.300006
    13  C   -0.475942
    14  H    0.149691
    15  H    0.152472
    16  H    0.150807
    17  H    0.152909
    18  H    0.156961
    19  H    0.155091
    20  H    0.161117
    21  C   -0.174418
    22  C   -0.218055
    23  C   -0.171231
    24  C    0.158896
    25  C   -0.173747
    26  C   -0.220924
    27  H    0.225897
    28  H    0.223374
    29  H    0.275603
    30  H    0.275701
    31  H    0.235147
    32  N    0.488078
    33  O   -0.460228
    34  O   -0.460422
 Sum of Mulliken charges =  -0.00000

 Dipole moment (field-independent basis, Debye):
    X=              3.2661    Y=              1.8411    Z=              3.6225  Tot=              5.2134
 Quadrupole moment (field-independent basis, Debye-Ang):
   XX=           -113.1947   YY=            -94.7750   ZZ=            -91.7441
   XY=             -4.7145   XZ=            -12.4371   YZ=             -3.3663

 Normal termination of Gaussian 16 at Thu May  6 09:00:55 2021.
