 Gaussian 16, Revision A.03,
 Gaussian 16:  EM64L-G16RevA.03 25-Dec-2016

 -------------
 #p 6-31g* mp2
 -------------

 ------------------------------------------------------
 Input file generated by CHIRIPA (05-May-2021 14:53:17)
 ------------------------------------------------------
 Symbolic Z-matrix:
 Charge =  0 Multiplicity = 1

                         Standard orientation:
 ---------------------------------------------------------------------
 Center     Atomic      Atomic             Coordinates (Angstroms)
 Number     Number       Type             X           Y           Z
 ---------------------------------------------------------------------
      1          6           0        4.588137    0.240383    0.103865
      2          6           0        5.665689   -0.793671   -0.224158
      3          6           0        7.074285   -0.309478    0.121109
      4          1           0        4.802159    1.169408   -0.442076
      5          1           0        4.640147    0.487245    1.173327
      6          1           0        5.610759   -1.039538   -1.292403
      7          1           0        5.448970   -1.720405    0.322479
      8          1           0        7.152565   -0.082366    1.189235
      9          1           0        7.315273    0.602370   -0.434822
     10          1           0        7.828932   -1.064145   -0.121469
     11          6           0        3.174616   -0.229078   -0.235684
     12          6           0        2.097063    0.804976    0.092339
     13          6           0        0.688468    0.320783   -0.252928
     14          1           0        3.122606   -0.475940   -1.305146
     15          1           0        2.960593   -1.158103    0.310257
     16          1           0        2.313782    1.731711   -0.454298
     17          1           0        2.151994    1.050843    1.160584
     18          1           0        0.447480   -0.591065    0.303003
     19          1           0        0.610187    0.093671   -1.321054
     20          1           0       -0.066180    1.075451   -0.010349
     21          6           0       -2.581162    2.477991    0.057185
     22          6           0       -2.944490    1.835280   -1.130854
     23          6           0       -3.196834    0.460270   -1.145766
     24          6           0       -3.075942   -0.244406    0.050941
     25          6           0       -2.715797    0.367349    1.250667
     26          6           0       -2.468174    1.743269    1.242065
     27          1           0       -2.386969    3.546485    0.059635
     28          1           0       -3.033007    2.403344   -2.052544
     29          1           0       -3.479740   -0.062525   -2.051339
     30          1           0       -2.635665   -0.225575    2.153683
     31          1           0       -2.186179    2.239763    2.166196
     32          7           0       -3.340588   -1.700549    0.047602
     33          8           0       -3.227238   -2.298871    1.115216
     34          8           0       -3.656355   -2.215979   -1.022567
 ---------------------------------------------------------------------

 SCF Done:  E(RHF) =  -669.533948096     A.U. after   15 cycles
 E2 =    -0.2093794844D+01 EUMP2 =    -0.67162774294054D+03

 The electronic state is 1-A.
 Alpha  occ. eigenvalues --  -20.60791 -20.60786 -15.85843 -11.31229 -11.27812
 Alpha  occ. eigenvalues --  -11.27773 -11.27535 -11.26823 -11.26783 -11.21659
 Alpha  occ. eigenvalues --  -11.21603 -11.21422 -11.21351 -11.21091 -11.20863
 Alpha  occ. eigenvalues --   -1.59864  -1.39418  -1.19418  -1.08810  -1.08443
 Alpha  occ. eigenvalues --   -1.04816  -1.03532  -0.95972  -0.95632  -0.86993
 Alpha  occ. eigenvalues --   -0.86211  -0.82460  -0.79612  -0.78264  -0.77503
 Alpha  occ. eigenvalues --   -0.72063  -0.71183  -0.70519  -0.65080  -0.65060
 Alpha  occ. eigenvalues --   -0.64815  -0.62156  -0.60939  -0.59454  -0.57641
 Alpha  occ. eigenvalues --   -0.55318  -0.55263  -0.53862  -0.52903  -0.52419
 Alpha  occ. eigenvalues --   -0.51806  -0.49917  -0.48823  -0.48816  -0.47920
 Alpha  occ. eigenvalues --   -0.46654  -0.45801  -0.45736  -0.44817  -0.43730
 Alpha  occ. eigenvalues --   -0.37359  -0.36369
 Alpha virt. eigenvalues --    0.05020   0.11186   0.16485   0.21366   0.22857
 Alpha virt. eigenvalues --    0.24383   0.26608   0.27281   0.27427   0.28048
 Alpha virt. eigenvalues --    0.28284   0.30868   0.31375   0.31837   0.32358

 Mulliken charges:
               1
     1  C   -0.298018
     2  C   -0.299755
     3  C   -0.475662
     4  H    0.148220
     5  H    0.148595
     6  H    0.152256
     7  H    0.153115
     8  H    0.154855
     9  H    0.154473
    10  H    0.160719
    11  C   -0.298409
    12  C   -0.298948
    13  C   -0.483325
    14  H    0.149988
    15  H    0.151900
    16  H    0.148186
    17  H    0.148226
    18  H    0.155353
    19  H    0.153244
    20  H    0.167907
    21  C   -0.173498
    22  C   -0.215516
    23  C   -0.170304
    24  C    0.162914
    25  C   -0.167452
    26  C   -0.221303
    27  H    0.226068
    28  H    0.223809
    29  H    0.275934
    30  H    0.275580
    31  H    0.223861
    32  N    0.487755
    33  O   -0.460573
    34  O   -0.460197
 Sum of Mulliken charges =  -0.00000

 Dipole moment (field-independent basis, Debye):
    X=              0.7940    Y=              5.1113    Z=              0.0058  Tot=              5.1726
 Quadrupole moment (field-independent basis, Debye-Ang):
   XX=           -102.3637   YY=            -97.8157   ZZ=            -89.1130
   XY=            -16.5780   XZ=              0.8716   YZ=             -0.3920

 Normal termination of Gaussian 16 at Thu May  6 12:16:31 2021.
