 Gaussian 16, Revision A.03,
 Gaussian 16:  EM64L-G16RevA.03 25-Dec-2016

 -------------
 #p 6-31g* mp2
 -------------

 ------------------------------------------------------
 Input file generated by CHIRIPA (05-May-2021 14:55:23)
 ------------------------------------------------------
 Symbolic Z-matrix:
 Charge =  0 Multiplicity = 1

                         Standard orientation:
 ---------------------------------------------------------------------
 Center     Atomic      Atomic             Coordinates (Angstroms)
 Number     Number       Type             X           Y           Z
 ---------------------------------------------------------------------
      1          6           0        3.460914   -1.911699   -0.861539
      2          6           0        2.395132   -1.444657   -1.637748
      3          6           0        1.806974   -0.206144   -1.364428
      4          6           0        2.312001    0.542653   -0.302572
      5          6           0        3.372593    0.104634    0.488993
      6          6           0        3.945389   -1.136929    0.197487
      7          1           0        3.911843   -2.874990   -1.080924
      8          1           0        2.016817   -2.044215   -2.460824
      9          1           0        0.980757    0.179518   -1.949277
     10          1           0        3.727951    0.724840    1.302924
     11          1           0        4.772972   -1.497114    0.801986
     12          7           0        1.697476    1.855426   -0.003594
     13          8           0        2.160782    2.496090    0.937435
     14          8           0        0.764142    2.218855   -0.715945
     15          6           0       -2.631036   -0.922477    0.795115
     16          6           0       -1.361486   -0.294682    1.371395
     17          6           0       -0.455463   -1.317242    2.057899
     18          1           0       -3.184630   -1.421491    1.602247
     19          1           0       -2.351049   -1.705927    0.077333
     20          1           0       -1.643785    0.488296    2.086846
     21          1           0       -0.810946    0.203060    0.562832
     22          1           0       -0.145221   -2.093210    1.350632
     23          1           0       -0.982792   -1.806353    2.883307
     24          1           0        0.446158   -0.846971    2.462597
     25          6           0       -3.546967    0.087168    0.105613
     26          6           0       -4.816518   -0.540628   -0.470668
     27          6           0       -5.722540    0.481934   -1.157171
     28          1           0       -3.826954    0.870618    0.823394
     29          1           0       -2.993373    0.586183   -0.701520
     30          1           0       -5.367057   -1.038369    0.337896
     31          1           0       -4.534219   -1.323605   -1.186119
     32          1           0       -5.195211    0.971043   -1.982579
     33          1           0       -6.032782    1.257900   -0.449905
     34          1           0       -6.624162    0.011661   -1.561871
 ---------------------------------------------------------------------

 SCF Done:  E(RHF) =  -669.535967200     A.U. after   15 cycles
 E2 =    -0.2093339874D+01 EUMP2 =    -0.67162930707369D+03

 The electronic state is 1-A.
 Alpha  occ. eigenvalues --  -20.60931 -20.60920 -15.85938 -11.31273 -11.27843
 Alpha  occ. eigenvalues --  -11.27833 -11.27571 -11.26856 -11.26838 -11.21314
 Alpha  occ. eigenvalues --  -11.21134 -11.21066 -11.20941 -11.20834 -11.20773
 Alpha  occ. eigenvalues --   -1.59977  -1.39537  -1.19442  -1.08845  -1.08076
 Alpha  occ. eigenvalues --   -1.04843  -1.03209  -0.95693  -0.95668  -0.86689
 Alpha  occ. eigenvalues --   -0.86244  -0.82523  -0.79262  -0.77882  -0.77567
 Alpha  occ. eigenvalues --   -0.72172  -0.71302  -0.70553  -0.65105  -0.64854
 Alpha  occ. eigenvalues --   -0.64706  -0.62195  -0.60617  -0.59039  -0.57279
 Alpha  occ. eigenvalues --   -0.55345  -0.54996  -0.53139  -0.52936  -0.52353
 Alpha  occ. eigenvalues --   -0.52093  -0.49618  -0.48943  -0.48928  -0.47596
 Alpha  occ. eigenvalues --   -0.46348  -0.45539  -0.45383  -0.44662  -0.43454
 Alpha  occ. eigenvalues --   -0.37397  -0.36427
 Alpha virt. eigenvalues --    0.04938   0.11128   0.16424   0.21242   0.23073
 Alpha virt. eigenvalues --    0.24410   0.26605   0.27333   0.27599   0.28067
 Alpha virt. eigenvalues --    0.28675   0.30850   0.31568   0.31894   0.32075

 Mulliken charges:
               1
     1  C   -0.170425
     2  C   -0.218622
     3  C   -0.172507
     4  C    0.161126
     5  C   -0.171250
     6  C   -0.217778
     7  H    0.226029
     8  H    0.223737
     9  H    0.275075
    10  H    0.275782
    11  H    0.223917
    12  N    0.489144
    13  O   -0.457999
    14  O   -0.458866
    15  C   -0.297450
    16  C   -0.307149
    17  C   -0.476036
    18  H    0.148167
    19  H    0.143467
    20  H    0.157000
    21  H    0.158017
    22  H    0.150986
    23  H    0.153735
    24  H    0.158737
    25  C   -0.298976
    26  C   -0.299241
    27  C   -0.475451
    28  H    0.152274
    29  H    0.154567
    30  H    0.150757
    31  H    0.148437
    32  H    0.155998
    33  H    0.156441
    34  H    0.158354
 Sum of Mulliken charges =  -0.00000

 Dipole moment (field-independent basis, Debye):
    X=              2.2883    Y=             -4.4784    Z=             -1.0712  Tot=              5.1420
 Quadrupole moment (field-independent basis, Debye-Ang):
   XX=            -83.4853   YY=           -100.8162   ZZ=            -91.1566
   XY=             -9.2115   XZ=             -1.2088   YZ=              2.0870

 Normal termination of Gaussian 16 at Wed May  5 22:21:47 2021.
