 Gaussian 16, Revision A.03,
 Gaussian 16:  EM64L-G16RevA.03 25-Dec-2016

 -------------
 #p 6-31g* mp2
 -------------

 ------------------------------------------------------
 Input file generated by CHIRIPA (05-May-2021 14:57:23)
 ------------------------------------------------------
 Symbolic Z-matrix:
 Charge =  0 Multiplicity = 1

                         Standard orientation:
 ---------------------------------------------------------------------
 Center     Atomic      Atomic             Coordinates (Angstroms)
 Number     Number       Type             X           Y           Z
 ---------------------------------------------------------------------
      1          6           0       -4.955069    1.976984   -0.146016
      2          6           0       -5.200118    0.893823   -0.996448
      3          6           0       -4.452753   -0.282127   -0.881836
      4          6           0       -3.463637   -0.340778    0.098724
      5          6           0       -3.195711    0.721338    0.960939
      6          6           0       -3.955410    1.887442    0.828246
      7          1           0       -5.540430    2.886666   -0.242072
      8          1           0       -5.975830    0.960536   -1.753986
      9          1           0       -4.621482   -1.135729   -1.527058
     10          1           0       -2.415749    0.625052    1.706463
     11          1           0       -3.762903    2.727061    1.490082
     12          7           0       -2.665906   -1.580492    0.229630
     13          8           0       -1.800145   -1.607019    1.101633
     14          8           0       -2.921512   -2.502179   -0.542249
     15          6           0        3.288258   -2.366844   -0.004764
     16          6           0        4.574794   -1.820589   -0.059077
     17          6           0        4.756722   -0.435014   -0.099524
     18          6           0        3.624778    0.378468   -0.084148
     19          6           0        2.330107   -0.135561   -0.030385
     20          6           0        2.171989   -1.524073    0.009383
     21          1           0        3.156180   -3.444333    0.026393
     22          1           0        5.443533   -2.472673   -0.070182
     23          1           0        5.741366    0.014542   -0.141880
     24          1           0        1.483380    0.539994   -0.020563
     25          1           0        1.171658   -1.945508    0.051531
     26          7           0        3.804774    1.846869   -0.126608
     27          8           0        2.791256    2.541998   -0.112008
     28          8           0        4.955964    2.274866   -0.173683
 ---------------------------------------------------------------------

 SCF Done:  E(RHF) =  -868.340623851     A.U. after   15 cycles
 E2 =    -0.2598210159D+01 EUMP2 =    -0.87093883401074D+03

 The electronic state is 1-A.
 Alpha  occ. eigenvalues --  -20.61610 -20.61577 -20.60360 -20.60349 -15.86607
 Alpha  occ. eigenvalues --  -15.85398 -11.31638 -11.30544 -11.28164 -11.28156
 Alpha  occ. eigenvalues --  -11.27829 -11.27103 -11.27093 -11.27073 -11.27007
 Alpha  occ. eigenvalues --  -11.26696 -11.26086 -11.25813  -1.60660  -1.59435
 Alpha  occ. eigenvalues --   -1.40220  -1.38995  -1.19776  -1.18664  -1.09232
 Alpha  occ. eigenvalues --   -1.08094  -1.05123  -1.04011  -0.96121  -0.94978
 Alpha  occ. eigenvalues --   -0.86538  -0.85415  -0.82963  -0.81803  -0.78051
 Alpha  occ. eigenvalues --   -0.76887  -0.72832  -0.71963  -0.71625  -0.70874
 Alpha  occ. eigenvalues --   -0.70752  -0.69770  -0.65428  -0.65116  -0.64301
 Alpha  occ. eigenvalues --   -0.63964  -0.62473  -0.61346  -0.55631  -0.54509
 Alpha  occ. eigenvalues --   -0.53473  -0.53206  -0.52380  -0.52065  -0.49607
 Alpha  occ. eigenvalues --   -0.49564  -0.48392  -0.48354  -0.45690  -0.44450
 Alpha  occ. eigenvalues --   -0.37732  -0.36708  -0.36634  -0.35612
 Alpha virt. eigenvalues --    0.04419   0.05602   0.10945   0.12040   0.15979
 Alpha virt. eigenvalues --    0.17174   0.21104   0.22315   0.27024   0.27697
 Alpha virt. eigenvalues --    0.28497   0.29028   0.30805   0.31929   0.32219

 Mulliken charges:
               1
     1  C   -0.169373
     2  C   -0.218365
     3  C   -0.170555
     4  C    0.156936
     5  C   -0.171468
     6  C   -0.217539
     7  H    0.228383
     8  H    0.225160
     9  H    0.275625
    10  H    0.275656
    11  H    0.227417
    12  N    0.488003
    13  O   -0.468216
    14  O   -0.458149
    15  C   -0.172081
    16  C   -0.218474
    17  C   -0.173174
    18  C    0.158240
    19  C   -0.173234
    20  C   -0.224344
    21  H    0.227163
    22  H    0.220992
    23  H    0.272688
    24  H    0.271558
    25  H    0.245398
    26  N    0.488341
    27  O   -0.464380
    28  O   -0.462208
 Sum of Mulliken charges =  -0.00000

 Dipole moment (field-independent basis, Debye):
    X=             -3.8860    Y=             -0.8468    Z=             -0.3174  Tot=              3.9898
 Quadrupole moment (field-independent basis, Debye-Ang):
   XX=            -84.1965   YY=           -111.6778   ZZ=           -103.3233
   XY=            -33.8118   XZ=              4.2165   YZ=              3.0102

 Normal termination of Gaussian 16 at Thu May  6 17:56:59 2021.
