 Gaussian 16, Revision A.03,
 Gaussian 16:  EM64L-G16RevA.03 25-Dec-2016

 -------------
 #p 6-31g* mp2
 -------------

 ------------------------------------------------------
 Input file generated by CHIRIPA (05-May-2021 14:51:12)
 ------------------------------------------------------
 Symbolic Z-matrix:
 Charge =  0 Multiplicity = 1

                         Standard orientation:
 ---------------------------------------------------------------------
 Center     Atomic      Atomic             Coordinates (Angstroms)
 Number     Number       Type             X           Y           Z
 ---------------------------------------------------------------------
      1          6           0       -2.275532    1.202759   -0.354386
      2          6           0       -1.585060    2.274766    0.489436
      3          6           0       -0.442748    2.967537   -0.254193
      4          1           0       -1.532736    0.455747   -0.666109
      5          1           0       -2.661513    1.662665   -1.274659
      6          1           0       -1.201707    1.813245    1.408487
      7          1           0       -2.329623    3.019210    0.799345
      8          1           0       -0.813262    3.453844   -1.162393
      9          1           0        0.321063    2.241027   -0.549790
     10          1           0        0.036833    3.730065    0.367427
     11          6           0       -3.419694    0.501226    0.375321
     12          6           0       -4.110166   -0.570780   -0.468501
     13          6           0       -5.252479   -1.263551    0.275128
     14          1           0       -3.033714    0.041321    1.295593
     15          1           0       -4.162491    1.248239    0.687043
     16          1           0       -3.365603   -1.315225   -0.778411
     17          1           0       -4.493519   -0.109260   -1.387553
     18          1           0       -6.016290   -0.537041    0.570724
     19          1           0       -4.881965   -1.749858    1.183327
     20          1           0       -5.732060   -2.026080   -0.346493
     21          6           0        2.442784   -1.448392    0.242225
     22          6           0        1.100383   -1.615743   -0.470475
     23          6           0        0.302072   -2.813108    0.046062
     24          1           0        3.033721   -2.366126    0.117727
     25          1           0        2.265752   -1.334514    1.320691
     26          1           0        1.279809   -1.727885   -1.547437
     27          1           0        0.512650   -0.697431   -0.344427
     28          1           0        0.093946   -2.704949    1.115447
     29          1           0        0.865464   -3.741258   -0.094398
     30          1           0       -0.653939   -2.914062   -0.477114
     31          6           0        3.252443   -0.255594   -0.263160
     32          6           0        4.594843   -0.088243    0.449540
     33          6           0        5.393154    1.109123   -0.066996
     34          1           0        3.429475   -0.369471   -1.341625
     35          1           0        2.661506    0.662140   -0.138661
     36          1           0        5.182577   -1.006554    0.323493
     37          1           0        4.415417    0.023900    1.526502
     38          1           0        4.829763    2.037273    0.073463
     39          1           0        5.601280    1.000963   -1.136382
     40          1           0        6.349165    1.210077    0.456179
 ---------------------------------------------------------------------

 SCF Done:  E(RHF) =  -470.733271411     A.U. after   11 cycles
 E2 =    -0.1583853696D+01 EUMP2 =    -0.47231712510679D+03

 The electronic state is 1-A.
 Alpha  occ. eigenvalues --  -11.21669 -11.21632 -11.21626 -11.21604 -11.21454
 Alpha  occ. eigenvalues --  -11.21398 -11.21394 -11.21336 -11.21163 -11.21109
 Alpha  occ. eigenvalues --  -11.21076 -11.21065  -1.08494  -1.08429  -1.03585
 Alpha  occ. eigenvalues --   -1.03542  -0.96035  -0.95984  -0.87051  -0.87000
 Alpha  occ. eigenvalues --   -0.79673  -0.79587  -0.78363  -0.78185  -0.65288
 Alpha  occ. eigenvalues --   -0.64925  -0.61048  -0.60875  -0.59401  -0.59355
 Alpha  occ. eigenvalues --   -0.57675  -0.57572  -0.55403  -0.55190  -0.52730
 Alpha  occ. eigenvalues --   -0.52683  -0.52475  -0.52394  -0.50061  -0.49852
 Alpha  occ. eigenvalues --   -0.48051  -0.47875  -0.46861  -0.46602  -0.46058
 Alpha  occ. eigenvalues --   -0.45789  -0.45752  -0.45262  -0.43830  -0.43794
 Alpha virt. eigenvalues --    0.19566   0.22093   0.23667   0.24558   0.25581
 Alpha virt. eigenvalues --    0.26466   0.26847   0.27219   0.28631   0.29356
 Alpha virt. eigenvalues --    0.30345   0.31561   0.31667   0.31907   0.32110

 Mulliken charges:
               1
     1  C   -0.306571
     2  C   -0.299267
     3  C   -0.480765
     4  H    0.157554
     5  H    0.149772
     6  H    0.151194
     7  H    0.152338
     8  H    0.155852
     9  H    0.158757
    10  H    0.160180
    11  C   -0.297609
    12  C   -0.300968
    13  C   -0.475714
    14  H    0.149463
    15  H    0.149625
    16  H    0.152857
    17  H    0.151970
    18  H    0.155143
    19  H    0.155430
    20  H    0.160236
    21  C   -0.297407
    22  C   -0.308630
    23  C   -0.477061
    24  H    0.150018
    25  H    0.149394
    26  H    0.152444
    27  H    0.159250
    28  H    0.155088
    29  H    0.156051
    30  H    0.160990
    31  C   -0.302442
    32  C   -0.299556
    33  C   -0.475877
    34  H    0.149788
    35  H    0.153200
    36  H    0.152080
    37  H    0.151983
    38  H    0.155660
    39  H    0.155256
    40  H    0.160297
 Sum of Mulliken charges =  -0.00000

 Dipole moment (field-independent basis, Debye):
    X=              0.0161    Y=             -0.0091    Z=             -0.0098  Tot=              0.0209
 Quadrupole moment (field-independent basis, Debye-Ang):
   XX=            -85.3136   YY=            -84.9453   ZZ=            -84.4030
   XY=             -1.8301   XZ=              0.4493   YZ=              0.6225

 Normal termination of Gaussian 16 at Wed May  5 16:46:58 2021.
