 Gaussian 16, Revision A.03,
 Gaussian 16:  EM64L-G16RevA.03 25-Dec-2016

 -------------
 #p 6-31g* mp2
 -------------

 ------------------------------------------------------
 Input file generated by CHIRIPA (05-May-2021 14:55:19)
 ------------------------------------------------------
 Symbolic Z-matrix:
 Charge =  0 Multiplicity = 1

                         Standard orientation:
 ---------------------------------------------------------------------
 Center     Atomic      Atomic             Coordinates (Angstroms)
 Number     Number       Type             X           Y           Z
 ---------------------------------------------------------------------
      1          6           0       -1.347078    0.903526    0.326515
      2          6           0       -2.312558    1.563579   -0.440753
      3          6           0       -3.583067    1.006900   -0.615293
      4          6           0       -3.855249   -0.216789   -0.005546
      5          6           0       -2.914590   -0.898743    0.764772
      6          6           0       -1.650640   -0.323366    0.925772
      7          1           0       -0.362665    1.343230    0.456843
      8          1           0       -2.079607    2.516520   -0.907317
      9          1           0       -4.349279    1.496426   -1.204106
     10          1           0       -3.176301   -1.847408    1.217497
     11          1           0       -0.902803   -0.838221    1.522185
     12          7           0       -5.196808   -0.816018   -0.183157
     13          8           0       -5.411699   -1.895164    0.364476
     14          8           0       -6.008027   -0.195200   -0.866637
     15          6           0        5.051485   -0.321741   -0.477641
     16          6           0        6.164161   -1.062671    0.264624
     17          6           0        6.955019   -2.004776   -0.643548
     18          1           0        4.369953   -1.054986   -0.930203
     19          1           0        5.490935    0.249885   -1.306810
     20          1           0        5.722908   -1.631631    1.092995
     21          1           0        6.843015   -0.327577    0.715632
     22          1           0        7.421861   -1.448397   -1.462756
     23          1           0        6.295389   -2.759861   -1.083250
     24          1           0        7.745284   -2.524115   -0.092523
     25          6           0        4.251924    0.623894    0.416901
     26          6           0        3.139248    1.364825   -0.325365
     27          6           0        2.348390    2.306930    0.582808
     28          1           0        3.812473    0.052269    1.246069
     29          1           0        4.933455    1.357140    0.869462
     30          1           0        2.460393    0.629730   -0.776373
     31          1           0        3.580501    1.933785   -1.153735
     32          1           0        3.008019    3.062015    1.022509
     33          1           0        1.881547    1.750550    1.402016
     34          1           0        1.558124    2.826270    0.031783
 ---------------------------------------------------------------------

 SCF Done:  E(RHF) =  -669.535246040     A.U. after   15 cycles
 E2 =    -0.2091317602D+01 EUMP2 =    -0.67162656364247D+03

 The electronic state is 1-A.
 Alpha  occ. eigenvalues --  -20.60706 -20.60701 -15.85761 -11.31106 -11.27685
 Alpha  occ. eigenvalues --  -11.27680 -11.27317 -11.26680 -11.26667 -11.22733
 Alpha  occ. eigenvalues --  -11.22537 -11.22294 -11.22190 -11.22078 -11.21546
 Alpha  occ. eigenvalues --   -1.59783  -1.39337  -1.19276  -1.09293  -1.08666
 Alpha  occ. eigenvalues --   -1.04683  -1.04435  -0.96910  -0.95503  -0.87926
 Alpha  occ. eigenvalues --   -0.86078  -0.82347  -0.80502  -0.79040  -0.77402
 Alpha  occ. eigenvalues --   -0.71978  -0.71107  -0.70406  -0.65923  -0.64925
 Alpha  occ. eigenvalues --   -0.64697  -0.62039  -0.61840  -0.60336  -0.58479
 Alpha  occ. eigenvalues --   -0.56335  -0.55041  -0.53549  -0.53309  -0.53008
 Alpha  occ. eigenvalues --   -0.52774  -0.50812  -0.48809  -0.48734  -0.48734
 Alpha  occ. eigenvalues --   -0.47523  -0.46593  -0.46487  -0.44747  -0.44663
 Alpha  occ. eigenvalues --   -0.37241  -0.36296
 Alpha virt. eigenvalues --    0.05135   0.11358   0.16607   0.19704   0.22522
 Alpha virt. eigenvalues --    0.23958   0.25606   0.26299   0.26589   0.27126
 Alpha virt. eigenvalues --    0.29798   0.29979   0.30912   0.31306   0.31439

 Mulliken charges:
               1
     1  C   -0.179832
     2  C   -0.222693
     3  C   -0.170519
     4  C    0.157852
     5  C   -0.170535
     6  C   -0.222952
     7  H    0.244421
     8  H    0.222948
     9  H    0.275247
    10  H    0.275161
    11  H    0.222405
    12  N    0.488024
    13  O   -0.460764
    14  O   -0.460689
    15  C   -0.299077
    16  C   -0.300211
    17  C   -0.476196
    18  H    0.150453
    19  H    0.151373
    20  H    0.152005
    21  H    0.153000
    22  H    0.156158
    23  H    0.155981
    24  H    0.162022
    25  C   -0.298687
    26  C   -0.302039
    27  C   -0.484563
    28  H    0.148333
    29  H    0.152384
    30  H    0.151810
    31  H    0.157085
    32  H    0.165983
    33  H    0.150655
    34  H    0.155458
 Sum of Mulliken charges =  -0.00000

 Dipole moment (field-independent basis, Debye):
    X=              5.0509    Y=              2.1378    Z=              0.6012  Tot=              5.5175
 Quadrupole moment (field-independent basis, Debye-Ang):
   XX=           -130.4839   YY=            -92.7110   ZZ=            -94.0249
   XY=             -9.3455   XZ=             -1.4048   YZ=             -3.2482

 Normal termination of Gaussian 16 at Thu May  6 09:14:44 2021.
