 Gaussian 16, Revision A.03,
 Gaussian 16:  EM64L-G16RevA.03 25-Dec-2016

 -------------
 #p 6-31g* mp2
 -------------

 ------------------------------------------------------
 Input file generated by CHIRIPA (05-May-2021 14:57:25)
 ------------------------------------------------------
 Symbolic Z-matrix:
 Charge =  0 Multiplicity = 1

                         Standard orientation:
 ---------------------------------------------------------------------
 Center     Atomic      Atomic             Coordinates (Angstroms)
 Number     Number       Type             X           Y           Z
 ---------------------------------------------------------------------
      1          6           0        1.912506    2.243457    0.488977
      2          6           0        1.575447    1.167678    1.316994
      3          6           0        2.199939   -0.073075    1.158598
      4          6           0        3.161342   -0.203352    0.157587
      5          6           0        3.518863    0.849541   -0.683177
      6          6           0        2.881429    2.081242   -0.506710
      7          1           0        1.422359    3.203788    0.619042
      8          1           0        0.823335    1.290758    2.091089
      9          1           0        1.958148   -0.922613    1.785686
     10          1           0        4.272465    0.696303   -1.446080
     11          1           0        3.145201    2.914955   -1.151219
     12          7           0        3.829314   -1.512090   -0.019665
     13          8           0        4.673054   -1.601075   -0.908947
     14          8           0        3.496483   -2.424112    0.734043
     15          6           0       -1.740271    2.130871   -0.418924
     16          6           0       -1.177494    0.918051   -0.829864
     17          6           0       -1.894709   -0.275598   -0.705958
     18          6           0       -3.177994   -0.219542   -0.164360
     19          6           0       -3.766058    0.973071    0.254142
     20          6           0       -3.030482    2.154468    0.120817
     21          1           0       -1.175990    3.053367   -0.518836
     22          1           0       -0.175702    0.896715   -1.249388
     23          1           0       -1.483165   -1.228420   -1.016089
     24          1           0       -4.766824    0.962623    0.668602
     25          1           0       -3.470072    3.094904    0.440798
     26          7           0       -3.946996   -1.476719   -0.028200
     27          8           0       -5.075773   -1.400556    0.452110
     28          8           0       -3.406402   -2.514454   -0.404366
 ---------------------------------------------------------------------

 SCF Done:  E(RHF) =  -868.335801947     A.U. after   16 cycles
 E2 =    -0.2603319454D+01 EUMP2 =    -0.87093912140107D+03

 The electronic state is 1-A.
 Alpha  occ. eigenvalues --  -20.61382 -20.61367 -20.61046 -20.61031 -15.86435
 Alpha  occ. eigenvalues --  -15.86093 -11.32048 -11.31598 -11.28614 -11.28513
 Alpha  occ. eigenvalues --  -11.28401 -11.28140 -11.28060 -11.27968 -11.27740
 Alpha  occ. eigenvalues --  -11.27601 -11.27277 -11.27107  -1.60449  -1.60114
 Alpha  occ. eigenvalues --   -1.39994  -1.39662  -1.20244  -1.19765  -1.09620
 Alpha  occ. eigenvalues --   -1.09152  -1.05637  -1.05157  -0.96398  -0.95965
 Alpha  occ. eigenvalues --   -0.87024  -0.86557  -0.83190  -0.82779  -0.78183
 Alpha  occ. eigenvalues --   -0.77793  -0.72641  -0.72307  -0.71783  -0.71442
 Alpha  occ. eigenvalues --   -0.71430  -0.70843  -0.65859  -0.65603  -0.65406
 Alpha  occ. eigenvalues --   -0.65180  -0.62935  -0.62508  -0.56266  -0.55655
 Alpha  occ. eigenvalues --   -0.54287  -0.53703  -0.53430  -0.53005  -0.49422
 Alpha  occ. eigenvalues --   -0.49386  -0.49076  -0.49056  -0.45343  -0.45036
 Alpha  occ. eigenvalues --   -0.38596  -0.37741  -0.37385  -0.36319
 Alpha virt. eigenvalues --    0.04170   0.04778   0.09954   0.11336   0.15471
 Alpha virt. eigenvalues --    0.16247   0.19605   0.21631   0.25584   0.26593
 Alpha virt. eigenvalues --    0.26974   0.29059   0.29868   0.31830   0.32191

 Mulliken charges:
               1
     1  C   -0.182190
     2  C   -0.211729
     3  C   -0.174523
     4  C    0.158070
     5  C   -0.172963
     6  C   -0.221788
     7  H    0.222044
     8  H    0.229182
     9  H    0.280635
    10  H    0.278606
    11  H    0.225305
    12  N    0.487708
    13  O   -0.458276
    14  O   -0.455908
    15  C   -0.179080
    16  C   -0.214965
    17  C   -0.175621
    18  C    0.159444
    19  C   -0.172621
    20  C   -0.218491
    21  H    0.216893
    22  H    0.231323
    23  H    0.279112
    24  H    0.276452
    25  H    0.222822
    26  N    0.487633
    27  O   -0.459857
    28  O   -0.457217
 Sum of Mulliken charges =  -0.00000

 Dipole moment (field-independent basis, Debye):
    X=              0.5043    Y=              8.7705    Z=              0.2103  Tot=              8.7875
 Quadrupole moment (field-independent basis, Debye-Ang):
   XX=           -132.8763   YY=           -107.9869   ZZ=           -101.7526
   XY=             -0.6825   XZ=             -1.2594   YZ=             -0.4642

 Normal termination of Gaussian 16 at Thu May  6 05:08:21 2021.
