 Gaussian 16, Revision A.03,
 Gaussian 16:  EM64L-G16RevA.03 25-Dec-2016

 -------------
 #p 6-31g* mp2
 -------------

 ------------------------------------------------------
 Input file generated by CHIRIPA (05-May-2021 14:57:25)
 ------------------------------------------------------
 Symbolic Z-matrix:
 Charge =  0 Multiplicity = 1

                         Standard orientation:
 ---------------------------------------------------------------------
 Center     Atomic      Atomic             Coordinates (Angstroms)
 Number     Number       Type             X           Y           Z
 ---------------------------------------------------------------------
      1          6           0        0.715299    1.431474    1.799870
      2          6           0        1.728587    2.017097    1.033831
      3          6           0        2.616707    1.221476    0.303915
      4          6           0        2.461910   -0.162658    0.363075
      5          6           0        1.462528   -0.775940    1.117006
      6          6           0        0.585733    0.039280    1.838944
      7          1           0        0.029785    2.057144    2.363788
      8          1           0        1.831587    3.098022    1.001615
      9          1           0        3.410144    1.648541   -0.297326
     10          1           0        1.384905   -1.856328    1.129406
     11          1           0       -0.200258   -0.418280    2.433001
     12          7           0        3.396129   -1.015321   -0.405431
     13          8           0        3.238601   -2.232322   -0.336666
     14          8           0        4.268208   -0.450490   -1.061999
     15          6           0       -0.800447    1.776154   -1.498091
     16          6           0       -0.468153    0.421718   -1.605820
     17          6           0       -1.295995   -0.558760   -1.050944
     18          6           0       -2.453679   -0.147443   -0.392250
     19          6           0       -2.811932    1.194041   -0.268293
     20          6           0       -1.969215    2.157320   -0.830848
     21          1           0       -0.151581    2.531134   -1.932115
     22          1           0        0.438900    0.122782   -2.123446
     23          1           0       -1.062726   -1.614354   -1.119675
     24          1           0       -3.722743    1.461287    0.253644
     25          1           0       -2.229793    3.208456   -0.745647
     26          7           0       -3.337951   -1.176329    0.199237
     27          8           0       -4.352286   -0.787998    0.774530
     28          8           0       -2.999966   -2.351616    0.076352
 ---------------------------------------------------------------------

 SCF Done:  E(RHF) =  -868.334726643     A.U. after   16 cycles
 E2 =    -0.2608105000D+01 EUMP2 =    -0.87094283164339D+03

 The electronic state is 1-A.
 Alpha  occ. eigenvalues --  -20.61384 -20.61373 -20.61246 -20.61238 -15.86431
 Alpha  occ. eigenvalues --  -15.86296 -11.31707 -11.31544 -11.28323 -11.28225
 Alpha  occ. eigenvalues --  -11.28193 -11.28103 -11.27961 -11.27872 -11.27334
 Alpha  occ. eigenvalues --  -11.27175 -11.27169 -11.27006  -1.60472  -1.60334
 Alpha  occ. eigenvalues --   -1.40022  -1.39886  -1.19994  -1.19672  -1.09312
 Alpha  occ. eigenvalues --   -1.09150  -1.05338  -1.05109  -0.96145  -0.96007
 Alpha  occ. eigenvalues --   -0.86695  -0.86553  -0.82980  -0.82837  -0.78041
 Alpha  occ. eigenvalues --   -0.77905  -0.72636  -0.72507  -0.71834  -0.71681
 Alpha  occ. eigenvalues --   -0.70999  -0.70862  -0.65541  -0.65403  -0.65321
 Alpha  occ. eigenvalues --   -0.65116  -0.62658  -0.62483  -0.55762  -0.55655
 Alpha  occ. eigenvalues --   -0.55030  -0.53376  -0.53237  -0.52117  -0.49405
 Alpha  occ. eigenvalues --   -0.49392  -0.49273  -0.49259  -0.45436  -0.45312
 Alpha  occ. eigenvalues --   -0.38578  -0.37695  -0.36992  -0.35811
 Alpha virt. eigenvalues --    0.04337   0.04739   0.10494   0.11014   0.15670
 Alpha virt. eigenvalues --    0.16426   0.20498   0.21315   0.26130   0.26744
 Alpha virt. eigenvalues --    0.27810   0.28250   0.30135   0.31031   0.31423

 Mulliken charges:
               1
     1  C   -0.163549
     2  C   -0.218627
     3  C   -0.178910
     4  C    0.156018
     5  C   -0.174832
     6  C   -0.214229
     7  H    0.226554
     8  H    0.220790
     9  H    0.273934
    10  H    0.279334
    11  H    0.229894
    12  N    0.485900
    13  O   -0.458263
    14  O   -0.461392
    15  C   -0.164962
    16  C   -0.211833
    17  C   -0.171145
    18  C    0.155590
    19  C   -0.175652
    20  C   -0.223527
    21  H    0.224009
    22  H    0.227253
    23  H    0.277600
    24  H    0.274240
    25  H    0.220878
    26  N    0.486350
    27  O   -0.461367
    28  O   -0.460057
 Sum of Mulliken charges =  -0.00000

 Dipole moment (field-independent basis, Debye):
    X=             -0.1395    Y=              6.5473    Z=              0.6936  Tot=              6.5854
 Quadrupole moment (field-independent basis, Debye-Ang):
   XX=           -135.3365   YY=           -101.6223   ZZ=           -101.2056
   XY=             -1.7891   XZ=              7.4595   YZ=             -0.6907

 Normal termination of Gaussian 16 at Wed May  5 19:31:18 2021.
