 Gaussian 16, Revision A.03,
 Gaussian 16:  EM64L-G16RevA.03 25-Dec-2016

 -------------
 #p 6-31g* mp2
 -------------

 ------------------------------------------------------
 Input file generated by CHIRIPA (05-May-2021 14:57:24)
 ------------------------------------------------------
 Symbolic Z-matrix:
 Charge =  0 Multiplicity = 1

                         Standard orientation:
 ---------------------------------------------------------------------
 Center     Atomic      Atomic             Coordinates (Angstroms)
 Number     Number       Type             X           Y           Z
 ---------------------------------------------------------------------
      1          6           0        3.198223   -2.109677    1.070816
      2          6           0        1.937424   -1.508308    0.998275
      3          6           0        1.787452   -0.239840    0.429903
      4          6           0        2.924761    0.401610   -0.058319
      5          6           0        4.194304   -0.171289   -0.000540
      6          6           0        4.320660   -1.440428    0.572055
      7          1           0        3.305552   -3.095315    1.513981
      8          1           0        1.063968   -2.025712    1.384814
      9          1           0        0.823188    0.248892    0.360955
     10          1           0        5.046495    0.369180   -0.394345
     11          1           0        5.301050   -1.905031    0.627050
     12          7           0        2.778493    1.744835   -0.662265
     13          8           0        3.796094    2.289105   -1.085226
     14          8           0        1.649017    2.227952   -0.701241
     15          6           0       -3.554078    1.244244    1.951397
     16          6           0       -4.276341    1.364640    0.759608
     17          6           0       -3.949825    0.580470   -0.350802
     18          6           0       -2.890358   -0.317943   -0.233858
     19          6           0       -2.151838   -0.460951    0.939780
     20          6           0       -2.495997    0.333438    2.037528
     21          1           0       -3.814576    1.857375    2.809073
     22          1           0       -5.098548    2.071148    0.689839
     23          1           0       -4.492290    0.653336   -1.285597
     24          1           0       -1.337360   -1.174048    0.978991
     25          1           0       -1.933328    0.237804    2.961813
     26          7           0       -2.535351   -1.153517   -1.402696
     27          8           0       -1.597621   -1.937578   -1.274055
     28          8           0       -3.201549   -1.008559   -2.425342
 ---------------------------------------------------------------------

 SCF Done:  E(RHF) =  -868.337096069     A.U. after   16 cycles
 E2 =    -0.2601054182D+01 EUMP2 =    -0.87093815025065D+03

 The electronic state is 1-A.
 Alpha  occ. eigenvalues --  -20.61108 -20.61072 -20.60636 -20.60631 -15.86144
 Alpha  occ. eigenvalues --  -15.85690 -11.31575 -11.31037 -11.28254 -11.28030
 Alpha  occ. eigenvalues --  -11.27785 -11.27629 -11.27615 -11.27378 -11.27199
 Alpha  occ. eigenvalues --  -11.27064 -11.26701 -11.26622  -1.60157  -1.59710
 Alpha  occ. eigenvalues --   -1.39716  -1.39264  -1.19716  -1.19221  -1.09079
 Alpha  occ. eigenvalues --   -1.08620  -1.05152  -1.04639  -0.95927  -0.95455
 Alpha  occ. eigenvalues --   -0.86534  -0.86041  -0.82768  -0.82311  -0.77863
 Alpha  occ. eigenvalues --   -0.77330  -0.72365  -0.71916  -0.71472  -0.71028
 Alpha  occ. eigenvalues --   -0.70853  -0.70319  -0.65372  -0.65172  -0.64876
 Alpha  occ. eigenvalues --   -0.64679  -0.62657  -0.61855  -0.55594  -0.55138
 Alpha  occ. eigenvalues --   -0.53438  -0.53232  -0.52938  -0.52740  -0.49138
 Alpha  occ. eigenvalues --   -0.49107  -0.48671  -0.48665  -0.45108  -0.44675
 Alpha  occ. eigenvalues --   -0.37635  -0.37189  -0.36728  -0.36218
 Alpha virt. eigenvalues --    0.04696   0.05208   0.10823   0.11440   0.16224
 Alpha virt. eigenvalues --    0.16695   0.19253   0.22181   0.24963   0.27531
 Alpha virt. eigenvalues --    0.28343   0.29260   0.30043   0.31327   0.32205

 Mulliken charges:
               1
     1  C   -0.169938
     2  C   -0.217732
     3  C   -0.169029
     4  C    0.157660
     5  C   -0.169869
     6  C   -0.218823
     7  H    0.226028
     8  H    0.218454
     9  H    0.274675
    10  H    0.275454
    11  H    0.223385
    12  N    0.488277
    13  O   -0.460631
    14  O   -0.461229
    15  C   -0.168990
    16  C   -0.216185
    17  C   -0.167992
    18  C    0.162672
    19  C   -0.182446
    20  C   -0.218319
    21  H    0.228120
    22  H    0.226467
    23  H    0.278167
    24  H    0.271702
    25  H    0.222956
    26  N    0.488313
    27  O   -0.465598
    28  O   -0.455550
 Sum of Mulliken charges =  -0.00000

 Dipole moment (field-independent basis, Debye):
    X=             -0.9649    Y=             -1.6643    Z=              6.1329  Tot=              6.4276
 Quadrupole moment (field-independent basis, Debye-Ang):
   XX=            -85.9283   YY=           -110.8394   ZZ=           -106.6022
   XY=            -24.3243   XZ=             -4.2798   YZ=             -1.9981

 Normal termination of Gaussian 16 at Thu May  6 06:42:01 2021.
