 Gaussian 16, Revision A.03,
 Gaussian 16:  EM64L-G16RevA.03 25-Dec-2016

 -------------
 #p 6-31g* mp2
 -------------

 ------------------------------------------------------
 Input file generated by CHIRIPA (05-May-2021 14:51:12)
 ------------------------------------------------------
 Symbolic Z-matrix:
 Charge =  0 Multiplicity = 1

                         Standard orientation:
 ---------------------------------------------------------------------
 Center     Atomic      Atomic             Coordinates (Angstroms)
 Number     Number       Type             X           Y           Z
 ---------------------------------------------------------------------
      1          6           0       -3.236434    0.821042   -0.408222
      2          6           0       -2.408270    1.495407    0.686018
      3          6           0       -1.210448    2.266323    0.130406
      4          1           0       -2.591929    0.138429   -0.978833
      5          1           0       -3.587114    1.584760   -1.116144
      6          1           0       -2.060412    0.730820    1.392431
      7          1           0       -3.054866    2.176351    1.254213
      8          1           0       -1.542453    3.049554   -0.558740
      9          1           0       -0.542349    1.595811   -0.419737
     10          1           0       -0.632369    2.740441    0.929717
     11          6           0       -4.437413    0.046441    0.131564
     12          6           0       -5.265577   -0.627924   -0.962676
     13          6           0       -6.463399   -1.398840   -0.407064
     14          1           0       -4.086733   -0.717277    0.839486
     15          1           0       -5.081918    0.729054    0.702176
     16          1           0       -4.618981   -1.308868   -1.530871
     17          1           0       -5.613435    0.136663   -1.669088
     18          1           0       -7.131498   -0.728328    0.143079
     19          1           0       -6.131393   -2.182071    0.282083
     20          1           0       -7.041478   -1.872958   -1.206375
     21          6           0        3.222105   -0.248647    0.552057
     22          6           0        2.137697   -1.326584    0.542303
     23          6           0        0.914075   -0.941690    1.374409
     24          1           0        3.528359   -0.054999    1.589194
     25          1           0        2.798852    0.690865    0.170524
     26          1           0        2.563244   -2.264145    0.922444
     27          1           0        1.834126   -1.517826   -0.494947
     28          1           0        0.463133   -0.019938    0.992799
     29          1           0        1.196393   -0.770499    2.418242
     30          1           0        0.151406   -1.726396    1.353549
     31          6           0        4.451742   -0.618836   -0.275399
     32          6           0        5.536150    0.459101   -0.265645
     33          6           0        6.759772    0.074208   -1.097751
     34          1           0        4.874996   -1.558348    0.106134
     35          1           0        4.145488   -0.812485   -1.312537
     36          1           0        5.839721    0.650342    0.771605
     37          1           0        5.110604    1.396662   -0.645785
     38          1           0        6.477454   -0.096984   -2.141585
     39          1           0        7.210714   -0.847544   -0.716141
     40          1           0        7.522441    0.858912   -1.076891
 ---------------------------------------------------------------------

 SCF Done:  E(RHF) =  -470.732914148     A.U. after   11 cycles
 E2 =    -0.1583066192D+01 EUMP2 =    -0.47231598033984D+03

 The electronic state is 1-A.
 Alpha  occ. eigenvalues --  -11.21605 -11.21594 -11.21594 -11.21575 -11.21400
 Alpha  occ. eigenvalues --  -11.21393 -11.21341 -11.21334 -11.21109 -11.21065
 Alpha  occ. eigenvalues --  -11.21064 -11.21019  -1.08440  -1.08410  -1.03576
 Alpha  occ. eigenvalues --   -1.03486  -0.96044  -0.95924  -0.87040  -0.86961
 Alpha  occ. eigenvalues --   -0.79593  -0.79590  -0.78241  -0.78230  -0.65163
 Alpha  occ. eigenvalues --   -0.64974  -0.61214  -0.60696  -0.59361  -0.59336
 Alpha  occ. eigenvalues --   -0.57614  -0.57568  -0.55565  -0.54991  -0.52685
 Alpha  occ. eigenvalues --   -0.52670  -0.52419  -0.52368  -0.50077  -0.49756
 Alpha  occ. eigenvalues --   -0.47966  -0.47831  -0.46659  -0.46569  -0.45822
 Alpha  occ. eigenvalues --   -0.45754  -0.45695  -0.45653  -0.43792  -0.43768
 Alpha virt. eigenvalues --    0.21092   0.23027   0.23671   0.25002   0.26321
 Alpha virt. eigenvalues --    0.26433   0.27249   0.27499   0.28118   0.29071
 Alpha virt. eigenvalues --    0.31128   0.31147   0.31648   0.31758   0.32171

 Mulliken charges:
               1
     1  C   -0.298104
     2  C   -0.303098
     3  C   -0.479208
     4  H    0.149633
     5  H    0.149308
     6  H    0.156450
     7  H    0.152174
     8  H    0.156442
     9  H    0.154864
    10  H    0.160981
    11  C   -0.298370
    12  C   -0.299658
    13  C   -0.475699
    14  H    0.149812
    15  H    0.149618
    16  H    0.151896
    17  H    0.151857
    18  H    0.155179
    19  H    0.155202
    20  H    0.160203
    21  C   -0.298834
    22  C   -0.299398
    23  C   -0.485354
    24  H    0.149707
    25  H    0.150050
    26  H    0.151878
    27  H    0.151171
    28  H    0.167304
    29  H    0.155054
    30  H    0.158908
    31  C   -0.298265
    32  C   -0.299694
    33  C   -0.475706
    34  H    0.149508
    35  H    0.149562
    36  H    0.151922
    37  H    0.152130
    38  H    0.155172
    39  H    0.155136
    40  H    0.160266
 Sum of Mulliken charges =  -0.00000

 Dipole moment (field-independent basis, Debye):
    X=             -0.0104    Y=              0.0234    Z=              0.0107  Tot=              0.0277
 Quadrupole moment (field-independent basis, Debye-Ang):
   XX=            -86.0284   YY=            -84.3160   ZZ=            -84.4842
   XY=             -1.0673   XZ=              1.1309   YZ=             -0.3218

 Normal termination of Gaussian 16 at Wed May  5 19:54:53 2021.
