 Gaussian 16, Revision A.03,
 Gaussian 16:  EM64L-G16RevA.03 25-Dec-2016

 -------------
 #p 6-31g* mp2
 -------------

 ------------------------------------------------------
 Input file generated by CHIRIPA (05-May-2021 14:51:14)
 ------------------------------------------------------
 Symbolic Z-matrix:
 Charge =  0 Multiplicity = 1

                         Standard orientation:
 ---------------------------------------------------------------------
 Center     Atomic      Atomic             Coordinates (Angstroms)
 Number     Number       Type             X           Y           Z
 ---------------------------------------------------------------------
      1          6           0       -2.834084    0.923459    0.404720
      2          6           0       -2.956129    2.390288   -0.009408
      3          6           0       -2.588062    3.355413    1.117914
      4          1           0       -3.481339    0.739153    1.273073
      5          1           0       -1.804592    0.727387    0.735017
      6          1           0       -3.984731    2.583194   -0.340135
      7          1           0       -2.308654    2.571077   -0.876995
      8          1           0       -1.555662    3.191758    1.443443
      9          1           0       -3.241262    3.203943    1.983354
     10          1           0       -2.682294    4.398498    0.800179
     11          6           0       -3.198718   -0.053561   -0.711615
     12          6           0       -3.076674   -1.520391   -0.297487
     13          6           0       -3.444741   -2.485516   -1.424809
     14          1           0       -4.228210    0.142510   -1.041912
     15          1           0       -2.551464    0.130744   -1.579968
     16          1           0       -3.724148   -1.701180    0.570100
     17          1           0       -2.048071   -1.713297    0.033240
     18          1           0       -2.791540   -2.334046   -2.290249
     19          1           0       -4.477140   -2.321860   -1.750338
     20          1           0       -3.350509   -3.528601   -1.107074
     21          6           0        3.566781    0.091213    0.214020
     22          6           0        3.914271    0.761081   -1.115833
     23          6           0        5.016977    1.811292   -0.978386
     24          1           0        3.255121    0.860093    0.934183
     25          1           0        4.470621   -0.376822    0.628041
     26          1           0        3.009739    1.226528   -1.527898
     27          1           0        4.224957   -0.009504   -1.832972
     28          1           0        5.934768    1.357709   -0.590414
     29          1           0        4.712646    2.600764   -0.283607
     30          1           0        5.249570    2.277527   -1.940876
     31          6           0        2.466022   -0.961110    0.092874
     32          6           0        2.118531   -1.630978    1.422729
     33          6           0        1.015825   -2.681189    1.285281
     34          1           0        1.562182   -0.493075   -0.321146
     35          1           0        2.777682   -1.729991   -0.627288
     36          1           0        1.807845   -0.860393    2.139867
     37          1           0        3.023062   -2.096425    1.834793
     38          1           0        1.320156   -3.470662    0.590502
     39          1           0        0.098035   -2.227606    0.897309
     40          1           0        0.783233   -3.147424    2.247770
 ---------------------------------------------------------------------

 SCF Done:  E(RHF) =  -470.733368698     A.U. after   11 cycles
 E2 =    -0.1582826406D+01 EUMP2 =    -0.47231619510402D+03

 The electronic state is 1-A.
 Alpha  occ. eigenvalues --  -11.21639 -11.21639 -11.21637 -11.21601 -11.21451
 Alpha  occ. eigenvalues --  -11.21440 -11.21391 -11.21377 -11.21107 -11.21097
 Alpha  occ. eigenvalues --  -11.21090 -11.21061  -1.08475  -1.08456  -1.03573
 Alpha  occ. eigenvalues --   -1.03542  -0.96018  -0.95995  -0.87042  -0.87004
 Alpha  occ. eigenvalues --   -0.79673  -0.79573  -0.78309  -0.78248  -0.65175
 Alpha  occ. eigenvalues --   -0.65029  -0.61062  -0.60864  -0.59389  -0.59359
 Alpha  occ. eigenvalues --   -0.57653  -0.57581  -0.55348  -0.55250  -0.52705
 Alpha  occ. eigenvalues --   -0.52691  -0.52469  -0.52400  -0.50063  -0.49867
 Alpha  occ. eigenvalues --   -0.48056  -0.47845  -0.46816  -0.46509  -0.45932
 Alpha  occ. eigenvalues --   -0.45792  -0.45778  -0.45518  -0.43821  -0.43806
 Alpha virt. eigenvalues --    0.20447   0.23262   0.23751   0.24504   0.25651
 Alpha virt. eigenvalues --    0.26977   0.27024   0.27552   0.28135   0.29029
 Alpha virt. eigenvalues --    0.30538   0.31632   0.31695   0.31920   0.31960

 Mulliken charges:
               1
     1  C   -0.298580
     2  C   -0.299676
     3  C   -0.475650
     4  H    0.150038
     5  H    0.148490
     6  H    0.152253
     7  H    0.151822
     8  H    0.154808
     9  H    0.155366
    10  H    0.160413
    11  C   -0.297683
    12  C   -0.309429
    13  C   -0.475063
    14  H    0.149790
    15  H    0.149419
    16  H    0.152197
    17  H    0.160578
    18  H    0.155167
    19  H    0.155091
    20  H    0.160721
    21  C   -0.298322
    22  C   -0.299647
    23  C   -0.475739
    24  H    0.149623
    25  H    0.149813
    26  H    0.151680
    27  H    0.152045
    28  H    0.155293
    29  H    0.155259
    30  H    0.160358
    31  C   -0.298374
    32  C   -0.299227
    33  C   -0.484187
    34  H    0.148435
    35  H    0.149939
    36  H    0.151912
    37  H    0.152217
    38  H    0.155440
    39  H    0.162551
    40  H    0.160859
 Sum of Mulliken charges =  -0.00000

 Dipole moment (field-independent basis, Debye):
    X=             -0.0019    Y=             -0.0120    Z=              0.0027  Tot=              0.0125
 Quadrupole moment (field-independent basis, Debye-Ang):
   XX=            -83.8900   YY=            -85.5203   ZZ=            -85.1756
   XY=             -1.3397   XZ=             -0.5662   YZ=             -0.4082

 Normal termination of Gaussian 16 at Thu May  6 05:36:19 2021.
