 Gaussian 16, Revision A.03,
 Gaussian 16:  EM64L-G16RevA.03 25-Dec-2016

 -------------
 #p 6-31g* mp2
 -------------

 ------------------------------------------------------
 Input file generated by CHIRIPA (05-May-2021 14:53:14)
 ------------------------------------------------------
 Symbolic Z-matrix:
 Charge =  0 Multiplicity = 1

                         Standard orientation:
 ---------------------------------------------------------------------
 Center     Atomic      Atomic             Coordinates (Angstroms)
 Number     Number       Type             X           Y           Z
 ---------------------------------------------------------------------
      1          6           0       -4.106618   -0.392477   -0.193287
      2          6           0       -3.509934   -1.701117   -0.712337
      3          6           0       -4.504133   -2.861963   -0.669938
      4          1           0       -4.456589   -0.539916    0.837600
      5          1           0       -4.993108   -0.139248   -0.791122
      6          1           0       -2.624028   -1.951082   -0.114587
      7          1           0       -3.161169   -1.550492   -1.742042
      8          1           0       -5.384205   -2.637971   -1.281413
      9          1           0       -4.844011   -3.040836    0.355288
     10          1           0       -4.056795   -3.787579   -1.045417
     11          6           0       -3.124816    0.777348   -0.229384
     12          6           0       -3.721501    2.085988    0.289666
     13          6           0       -2.727302    3.246834    0.247267
     14          1           0       -2.238327    0.524119    0.368451
     15          1           0       -2.774846    0.924786   -1.260271
     16          1           0       -4.070266    1.935363    1.319371
     17          1           0       -4.607407    2.335952   -0.308084
     18          1           0       -2.387423    3.425707   -0.777959
     19          1           0       -1.847230    3.022842    0.858742
     20          1           0       -3.174640    4.172449    0.622746
     21          6           0        0.611013   -0.598177    1.289652
     22          6           0        1.638586   -1.544168    1.365242
     23          6           0        2.869298   -1.306633    0.745989
     24          6           0        3.038798   -0.107045    0.056389
     25          6           0        2.034328    0.855054   -0.036858
     26          6           0        0.811809    0.596309    0.590076
     27          1           0       -0.341852   -0.790937    1.773686
     28          1           0        1.485471   -2.472699    1.907856
     29          1           0        3.681864   -2.021708    0.788681
     30          1           0        2.216740    1.771409   -0.584980
     31          1           0        0.015569    1.332790    0.529714
     32          7           0        4.337360    0.155649   -0.603253
     33          8           0        4.461548    1.220299   -1.204698
     34          8           0        5.206398   -0.708075   -0.506345
 ---------------------------------------------------------------------

 SCF Done:  E(RHF) =  -669.534804855     A.U. after   15 cycles
 E2 =    -0.2092757783D+01 EUMP2 =    -0.67162756263821D+03

 The electronic state is 1-A.
 Alpha  occ. eigenvalues --  -20.60724 -20.60719 -15.85775 -11.31138 -11.27701
 Alpha  occ. eigenvalues --  -11.27679 -11.27445 -11.26731 -11.26654 -11.22591
 Alpha  occ. eigenvalues --  -11.22481 -11.22414 -11.22268 -11.22163 -11.21742
 Alpha  occ. eigenvalues --   -1.59799  -1.39352  -1.19304  -1.09405  -1.08704
 Alpha  occ. eigenvalues --   -1.04706  -1.04442  -0.96903  -0.95543  -0.87915
 Alpha  occ. eigenvalues --   -0.86117  -0.82372  -0.80508  -0.79233  -0.77410
 Alpha  occ. eigenvalues --   -0.71995  -0.71121  -0.70437  -0.66100  -0.64954
 Alpha  occ. eigenvalues --   -0.64690  -0.62136  -0.61763  -0.60253  -0.58511
 Alpha  occ. eigenvalues --   -0.56221  -0.55213  -0.53558  -0.53344  -0.53025
 Alpha  occ. eigenvalues --   -0.52819  -0.50856  -0.48856  -0.48750  -0.48705
 Alpha  occ. eigenvalues --   -0.47532  -0.46716  -0.46662  -0.44759  -0.44704
 Alpha  occ. eigenvalues --   -0.37276  -0.36294
 Alpha virt. eigenvalues --    0.05089   0.11289   0.16498   0.19069   0.22109
 Alpha virt. eigenvalues --    0.23211   0.25108   0.25782   0.26309   0.28380
 Alpha virt. eigenvalues --    0.29694   0.30618   0.31004   0.31383   0.31656

 Mulliken charges:
               1
     1  C   -0.299060
     2  C   -0.299641
     3  C   -0.476377
     4  H    0.149235
     5  H    0.153762
     6  H    0.146344
     7  H    0.155935
     8  H    0.157724
     9  H    0.154785
    10  H    0.162571
    11  C   -0.302628
    12  C   -0.300451
    13  C   -0.480274
    14  H    0.140561
    15  H    0.154287
    16  H    0.153140
    17  H    0.157085
    18  H    0.158401
    19  H    0.148546
    20  H    0.167019
    21  C   -0.174050
    22  C   -0.218582
    23  C   -0.171362
    24  C    0.158947
    25  C   -0.173616
    26  C   -0.224011
    27  H    0.225573
    28  H    0.223104
    29  H    0.275361
    30  H    0.275990
    31  H    0.234688
    32  N    0.488012
    33  O   -0.460396
    34  O   -0.460623
 Sum of Mulliken charges =  -0.00000

 Dipole moment (field-independent basis, Debye):
    X=             -4.8157    Y=             -0.8873    Z=              2.2122  Tot=              5.3733
 Quadrupole moment (field-independent basis, Debye-Ang):
   XX=           -121.9757   YY=            -91.2155   ZZ=            -93.7766
   XY=             -4.9239   XZ=              8.0490   YZ=             -2.2214

 Normal termination of Gaussian 16 at Thu May  6 02:38:25 2021.
