 Gaussian 16, Revision A.03,
 Gaussian 16:  EM64L-G16RevA.03 25-Dec-2016

 -------------
 #p 6-31g* mp2
 -------------

 ------------------------------------------------------
 Input file generated by CHIRIPA (05-May-2021 14:51:10)
 ------------------------------------------------------
 Symbolic Z-matrix:
 Charge =  0 Multiplicity = 1

                         Standard orientation:
 ---------------------------------------------------------------------
 Center     Atomic      Atomic             Coordinates (Angstroms)
 Number     Number       Type             X           Y           Z
 ---------------------------------------------------------------------
      1          6           0        4.326868   -0.014204   -0.139454
      2          6           0        4.158729   -1.485634   -0.519728
      3          6           0        5.470523   -2.267978   -0.449512
      4          1           0        5.067288    0.448038   -0.806579
      5          1           0        4.739070    0.049785    0.877104
      6          1           0        3.745672   -1.546815   -1.534743
      7          1           0        3.418482   -1.944379    0.148257
      8          1           0        5.883964   -2.236693    0.563745
      9          1           0        6.213012   -1.836870   -1.128818
     10          1           0        5.327338   -3.317419   -0.725251
     11          6           0        3.024191    0.781084   -0.204839
     12          6           0        3.192330    2.252514    0.175435
     13          6           0        1.880536    3.034858    0.105219
     14          1           0        2.611989    0.717096   -1.221397
     15          1           0        2.283771    0.318842    0.462286
     16          1           0        3.932577    2.711259   -0.492550
     17          1           0        3.605388    2.313695    1.190450
     18          1           0        1.138047    2.603750    0.784526
     19          1           0        1.467096    3.003573   -0.908037
     20          1           0        2.023721    4.084299    0.380958
     21          6           0       -4.165572   -0.047862   -0.308143
     22          6           0       -5.624115   -0.426617   -0.048949
     23          6           0       -6.592419    0.252672   -1.017840
     24          1           0       -4.057568    1.042792   -0.232298
     25          1           0       -3.901995   -0.317030   -1.340359
     26          1           0       -5.884456   -0.158079    0.982906
     27          1           0       -5.728621   -1.516514   -0.125232
     28          1           0       -6.360783   -0.024239   -2.051410
     29          1           0       -6.517504    1.341914   -0.936975
     30          1           0       -7.629468   -0.032084   -0.814604
     31          6           0       -3.185487   -0.719018    0.652436
     32          6           0       -1.726944   -0.340264    0.393242
     33          6           0       -0.758640   -1.019552    1.362133
     34          1           0       -3.449064   -0.449850    1.684652
     35          1           0       -3.293490   -1.809673    0.576590
     36          1           0       -1.622438    0.749634    0.469525
     37          1           0       -1.466604   -0.608801   -0.638613
     38          1           0       -0.833555   -2.108794    1.281268
     39          1           0       -0.990275   -0.742641    2.395703
     40          1           0        0.278409   -0.734796    1.158897
 ---------------------------------------------------------------------

 SCF Done:  E(RHF) =  -470.733385054     A.U. after   11 cycles
 E2 =    -0.1582818782D+01 EUMP2 =    -0.47231620383626D+03

 The electronic state is 1-A.
 Alpha  occ. eigenvalues --  -11.21612 -11.21602 -11.21591 -11.21583 -11.21413
 Alpha  occ. eigenvalues --  -11.21391 -11.21354 -11.21332 -11.21078 -11.21069
 Alpha  occ. eigenvalues --  -11.21062 -11.21061  -1.08444  -1.08413  -1.03539
 Alpha  occ. eigenvalues --   -1.03513  -0.95994  -0.95963  -0.87018  -0.86973
 Alpha  occ. eigenvalues --   -0.79596  -0.79580  -0.78262  -0.78225  -0.65086
 Alpha  occ. eigenvalues --   -0.65044  -0.60953  -0.60897  -0.59413  -0.59293
 Alpha  occ. eigenvalues --   -0.57649  -0.57535  -0.55283  -0.55250  -0.52745
 Alpha  occ. eigenvalues --   -0.52657  -0.52457  -0.52322  -0.49930  -0.49905
 Alpha  occ. eigenvalues --   -0.47928  -0.47894  -0.46635  -0.46601  -0.45783
 Alpha  occ. eigenvalues --   -0.45777  -0.45712  -0.45682  -0.43798  -0.43723
 Alpha virt. eigenvalues --    0.20878   0.23076   0.23670   0.24584   0.25895
 Alpha virt. eigenvalues --    0.26405   0.27032   0.27262   0.28075   0.29059
 Alpha virt. eigenvalues --    0.30756   0.31474   0.31678   0.31811   0.32091

 Mulliken charges:
               1
     1  C   -0.297575
     2  C   -0.300181
     3  C   -0.475695
     4  H    0.149768
     5  H    0.149501
     6  H    0.151861
     7  H    0.152348
     8  H    0.155263
     9  H    0.155171
    10  H    0.160296
    11  C   -0.307584
    12  C   -0.299007
    13  C   -0.476836
    14  H    0.149644
    15  H    0.158104
    16  H    0.152102
    17  H    0.151879
    18  H    0.155977
    19  H    0.155513
    20  H    0.160235
    21  C   -0.298264
    22  C   -0.299641
    23  C   -0.475703
    24  H    0.149825
    25  H    0.149514
    26  H    0.151897
    27  H    0.151892
    28  H    0.155157
    29  H    0.155223
    30  H    0.160205
    31  C   -0.298464
    32  C   -0.299373
    33  C   -0.484186
    34  H    0.149393
    35  H    0.149609
    36  H    0.152748
    37  H    0.152336
    38  H    0.155345
    39  H    0.154799
    40  H    0.166904
 Sum of Mulliken charges =  -0.00000

 Dipole moment (field-independent basis, Debye):
    X=              0.0115    Y=              0.0061    Z=             -0.0102  Tot=              0.0165
 Quadrupole moment (field-independent basis, Debye-Ang):
   XX=            -86.1911   YY=            -84.7666   ZZ=            -83.8030
   XY=              0.9099   XZ=             -0.7477   YZ=              0.5615

 Normal termination of Gaussian 16 at Wed May  5 23:01:59 2021.
