 Gaussian 16, Revision A.03,
 Gaussian 16:  EM64L-G16RevA.03 25-Dec-2016

 -------------
 #p 6-31g* mp2
 -------------

 ------------------------------------------------------
 Input file generated by CHIRIPA (05-May-2021 14:55:20)
 ------------------------------------------------------
 Symbolic Z-matrix:
 Charge =  0 Multiplicity = 1

                         Standard orientation:
 ---------------------------------------------------------------------
 Center     Atomic      Atomic             Coordinates (Angstroms)
 Number     Number       Type             X           Y           Z
 ---------------------------------------------------------------------
      1          6           0        2.745382   -2.204268   -0.190363
      2          6           0        2.023561   -1.051635   -0.517372
      3          6           0        2.626908    0.207596   -0.447676
      4          6           0        3.959741    0.277782   -0.045285
      5          6           0        4.705364   -0.852242    0.286953
      6          6           0        4.081624   -2.101074    0.210050
      7          1           0        2.268767   -3.178430   -0.247304
      8          1           0        0.985680   -1.128759   -0.828657
      9          1           0        2.091442    1.116136   -0.695161
     10          1           0        5.738511   -0.743563    0.593895
     11          1           0        4.644646   -2.994525    0.464603
     12          7           0        4.609272    1.605370    0.032314
     13          8           0        5.784737    1.640358    0.389660
     14          8           0        3.930611    2.585806   -0.265680
     15          6           0       -4.270058   -0.186596    0.439927
     16          6           0       -3.260543   -1.003117   -0.367635
     17          6           0       -1.942394   -1.216937    0.377052
     18          1           0       -3.827274    0.786869    0.691431
     19          1           0       -4.465061   -0.696960    1.393288
     20          1           0       -3.068552   -0.492071   -1.319785
     21          1           0       -3.705854   -1.974676   -0.617409
     22          1           0       -2.113894   -1.747433    1.319263
     23          1           0       -1.472972   -0.256405    0.612898
     24          1           0       -1.235370   -1.802946   -0.218405
     25          6           0       -5.592830    0.035607   -0.291257
     26          6           0       -6.602346    0.852128    0.516304
     27          6           0       -7.920495    1.065948   -0.228383
     28          1           0       -5.397828    0.545971   -1.244619
     29          1           0       -6.035616   -0.937857   -0.542761
     30          1           0       -6.157035    1.823687    0.766079
     31          1           0       -6.794338    0.341083    1.468454
     32          1           0       -8.389918    0.105417   -0.464228
     33          1           0       -7.748994    1.596445   -1.170594
     34          1           0       -8.627518    1.651959    0.367075
 ---------------------------------------------------------------------

 SCF Done:  E(RHF) =  -669.535404592     A.U. after   15 cycles
 E2 =    -0.2090814135D+01 EUMP2 =    -0.67162621872789D+03

 The electronic state is 1-A.
 Alpha  occ. eigenvalues --  -20.60718 -20.60713 -15.85770 -11.31121 -11.27686
 Alpha  occ. eigenvalues --  -11.27673 -11.27419 -11.26706 -11.26640 -11.22352
 Alpha  occ. eigenvalues --  -11.22105 -11.21935 -11.21920 -11.21789 -11.21331
 Alpha  occ. eigenvalues --   -1.59794  -1.39348  -1.19287  -1.08957  -1.08686
 Alpha  occ. eigenvalues --   -1.04687  -1.04101  -0.96570  -0.95525  -0.87598
 Alpha  occ. eigenvalues --   -0.86084  -0.82356  -0.80169  -0.78727  -0.77406
 Alpha  occ. eigenvalues --   -0.71989  -0.71116  -0.70401  -0.65583  -0.64939
 Alpha  occ. eigenvalues --   -0.64721  -0.62085  -0.61478  -0.59959  -0.58158
 Alpha  occ. eigenvalues --   -0.55846  -0.55192  -0.53424  -0.53027  -0.52986
 Alpha  occ. eigenvalues --   -0.52622  -0.50487  -0.48747  -0.48745  -0.48478
 Alpha  occ. eigenvalues --   -0.47179  -0.46279  -0.46177  -0.44757  -0.44344
 Alpha  occ. eigenvalues --   -0.37268  -0.36283
 Alpha virt. eigenvalues --    0.05122   0.11341   0.16607   0.20246   0.22552
 Alpha virt. eigenvalues --    0.23827   0.26102   0.26223   0.26941   0.27986
 Alpha virt. eigenvalues --    0.28769   0.30389   0.30884   0.31474   0.31838

 Mulliken charges:
               1
     1  C   -0.172485
     2  C   -0.221883
     3  C   -0.173155
     4  C    0.158896
     5  C   -0.171430
     6  C   -0.218452
     7  H    0.225010
     8  H    0.231674
     9  H    0.275285
    10  H    0.275295
    11  H    0.223077
    12  N    0.488035
    13  O   -0.460640
    14  O   -0.460709
    15  C   -0.299306
    16  C   -0.299733
    17  C   -0.479329
    18  H    0.151606
    19  H    0.150848
    20  H    0.152231
    21  H    0.153536
    22  H    0.160454
    23  H    0.157454
    24  H    0.150176
    25  C   -0.298791
    26  C   -0.300185
    27  C   -0.476026
    28  H    0.150325
    29  H    0.149975
    30  H    0.153203
    31  H    0.152413
    32  H    0.155268
    33  H    0.155797
    34  H    0.161565
 Sum of Mulliken charges =  -0.00000

 Dipole moment (field-independent basis, Debye):
    X=             -2.5088    Y=             -4.6637    Z=             -0.2251  Tot=              5.3005
 Quadrupole moment (field-independent basis, Debye-Ang):
   XX=           -109.6634   YY=            -96.3025   ZZ=            -95.0980
   XY=            -20.9462   XZ=             -0.1485   YZ=             -0.9405

 Normal termination of Gaussian 16 at Thu May  6 04:31:36 2021.
