 Gaussian 16, Revision A.03,
 Gaussian 16:  EM64L-G16RevA.03 25-Dec-2016

 -------------
 #p 6-31g* mp2
 -------------

 ------------------------------------------------------
 Input file generated by CHIRIPA (05-May-2021 14:53:17)
 ------------------------------------------------------
 Symbolic Z-matrix:
 Charge =  0 Multiplicity = 1

                         Standard orientation:
 ---------------------------------------------------------------------
 Center     Atomic      Atomic             Coordinates (Angstroms)
 Number     Number       Type             X           Y           Z
 ---------------------------------------------------------------------
      1          6           0        3.914599    0.282788   -0.109422
      2          6           0        3.963016   -1.162074   -0.607431
      3          6           0        5.361420   -1.773174   -0.513529
      4          1           0        4.621105    0.888893   -0.692886
      5          1           0        4.260966    0.315831    0.932851
      6          1           0        3.615349   -1.192576   -1.648014
      7          1           0        3.256172   -1.764770   -0.022841
      8          1           0        5.713520   -1.772029    0.523112
      9          1           0        6.074737   -1.196584   -1.111295
     10          1           0        5.373160   -2.806276   -0.874671
     11          6           0        2.523250    0.907456   -0.196987
     12          6           0        2.474832    2.352318    0.301022
     13          6           0        1.076429    2.963418    0.207121
     14          1           0        2.176883    0.874413   -1.239260
     15          1           0        1.816743    0.301351    0.386477
     16          1           0        3.181676    2.955014   -0.283568
     17          1           0        2.822500    2.382820    1.341605
     18          1           0        0.363111    2.386828    0.804886
     19          1           0        0.724329    2.962273   -0.829521
     20          1           0        1.064688    3.996520    0.568263
     21          6           0       -0.627591   -1.162908    1.641945
     22          6           0       -1.817961   -0.667757    2.184500
     23          6           0       -2.870235   -0.278036    1.350602
     24          6           0       -2.697232   -0.397462   -0.027475
     25          6           0       -1.523440   -0.887024   -0.598293
     26          6           0       -0.484382   -1.270770    0.254726
     27          1           0        0.184709   -1.463332    2.297164
     28          1           0       -1.931983   -0.582884    3.261459
     29          1           0       -3.802549    0.108618    1.743930
     30          1           0       -1.439327   -0.959974   -1.675801
     31          1           0        0.438947   -1.654962   -0.169427
     32          7           0       -3.804232    0.011956   -0.920407
     33          8           0       -3.626869   -0.103099   -2.131168
     34          8           0       -4.828301    0.440160   -0.392619
 ---------------------------------------------------------------------

 SCF Done:  E(RHF) =  -669.534569175     A.U. after   15 cycles
 E2 =    -0.2093620122D+01 EUMP2 =    -0.67162818929776D+03

 The electronic state is 1-A.
 Alpha  occ. eigenvalues --  -20.60772 -20.60766 -15.85824 -11.31212 -11.27765
 Alpha  occ. eigenvalues --  -11.27740 -11.27523 -11.26818 -11.26752 -11.22517
 Alpha  occ. eigenvalues --  -11.22072 -11.22037 -11.21927 -11.21777 -11.21309
 Alpha  occ. eigenvalues --   -1.59845  -1.39398  -1.19383  -1.09097  -1.08775
 Alpha  occ. eigenvalues --   -1.04784  -1.04117  -0.96537  -0.95610  -0.87554
 Alpha  occ. eigenvalues --   -0.86193  -0.82437  -0.80216  -0.78936  -0.77462
 Alpha  occ. eigenvalues --   -0.72044  -0.71166  -0.70494  -0.65790  -0.65028
 Alpha  occ. eigenvalues --   -0.64750  -0.62129  -0.61524  -0.59926  -0.58155
 Alpha  occ. eigenvalues --   -0.55816  -0.55294  -0.53267  -0.53166  -0.52968
 Alpha  occ. eigenvalues --   -0.52822  -0.50485  -0.48808  -0.48796  -0.48509
 Alpha  occ. eigenvalues --   -0.47266  -0.46400  -0.46353  -0.44799  -0.44376
 Alpha  occ. eigenvalues --   -0.37321  -0.36320
 Alpha virt. eigenvalues --    0.05030   0.11168   0.16495   0.19723   0.22752
 Alpha virt. eigenvalues --    0.23620   0.25175   0.25909   0.27345   0.28145
 Alpha virt. eigenvalues --    0.29706   0.30041   0.31039   0.31375   0.31817

 Mulliken charges:
               1
     1  C   -0.297830
     2  C   -0.301379
     3  C   -0.475611
     4  H    0.153266
     5  H    0.149090
     6  H    0.153317
     7  H    0.141725
     8  H    0.155962
     9  H    0.158811
    10  H    0.161533
    11  C   -0.304207
    12  C   -0.299298
    13  C   -0.477621
    14  H    0.148936
    15  H    0.149537
    16  H    0.153618
    17  H    0.150253
    18  H    0.157250
    19  H    0.157640
    20  H    0.161413
    21  C   -0.173316
    22  C   -0.218575
    23  C   -0.171466
    24  C    0.159223
    25  C   -0.173024
    26  C   -0.218232
    27  H    0.225212
    28  H    0.223630
    29  H    0.275734
    30  H    0.275882
    31  H    0.231007
    32  N    0.488047
    33  O   -0.460240
    34  O   -0.460286
 Sum of Mulliken charges =  -0.00000

 Dipole moment (field-independent basis, Debye):
    X=              3.9442    Y=             -1.3856    Z=              3.1014  Tot=              5.2053
 Quadrupole moment (field-independent basis, Debye-Ang):
   XX=           -115.2215   YY=            -94.2220   ZZ=            -91.0627
   XY=              2.2028   XZ=            -11.5524   YZ=             -0.4226

 Normal termination of Gaussian 16 at Thu May  6 02:49:39 2021.
