 Gaussian 16, Revision A.03,
 Gaussian 16:  EM64L-G16RevA.03 25-Dec-2016

 -------------
 #p 6-31g* mp2
 -------------

 ------------------------------------------------------
 Input file generated by CHIRIPA (05-May-2021 14:51:12)
 ------------------------------------------------------
 Symbolic Z-matrix:
 Charge =  0 Multiplicity = 1

                         Standard orientation:
 ---------------------------------------------------------------------
 Center     Atomic      Atomic             Coordinates (Angstroms)
 Number     Number       Type             X           Y           Z
 ---------------------------------------------------------------------
      1          6           0        3.394609   -0.588845   -0.160087
      2          6           0        4.816814   -1.149102   -0.122276
      3          6           0        4.871442   -2.589349    0.388114
      4          1           0        2.960716   -0.638837    0.847972
      5          1           0        2.772485   -1.229551   -0.800285
      6          1           0        5.436406   -0.506746    0.516551
      7          1           0        5.247440   -1.097592   -1.130505
      8          1           0        4.276813   -3.248086   -0.253044
      9          1           0        4.466854   -2.653883    1.403370
     10          1           0        5.897423   -2.969962    0.406940
     11          6           0        3.323645    0.850105   -0.668138
     12          6           0        1.901440    1.410362   -0.705949
     13          6           0        1.846812    2.850609   -1.216340
     14          1           0        3.945769    1.490812   -0.027941
     15          1           0        3.757538    0.900098   -1.676197
     16          1           0        1.470814    1.358853    0.302279
     17          1           0        1.281848    0.768007   -1.344777
     18          1           0        2.251401    2.915143   -2.231596
     19          1           0        2.441441    3.509346   -0.575182
     20          1           0        0.820831    3.231223   -1.235166
     21          6           0       -2.914219    0.437334    0.664920
     22          6           0       -2.089697    0.062866    1.896961
     23          6           0       -1.204698    1.209423    2.386837
     24          1           0       -2.236167    0.749265   -0.141237
     25          1           0       -3.539745    1.309045    0.902051
     26          1           0       -1.466934   -0.808731    1.658002
     27          1           0       -2.769781   -0.248392    2.700218
     28          1           0       -1.813577    2.079709    2.652302
     29          1           0       -0.503328    1.516187    1.604164
     30          1           0       -0.624056    0.920006    3.268286
     31          6           0       -3.804036   -0.698595    0.163305
     32          6           0       -4.628557   -0.324127   -1.068736
     33          6           0       -5.513555   -1.470684   -1.558612
     34          1           0       -3.178509   -1.570306   -0.073825
     35          1           0       -4.482088   -1.010525    0.969463
     36          1           0       -3.948474   -0.012869   -1.871992
     37          1           0       -5.251320    0.547470   -0.829776
     38          1           0       -6.214925   -1.777447   -0.775939
     39          1           0       -4.904677   -2.340969   -1.824076
     40          1           0       -6.094198   -1.181265   -2.440061
 ---------------------------------------------------------------------

 SCF Done:  E(RHF) =  -470.733356625     A.U. after   11 cycles
 E2 =    -0.1582654938D+01 EUMP2 =    -0.47231601156317D+03

 The electronic state is 1-A.
 Alpha  occ. eigenvalues --  -11.21640 -11.21621 -11.21595 -11.21583 -11.21433
 Alpha  occ. eigenvalues --  -11.21390 -11.21374 -11.21330 -11.21105 -11.21088
 Alpha  occ. eigenvalues --  -11.21067 -11.21042  -1.08463  -1.08414  -1.03570
 Alpha  occ. eigenvalues --   -1.03509  -0.96010  -0.95965  -0.87027  -0.86982
 Alpha  occ. eigenvalues --   -0.79666  -0.79547  -0.78292  -0.78213  -0.65125
 Alpha  occ. eigenvalues --   -0.65020  -0.61063  -0.60832  -0.59391  -0.59322
 Alpha  occ. eigenvalues --   -0.57657  -0.57544  -0.55345  -0.55209  -0.52702
 Alpha  occ. eigenvalues --   -0.52664  -0.52436  -0.52393  -0.50043  -0.49847
 Alpha  occ. eigenvalues --   -0.48032  -0.47827  -0.46785  -0.46483  -0.45881
 Alpha  occ. eigenvalues --   -0.45756  -0.45721  -0.45569  -0.43812  -0.43774
 Alpha virt. eigenvalues --    0.21202   0.23154   0.23564   0.24800   0.26141
 Alpha virt. eigenvalues --    0.26394   0.27167   0.27643   0.28070   0.28865
 Alpha virt. eigenvalues --    0.30524   0.31312   0.31714   0.31797   0.32020

 Mulliken charges:
               1
     1  C   -0.298508
     2  C   -0.299680
     3  C   -0.475743
     4  H    0.149968
     5  H    0.149213
     6  H    0.152078
     7  H    0.151979
     8  H    0.155101
     9  H    0.155263
    10  H    0.160352
    11  C   -0.297493
    12  C   -0.307496
    13  C   -0.475913
    14  H    0.149809
    15  H    0.149751
    16  H    0.158826
    17  H    0.151224
    18  H    0.155457
    19  H    0.155596
    20  H    0.160511
    21  C   -0.298784
    22  C   -0.299037
    23  C   -0.483251
    24  H    0.150248
    25  H    0.149358
    26  H    0.152250
    27  H    0.151808
    28  H    0.155207
    29  H    0.162552
    30  H    0.159513
    31  C   -0.298327
    32  C   -0.299643
    33  C   -0.475692
    34  H    0.149580
    35  H    0.149613
    36  H    0.151861
    37  H    0.151908
    38  H    0.155189
    39  H    0.155139
    40  H    0.160210
 Sum of Mulliken charges =  -0.00000

 Dipole moment (field-independent basis, Debye):
    X=              0.0200    Y=              0.0066    Z=             -0.0030  Tot=              0.0212
 Quadrupole moment (field-independent basis, Debye-Ang):
   XX=            -84.7023   YY=            -86.1677   ZZ=            -83.8860
   XY=             -0.4848   XZ=             -0.7369   YZ=              0.5423

 Normal termination of Gaussian 16 at Thu May  6 02:18:19 2021.
