 Gaussian 16, Revision A.03,
 Gaussian 16:  EM64L-G16RevA.03 25-Dec-2016

 -------------
 #p 6-31g* mp2
 -------------

 ------------------------------------------------------
 Input file generated by CHIRIPA (05-May-2021 14:55:25)
 ------------------------------------------------------
 Symbolic Z-matrix:
 Charge =  0 Multiplicity = 1

                         Standard orientation:
 ---------------------------------------------------------------------
 Center     Atomic      Atomic             Coordinates (Angstroms)
 Number     Number       Type             X           Y           Z
 ---------------------------------------------------------------------
      1          6           0       -1.661046    1.863716   -0.430308
      2          6           0       -1.146236    0.661736    0.066419
      3          6           0       -1.984446   -0.437757    0.273945
      4          6           0       -3.338499   -0.299622   -0.027304
      5          6           0       -3.881409    0.884608   -0.523427
      6          6           0       -3.024586    1.971126   -0.723129
      7          1           0       -1.002675    2.712788   -0.588480
      8          1           0       -0.087707    0.575442    0.294707
      9          1           0       -1.612361   -1.380052    0.657415
     10          1           0       -4.940964    0.940303   -0.741734
     11          1           0       -3.427168    2.903366   -1.109007
     12          7           0       -4.235727   -1.456738    0.188254
     13          8           0       -5.424966   -1.309436   -0.084966
     14          8           0       -3.732746   -2.489076    0.626345
     15          6           0        3.709492    0.584095    0.575833
     16          6           0        2.872810    1.671997   -0.098272
     17          6           0        2.129527    2.553446    0.905907
     18          1           0        3.054462   -0.039879    1.199160
     19          1           0        4.431942    1.055752    1.256274
     20          1           0        2.153082    1.198499   -0.778278
     21          1           0        3.529876    2.293337   -0.720217
     22          1           0        2.835828    3.052317    1.577373
     23          1           0        1.451213    1.951259    1.518982
     24          1           0        1.537751    3.324319    0.402503
     25          6           0        4.458508   -0.305272   -0.414989
     26          6           0        5.295190   -1.393174    0.259116
     27          6           0        6.038472   -2.274623   -0.745062
     28          1           0        3.736057   -0.776929   -1.095429
     29          1           0        5.113538    0.318702   -1.038316
     30          1           0        4.638124   -2.014514    0.881062
     31          1           0        6.014916   -0.919677    0.939123
     32          1           0        6.716787   -1.672436   -1.358138
     33          1           0        5.332171   -2.773494   -1.416528
     34          1           0        6.630249   -3.045496   -0.241659
 ---------------------------------------------------------------------

 SCF Done:  E(RHF) =  -669.535026586     A.U. after   15 cycles
 E2 =    -0.2092080761D+01 EUMP2 =    -0.67162710734692D+03

 The electronic state is 1-A.
 Alpha  occ. eigenvalues --  -20.60730 -20.60725 -15.85783 -11.31136 -11.27709
 Alpha  occ. eigenvalues --  -11.27699 -11.27424 -11.26714 -11.26658 -11.22790
 Alpha  occ. eigenvalues --  -11.22413 -11.22332 -11.22155 -11.22077 -11.21491
 Alpha  occ. eigenvalues --   -1.59806  -1.39360  -1.19306  -1.09310  -1.08698
 Alpha  occ. eigenvalues --   -1.04720  -1.04407  -0.96864  -0.95535  -0.87876
 Alpha  occ. eigenvalues --   -0.86106  -0.82374  -0.80489  -0.79047  -0.77431
 Alpha  occ. eigenvalues --   -0.72002  -0.71129  -0.70416  -0.66073  -0.64955
 Alpha  occ. eigenvalues --   -0.64706  -0.62286  -0.61531  -0.60279  -0.58444
 Alpha  occ. eigenvalues --   -0.56146  -0.55209  -0.53553  -0.53272  -0.53038
 Alpha  occ. eigenvalues --   -0.52751  -0.50798  -0.48826  -0.48758  -0.48704
 Alpha  occ. eigenvalues --   -0.47546  -0.46590  -0.46493  -0.44768  -0.44644
 Alpha  occ. eigenvalues --   -0.37276  -0.36310
 Alpha virt. eigenvalues --    0.05112   0.11251   0.16597   0.18721   0.22497
 Alpha virt. eigenvalues --    0.24039   0.24918   0.25891   0.26675   0.27730
 Alpha virt. eigenvalues --    0.29139   0.30194   0.31106   0.31483   0.32192

 Mulliken charges:
               1
     1  C   -0.174011
     2  C   -0.225297
     3  C   -0.172348
     4  C    0.158792
     5  C   -0.171027
     6  C   -0.218828
     7  H    0.228094
     8  H    0.233630
     9  H    0.275339
    10  H    0.275389
    11  H    0.223282
    12  N    0.488015
    13  O   -0.460573
    14  O   -0.460680
    15  C   -0.299086
    16  C   -0.306595
    17  C   -0.482295
    18  H    0.147333
    19  H    0.153725
    20  H    0.148088
    21  H    0.158417
    22  H    0.164404
    23  H    0.153321
    24  H    0.156339
    25  C   -0.298933
    26  C   -0.300389
    27  C   -0.476297
    28  H    0.149958
    29  H    0.151566
    30  H    0.152850
    31  H    0.153138
    32  H    0.155826
    33  H    0.156352
    34  H    0.162501
 Sum of Mulliken charges =  -0.00000

 Dipole moment (field-independent basis, Debye):
    X=              3.4358    Y=              4.0884    Z=             -0.7450  Tot=              5.3921
 Quadrupole moment (field-independent basis, Debye-Ang):
   XX=           -111.7258   YY=            -96.1449   ZZ=            -95.3027
   XY=            -16.1069   XZ=              4.4037   YZ=             -1.2625

 Normal termination of Gaussian 16 at Thu May  6 09:33:42 2021.
