 Gaussian 16, Revision A.03,
 Gaussian 16:  EM64L-G16RevA.03 25-Dec-2016

 -------------
 #p 6-31g* mp2
 -------------

 ------------------------------------------------------
 Input file generated by CHIRIPA (05-May-2021 14:53:18)
 ------------------------------------------------------
 Symbolic Z-matrix:
 Charge =  0 Multiplicity = 1

                         Standard orientation:
 ---------------------------------------------------------------------
 Center     Atomic      Atomic             Coordinates (Angstroms)
 Number     Number       Type             X           Y           Z
 ---------------------------------------------------------------------
      1          6           0       -2.452202    0.985475   -0.326184
      2          6           0       -2.332686    2.333566    0.385400
      3          6           0       -1.104682    3.129273   -0.058051
      4          1           0       -1.544156    0.396618   -0.137385
      5          1           0       -2.495503    1.153993   -1.411137
      6          1           0       -2.291017    2.162641    1.468758
      7          1           0       -3.241205    2.919206    0.195042
      8          1           0       -1.142892    3.328962   -1.133814
      9          1           0       -0.187305    2.568098    0.147139
     10          1           0       -1.038777    4.089437    0.463104
     11          6           0       -3.674911    0.178338    0.106528
     12          6           0       -3.794427   -1.169753   -0.605057
     13          6           0       -5.022432   -1.965460   -0.161605
     14          1           0       -3.631610    0.009820    1.191480
     15          1           0       -4.582957    0.767195   -0.082272
     16          1           0       -2.885909   -1.755393   -0.414699
     17          1           0       -3.836097   -0.998828   -1.688414
     18          1           0       -5.939809   -1.404285   -0.366795
     19          1           0       -4.984222   -2.165149    0.914157
     20          1           0       -5.088337   -2.925623   -0.682761
     21          6           0        3.019304    1.971659   -0.209780
     22          6           0        3.391567    1.030122   -1.174896
     23          6           0        3.050173   -0.316899   -1.021495
     24          6           0        2.332894   -0.689178    0.114379
     25          6           0        1.947532    0.225208    1.093504
     26          6           0        2.299745    1.566911    0.919349
     27          1           0        3.288709    3.015991   -0.337006
     28          1           0        3.950420    1.341590   -2.052801
     29          1           0        3.325600   -1.066710   -1.753166
     30          1           0        1.390793   -0.115473    1.958025
     31          1           0        2.009303    2.295929    1.670496
     32          7           0        1.965750   -2.112393    0.287764
     33          8           0        1.333526   -2.414879    1.297434
     34          8           0        2.317158   -2.898476   -0.589290
 ---------------------------------------------------------------------

 SCF Done:  E(RHF) =  -669.535220772     A.U. after   15 cycles
 E2 =    -0.2092692841D+01 EUMP2 =    -0.67162791361324D+03

 The electronic state is 1-A.
 Alpha  occ. eigenvalues --  -20.60861 -20.60853 -15.85914 -11.31304 -11.27873
 Alpha  occ. eigenvalues --  -11.27849 -11.27589 -11.26870 -11.26860 -11.21773
 Alpha  occ. eigenvalues --  -11.21379 -11.21309 -11.21303 -11.21225 -11.20762
 Alpha  occ. eigenvalues --   -1.59934  -1.39487  -1.19475  -1.08862  -1.08374
 Alpha  occ. eigenvalues --   -1.04885  -1.03483  -0.95951  -0.95689  -0.86983
 Alpha  occ. eigenvalues --   -0.86264  -0.82523  -0.79566  -0.78160  -0.77569
 Alpha  occ. eigenvalues --   -0.72130  -0.71258  -0.70559  -0.65122  -0.65030
 Alpha  occ. eigenvalues --   -0.64862  -0.62229  -0.60890  -0.59338  -0.57554
 Alpha  occ. eigenvalues --   -0.55377  -0.55273  -0.53264  -0.52965  -0.52650
 Alpha  occ. eigenvalues --   -0.52314  -0.49883  -0.48890  -0.48884  -0.47868
 Alpha  occ. eigenvalues --   -0.46591  -0.45708  -0.45611  -0.44885  -0.43739
 Alpha  occ. eigenvalues --   -0.37413  -0.36414
 Alpha virt. eigenvalues --    0.04957   0.11076   0.16412   0.21070   0.22953
 Alpha virt. eigenvalues --    0.24381   0.26515   0.27166   0.27536   0.28174
 Alpha virt. eigenvalues --    0.28499   0.30891   0.31528   0.31908   0.32083

 Mulliken charges:
               1
     1  C   -0.298953
     2  C   -0.298289
     3  C   -0.485438
     4  H    0.150709
     5  H    0.149263
     6  H    0.149220
     7  H    0.152594
     8  H    0.155278
     9  H    0.160066
    10  H    0.155029
    11  C   -0.298149
    12  C   -0.301331
    13  C   -0.475736
    14  H    0.150036
    15  H    0.148367
    16  H    0.158885
    17  H    0.150561
    18  H    0.153039
    19  H    0.156255
    20  H    0.161797
    21  C   -0.169048
    22  C   -0.218022
    23  C   -0.170458
    24  C    0.158895
    25  C   -0.171498
    26  C   -0.220432
    27  H    0.227095
    28  H    0.224137
    29  H    0.276086
    30  H    0.276025
    31  H    0.226451
    32  N    0.488022
    33  O   -0.460705
    34  O   -0.459754
 Sum of Mulliken charges =  -0.00000

 Dipole moment (field-independent basis, Debye):
    X=              1.4111    Y=              4.8951    Z=             -0.6377  Tot=              5.1342
 Quadrupole moment (field-independent basis, Debye-Ang):
   XX=            -88.5832   YY=           -102.6726   ZZ=            -90.8524
   XY=              9.9777   XZ=             -3.0213   YZ=              1.8869

 Normal termination of Gaussian 16 at Thu May  6 12:19:57 2021.
