 Gaussian 16, Revision A.03,
 Gaussian 16:  EM64L-G16RevA.03 25-Dec-2016

 -------------
 #p 6-31g* mp2
 -------------

 ------------------------------------------------------
 Input file generated by CHIRIPA (05-May-2021 14:55:20)
 ------------------------------------------------------
 Symbolic Z-matrix:
 Charge =  0 Multiplicity = 1

                         Standard orientation:
 ---------------------------------------------------------------------
 Center     Atomic      Atomic             Coordinates (Angstroms)
 Number     Number       Type             X           Y           Z
 ---------------------------------------------------------------------
      1          6           0        1.737020    1.333262    0.736501
      2          6           0        2.961199    2.009933    0.731712
      3          6           0        4.119447    1.378916    0.268218
      4          6           0        4.016791    0.064752   -0.185352
      5          6           0        2.811738   -0.636016   -0.193153
      6          6           0        1.666321    0.014772    0.274867
      7          1           0        0.842249    1.831130    1.098313
      8          1           0        3.019084    3.033938    1.089634
      9          1           0        5.080072    1.879315    0.253415
     10          1           0        2.785433   -1.656289   -0.556154
     11          1           0        0.716960   -0.513199    0.277424
     12          7           0        5.236185   -0.613743   -0.678428
     13          8           0        5.119237   -1.771950   -1.072784
     14          8           0        6.285804    0.025507   -0.661209
     15          6           0       -5.594038   -0.348918   -0.120795
     16          6           0       -6.100903    0.747528   -1.058280
     17          6           0       -7.522296    0.487487   -1.558093
     18          1           0       -5.629562   -1.314636   -0.643356
     19          1           0       -6.275783   -0.432371    0.736908
     20          1           0       -5.417643    0.829833   -1.913265
     21          1           0       -6.063987    1.710778   -0.533491
     22          1           0       -8.221083    0.426352   -0.717521
     23          1           0       -7.571065   -0.459598   -2.105134
     24          1           0       -7.864672    1.283482   -2.226696
     25          6           0       -4.174463   -0.103116    0.387257
     26          6           0       -3.667599   -1.199562    1.324743
     27          6           0       -2.246205   -0.939521    1.824555
     28          1           0       -3.492717   -0.019664   -0.470445
     29          1           0       -4.138939    0.862602    0.909818
     30          1           0       -3.704514   -2.162812    0.799954
     31          1           0       -4.350859   -1.281867    2.179727
     32          1           0       -2.197435    0.007563    2.371596
     33          1           0       -1.547418   -0.878387    0.983983
     34          1           0       -1.903829   -1.735516    2.493158
 ---------------------------------------------------------------------

 SCF Done:  E(RHF) =  -669.535543685     A.U. after   15 cycles
 E2 =    -0.2090772909D+01 EUMP2 =    -0.67162631659392D+03

 The electronic state is 1-A.
 Alpha  occ. eigenvalues --  -20.60715 -20.60710 -15.85768 -11.31120 -11.27691
 Alpha  occ. eigenvalues --  -11.27681 -11.27417 -11.26703 -11.26665 -11.22466
 Alpha  occ. eigenvalues --  -11.22256 -11.22161 -11.22118 -11.21970 -11.21490
 Alpha  occ. eigenvalues --   -1.59791  -1.39345  -1.19290  -1.09139  -1.08686
 Alpha  occ. eigenvalues --   -1.04693  -1.04259  -0.96731  -0.95523  -0.87754
 Alpha  occ. eigenvalues --   -0.86090  -0.82357  -0.80333  -0.78925  -0.77409
 Alpha  occ. eigenvalues --   -0.71987  -0.71114  -0.70394  -0.65775  -0.64941
 Alpha  occ. eigenvalues --   -0.64717  -0.62092  -0.61621  -0.60097  -0.58318
 Alpha  occ. eigenvalues --   -0.56049  -0.55180  -0.53424  -0.53218  -0.53021
 Alpha  occ. eigenvalues --   -0.52729  -0.50664  -0.48762  -0.48743  -0.48623
 Alpha  occ. eigenvalues --   -0.47350  -0.46474  -0.46374  -0.44753  -0.44494
 Alpha  occ. eigenvalues --   -0.37268  -0.36296
 Alpha virt. eigenvalues --    0.05127   0.11353   0.16625   0.19807   0.22391
 Alpha virt. eigenvalues --    0.23769   0.25096   0.26135   0.27019   0.27810
 Alpha virt. eigenvalues --    0.29073   0.29672   0.31114   0.31458   0.31962

 Mulliken charges:
               1
     1  C   -0.173294
     2  C   -0.218618
     3  C   -0.171342
     4  C    0.158951
     5  C   -0.172783
     6  C   -0.224345
     7  H    0.226194
     8  H    0.223106
     9  H    0.275317
    10  H    0.275842
    11  H    0.233079
    12  N    0.487982
    13  O   -0.460592
    14  O   -0.460689
    15  C   -0.298813
    16  C   -0.300125
    17  C   -0.476097
    18  H    0.151253
    19  H    0.151019
    20  H    0.152215
    21  H    0.151828
    22  H    0.155919
    23  H    0.156197
    24  H    0.161583
    25  C   -0.298853
    26  C   -0.299370
    27  C   -0.480604
    28  H    0.147863
    29  H    0.148963
    30  H    0.154885
    31  H    0.155790
    32  H    0.154885
    33  H    0.146734
    34  H    0.165917
 Sum of Mulliken charges =  -0.00000

 Dipole moment (field-independent basis, Debye):
    X=             -4.5417    Y=              2.3616    Z=              1.7745  Tot=              5.4178
 Quadrupole moment (field-independent basis, Debye-Ang):
   XX=           -128.4126   YY=            -90.9281   ZZ=            -95.4789
   XY=             11.8509   XZ=              7.5738   YZ=              0.9286

 Normal termination of Gaussian 16 at Wed May  5 18:54:47 2021.
