 Gaussian 16, Revision A.03,
 Gaussian 16:  EM64L-G16RevA.03 25-Dec-2016

 -------------
 #p 6-31g* mp2
 -------------

 ------------------------------------------------------
 Input file generated by CHIRIPA (05-May-2021 14:57:26)
 ------------------------------------------------------
 Symbolic Z-matrix:
 Charge =  0 Multiplicity = 1

                         Standard orientation:
 ---------------------------------------------------------------------
 Center     Atomic      Atomic             Coordinates (Angstroms)
 Number     Number       Type             X           Y           Z
 ---------------------------------------------------------------------
      1          6           0        2.701217    2.786318   -0.150250
      2          6           0        1.956344    1.901459   -0.936831
      3          6           0        2.174138    0.522910   -0.854881
      4          6           0        3.149118    0.061652    0.028264
      5          6           0        3.907513    0.917923    0.825087
      6          6           0        3.672711    2.292596    0.726653
      7          1           0        2.525424    3.855703   -0.220313
      8          1           0        1.201216    2.282056   -1.618721
      9          1           0        1.611829   -0.184473   -1.452238
     10          1           0        4.653385    0.508656    1.495604
     11          1           0        4.252694    2.977446    1.338737
     12          7           0        3.388689   -1.395705    0.123747
     13          8           0        4.253454   -1.776856    0.909585
     14          8           0        2.707164   -2.129235   -0.589061
     15          6           0       -4.954315    1.300735    0.615819
     16          6           0       -4.357968    1.380214   -0.646946
     17          6           0       -3.335019    0.497443   -1.005888
     18          6           0       -2.931297   -0.456773   -0.073273
     19          6           0       -3.505817   -0.561135    1.192556
     20          6           0       -4.527090    0.332022    1.529928
     21          1           0       -5.748316    1.990527    0.886276
     22          1           0       -4.687728    2.131517   -1.358876
     23          1           0       -2.856021    0.536758   -1.976678
     24          1           0       -3.155721   -1.320730    1.880936
     25          1           0       -4.988405    0.267970    2.511320
     26          7           0       -1.849234   -1.396821   -0.441852
     27          8           0       -1.511600   -2.228488    0.397773
     28          8           0       -1.359236   -1.284163   -1.563390
 ---------------------------------------------------------------------

 SCF Done:  E(RHF) =  -868.337274986     A.U. after   16 cycles
 E2 =    -0.2599806737D+01 EUMP2 =    -0.87093708172280D+03

 The electronic state is 1-A.
 Alpha  occ. eigenvalues --  -20.60966 -20.60891 -20.59815 -20.59727 -15.85977
 Alpha  occ. eigenvalues --  -15.84831 -11.31422 -11.30401 -11.28032 -11.27960
 Alpha  occ. eigenvalues --  -11.27743 -11.27079 -11.27046 -11.26996 -11.26896
 Alpha  occ. eigenvalues --  -11.26881 -11.26149 -11.26092  -1.59986  -1.58851
 Alpha  occ. eigenvalues --   -1.39544  -1.38392  -1.19597  -1.18627  -1.08973
 Alpha  occ. eigenvalues --   -1.08003  -1.05013  -1.04056  -0.95794  -0.94785
 Alpha  occ. eigenvalues --   -0.86405  -0.85449  -0.82627  -0.81609  -0.77668
 Alpha  occ. eigenvalues --   -0.76596  -0.72179  -0.71327  -0.71042  -0.70702
 Alpha  occ. eigenvalues --   -0.70181  -0.69736  -0.65248  -0.65011  -0.64278
 Alpha  occ. eigenvalues --   -0.64076  -0.62360  -0.61369  -0.55501  -0.54599
 Alpha  occ. eigenvalues --   -0.53338  -0.53103  -0.52399  -0.52147  -0.48940
 Alpha  occ. eigenvalues --   -0.48913  -0.47843  -0.47776  -0.44931  -0.43748
 Alpha  occ. eigenvalues --   -0.37579  -0.36664  -0.36622  -0.35679
 Alpha virt. eigenvalues --    0.04839   0.05928   0.11029   0.11965   0.16302
 Alpha virt. eigenvalues --    0.17348   0.21141   0.22076   0.27031   0.27705
 Alpha virt. eigenvalues --    0.28264   0.29070   0.30779   0.31555   0.32351

 Mulliken charges:
               1
     1  C   -0.171692
     2  C   -0.221388
     3  C   -0.176341
     4  C    0.157629
     5  C   -0.171376
     6  C   -0.219650
     7  H    0.221040
     8  H    0.219501
     9  H    0.293546
    10  H    0.273837
    11  H    0.219991
    12  N    0.487073
    13  O   -0.466402
    14  O   -0.448578
    15  C   -0.171073
    16  C   -0.218664
    17  C   -0.172984
    18  C    0.158952
    19  C   -0.170567
    20  C   -0.218432
    21  H    0.225916
    22  H    0.222601
    23  H    0.272434
    24  H    0.277997
    25  H    0.224618
    26  N    0.487786
    27  O   -0.449974
    28  O   -0.465801
 Sum of Mulliken charges =  -0.00000

 Dipole moment (field-independent basis, Debye):
    X=             -4.8826    Y=              8.1133    Z=              0.9717  Tot=              9.5189
 Quadrupole moment (field-independent basis, Debye-Ang):
   XX=            -87.0351   YY=           -107.5256   ZZ=            -99.2610
   XY=              8.5565   XZ=             -2.8292   YZ=             -2.2884

 Normal termination of Gaussian 16 at Thu May  6 18:08:58 2021.
