 Gaussian 16, Revision A.03,
 Gaussian 16:  EM64L-G16RevA.03 25-Dec-2016

 -------------
 #p 6-31g* mp2
 -------------

 ------------------------------------------------------
 Input file generated by CHIRIPA (05-May-2021 14:57:27)
 ------------------------------------------------------
 Symbolic Z-matrix:
 Charge =  0 Multiplicity = 1

                         Standard orientation:
 ---------------------------------------------------------------------
 Center     Atomic      Atomic             Coordinates (Angstroms)
 Number     Number       Type             X           Y           Z
 ---------------------------------------------------------------------
      1          6           0        1.040086   -0.546049    0.376367
      2          6           0        1.714536   -0.945328   -0.782173
      3          6           0        3.080154   -0.686963   -0.933442
      4          6           0        3.743178   -0.024257    0.098309
      5          6           0        3.099106    0.386132    1.264517
      6          6           0        1.733302    0.117238    1.394220
      7          1           0       -0.020831   -0.750843    0.485500
      8          1           0        1.178732   -1.460617   -1.574282
      9          1           0        3.626907   -0.984973   -1.819822
     10          1           0        3.660162    0.897989    2.036940
     11          1           0        1.212096    0.428487    2.295060
     12          7           0        5.188996    0.254836   -0.050418
     13          8           0        5.750376    0.840207    0.873070
     14          8           0        5.733470   -0.117067   -1.087661
     15          6           0       -3.546819    2.571841   -0.448759
     16          6           0       -4.478233    1.960397    0.396892
     17          6           0       -4.464346    0.575125    0.584973
     18          6           0       -3.500837   -0.171588   -0.091310
     19          6           0       -2.559563    0.408300   -0.940440
     20          6           0       -2.592140    1.795209   -1.113555
     21          1           0       -3.564867    3.648590   -0.589052
     22          1           0       -5.220791    2.561036    0.914470
     23          1           0       -5.173694    0.075906    1.233837
     24          1           0       -1.831369   -0.216822   -1.442810
     25          1           0       -1.867563    2.267354   -1.770907
     26          7           0       -3.476242   -1.638982    0.099881
     27          8           0       -2.617238   -2.274569   -0.507389
     28          8           0       -4.316435   -2.125750    0.853385
 ---------------------------------------------------------------------

 SCF Done:  E(RHF) =  -868.338718455     A.U. after   16 cycles
 E2 =    -0.2600294224D+01 EUMP2 =    -0.87093901267928D+03

 The electronic state is 1-A.
 Alpha  occ. eigenvalues --  -20.61949 -20.61901 -20.60728 -20.60723 -15.86948
 Alpha  occ. eigenvalues --  -15.85782 -11.32218 -11.31114 -11.28793 -11.28691
 Alpha  occ. eigenvalues --  -11.28384 -11.27707 -11.27691 -11.27682 -11.27675
 Alpha  occ. eigenvalues --  -11.27323 -11.26666 -11.26645  -1.60985  -1.59806
 Alpha  occ. eigenvalues --   -1.40546  -1.39360  -1.20354  -1.19280  -1.09751
 Alpha  occ. eigenvalues --   -1.08666  -1.05726  -1.04681  -0.96611  -0.95507
 Alpha  occ. eigenvalues --   -0.87129  -0.86069  -0.83436  -0.82345  -0.78525
 Alpha  occ. eigenvalues --   -0.77409  -0.73159  -0.72321  -0.71998  -0.71449
 Alpha  occ. eigenvalues --   -0.71130  -0.70322  -0.65988  -0.65701  -0.64921
 Alpha  occ. eigenvalues --   -0.64670  -0.63070  -0.62025  -0.56193  -0.55160
 Alpha  occ. eigenvalues --   -0.54036  -0.53783  -0.53007  -0.52758  -0.49940
 Alpha  occ. eigenvalues --   -0.49897  -0.48756  -0.48754  -0.45949  -0.44773
 Alpha  occ. eigenvalues --   -0.38305  -0.37460  -0.37097  -0.36301
 Alpha virt. eigenvalues --    0.03962   0.05132   0.10208   0.11320   0.15494
 Alpha virt. eigenvalues --    0.16646   0.19932   0.21678   0.25492   0.26952
 Alpha virt. eigenvalues --    0.28002   0.28402   0.30574   0.30935   0.31482

 Mulliken charges:
               1
     1  C   -0.175482
     2  C   -0.224292
     3  C   -0.171222
     4  C    0.157845
     5  C   -0.171280
     6  C   -0.219858
     7  H    0.233321
     8  H    0.226821
     9  H    0.275388
    10  H    0.274830
    11  H    0.223233
    12  N    0.488092
    13  O   -0.461013
    14  O   -0.460662
    15  C   -0.170682
    16  C   -0.217837
    17  C   -0.170953
    18  C    0.157797
    19  C   -0.178636
    20  C   -0.217486
    21  H    0.229791
    22  H    0.227143
    23  H    0.277927
    24  H    0.270755
    25  H    0.228187
    26  N    0.488060
    27  O   -0.466312
    28  O   -0.453475
 Sum of Mulliken charges =  -0.00000

 Dipole moment (field-independent basis, Debye):
    X=             -5.5203    Y=              4.2993    Z=             -0.1141  Tot=              6.9979
 Quadrupole moment (field-independent basis, Debye-Ang):
   XX=           -139.4038   YY=           -106.3304   ZZ=            -99.2035
   XY=            -22.6210   XZ=              0.8834   YZ=              1.9101

 Normal termination of Gaussian 16 at Thu May  6 11:30:01 2021.
