 Gaussian 16, Revision A.03,
 Gaussian 16:  EM64L-G16RevA.03 25-Dec-2016

 -------------
 #p 6-31g* mp2
 -------------

 ------------------------------------------------------
 Input file generated by CHIRIPA (05-May-2021 14:57:25)
 ------------------------------------------------------
 Symbolic Z-matrix:
 Charge =  0 Multiplicity = 1

                         Standard orientation:
 ---------------------------------------------------------------------
 Center     Atomic      Atomic             Coordinates (Angstroms)
 Number     Number       Type             X           Y           Z
 ---------------------------------------------------------------------
      1          6           0       -2.310825    2.775543   -0.103230
      2          6           0       -3.476416    2.431346    0.589193
      3          6           0       -3.908246    1.102481    0.635991
      4          6           0       -3.146815    0.139049   -0.023791
      5          6           0       -1.981137    0.450510   -0.721986
      6          6           0       -1.568215    1.785771   -0.755459
      7          1           0       -1.982714    3.810321   -0.134408
      8          1           0       -4.055129    3.197916    1.096643
      9          1           0       -4.806749    0.808246    1.164702
     10          1           0       -1.425248   -0.335770   -1.218141
     11          1           0       -0.662598    2.050169   -1.293973
     12          7           0       -3.593965   -1.271146    0.018698
     13          8           0       -2.905413   -2.101253   -0.570756
     14          8           0       -4.624527   -1.519649    0.640652
     15          6           0        4.764380    1.488705    0.243695
     16          6           0        4.125978    1.259690   -0.979627
     17          6           0        3.187200    0.231842   -1.109129
     18          6           0        2.909615   -0.551301    0.010212
     19          6           0        3.528912   -0.347986    1.242455
     20          6           0        4.464337    0.685552    1.348883
     21          1           0        5.492343    2.289372    0.335333
     22          1           0        4.357020    1.881852   -1.839616
     23          1           0        2.678186    0.032612   -2.044346
     24          1           0        3.277788   -0.984812    2.081983
     25          1           0        4.958578    0.861108    2.300173
     26          7           0        1.917547   -1.642450   -0.114673
     27          8           0        1.690563   -2.318363    0.886454
     28          8           0        1.385733   -1.801116   -1.211320
 ---------------------------------------------------------------------

 SCF Done:  E(RHF) =  -868.337269029     A.U. after   16 cycles
 E2 =    -0.2599923807D+01 EUMP2 =    -0.87093719283597D+03

 The electronic state is 1-A.
 Alpha  occ. eigenvalues --  -20.61109 -20.61051 -20.59966 -20.59895 -15.86124
 Alpha  occ. eigenvalues --  -15.84991 -11.31595 -11.30554 -11.28204 -11.28128
 Alpha  occ. eigenvalues --  -11.27909 -11.27222 -11.27218 -11.27166 -11.27057
 Alpha  occ. eigenvalues --  -11.27041 -11.26285 -11.26261  -1.60138  -1.59011
 Alpha  occ. eigenvalues --   -1.39694  -1.38552  -1.19769  -1.18778  -1.09139
 Alpha  occ. eigenvalues --   -1.08153  -1.05186  -1.04211  -0.95955  -0.94939
 Alpha  occ. eigenvalues --   -0.86576  -0.85602  -0.82786  -0.81766  -0.77826
 Alpha  occ. eigenvalues --   -0.76755  -0.72322  -0.71479  -0.71201  -0.70866
 Alpha  occ. eigenvalues --   -0.70341  -0.69888  -0.65416  -0.65179  -0.64432
 Alpha  occ. eigenvalues --   -0.64233  -0.62529  -0.61528  -0.55667  -0.54749
 Alpha  occ. eigenvalues --   -0.53514  -0.53271  -0.52545  -0.52304  -0.49085
 Alpha  occ. eigenvalues --   -0.49073  -0.48001  -0.47937  -0.45068  -0.43913
 Alpha  occ. eigenvalues --   -0.37751  -0.36812  -0.36796  -0.35830
 Alpha virt. eigenvalues --    0.04673   0.05772   0.10835   0.11818   0.16131
 Alpha virt. eigenvalues --    0.17195   0.20935   0.21911   0.26744   0.27424
 Alpha virt. eigenvalues --    0.28207   0.28896   0.30691   0.31349   0.32256

 Mulliken charges:
               1
     1  C   -0.171349
     2  C   -0.219449
     3  C   -0.170917
     4  C    0.158060
     5  C   -0.176750
     6  C   -0.220723
     7  H    0.221271
     8  H    0.220649
     9  H    0.274442
    10  H    0.291870
    11  H    0.217786
    12  N    0.487052
    13  O   -0.450109
    14  O   -0.465193
    15  C   -0.171275
    16  C   -0.219119
    17  C   -0.175582
    18  C    0.159041
    19  C   -0.170420
    20  C   -0.218335
    21  H    0.226351
    22  H    0.223123
    23  H    0.273420
    24  H    0.278042
    25  H    0.225042
    26  N    0.487474
    27  O   -0.451906
    28  O   -0.462496
 Sum of Mulliken charges =  -0.00000

 Dipole moment (field-independent basis, Debye):
    X=              5.2688    Y=              8.5036    Z=              0.3528  Tot=             10.0098
 Quadrupole moment (field-independent basis, Debye-Ang):
   XX=            -92.4603   YY=           -108.4258   ZZ=            -99.2540
   XY=             -7.1170   XZ=              0.5148   YZ=             -0.7815

 Normal termination of Gaussian 16 at Wed May  5 16:25:02 2021.
