 Gaussian 16, Revision A.03,
 Gaussian 16:  EM64L-G16RevA.03 25-Dec-2016

 -------------
 #p 6-31g* mp2
 -------------

 ------------------------------------------------------
 Input file generated by CHIRIPA (05-May-2021 14:51:13)
 ------------------------------------------------------
 Symbolic Z-matrix:
 Charge =  0 Multiplicity = 1

                         Standard orientation:
 ---------------------------------------------------------------------
 Center     Atomic      Atomic             Coordinates (Angstroms)
 Number     Number       Type             X           Y           Z
 ---------------------------------------------------------------------
      1          6           0        2.730273    1.084697    0.205610
      2          6           0        2.252861    2.037980   -0.890435
      3          6           0        2.503593    3.506640   -0.546974
      4          1           0        2.221992    1.334531    1.146980
      5          1           0        3.803726    1.243758    0.378216
      6          1           0        1.180925    1.876203   -1.061889
      7          1           0        2.762196    1.785724   -1.829349
      8          1           0        3.572345    3.689954   -0.396087
      9          1           0        1.982089    3.780947    0.375734
     10          1           0        2.154719    4.170563   -1.344065
     11          6           0        2.486491   -0.387108   -0.123160
     12          6           0        2.963904   -1.340392    0.972884
     13          6           0        2.713172   -2.809052    0.629423
     14          1           0        1.413038   -0.546170   -0.295767
     15          1           0        2.994773   -0.636943   -1.064530
     16          1           0        2.454569   -1.088135    1.911799
     17          1           0        4.035840   -1.178614    1.144339
     18          1           0        3.234676   -3.083359   -0.293285
     19          1           0        1.644420   -2.992366    0.478536
     20          1           0        3.062046   -3.472974    1.426514
     21          6           0       -2.721765   -1.056423   -0.305492
     22          6           0       -1.450019   -1.904930   -0.331689
     23          6           0       -1.692982   -3.317967   -0.862811
     24          1           0       -3.476929   -1.558095    0.314991
     25          1           0       -3.138163   -1.000939   -1.320838
     26          1           0       -1.035385   -1.957651    0.683158
     27          1           0       -0.697729   -1.401087   -0.952025
     28          1           0       -2.084812   -3.283410   -1.884514
     29          1           0       -2.424385   -3.843137   -0.240039
     30          1           0       -0.770697   -3.907160   -0.872908
     31          6           0       -2.495000    0.358835    0.223043
     32          6           0       -3.766745    1.207342    0.249239
     33          6           0       -3.523783    2.620378    0.780362
     34          1           0       -2.078602    0.303350    1.238390
     35          1           0       -1.739837    0.860505   -0.397440
     36          1           0       -4.519035    0.703498    0.869576
     37          1           0       -4.181380    1.260063   -0.765607
     38          1           0       -2.792379    3.145549    0.157591
     39          1           0       -3.131953    2.585822    1.802064
     40          1           0       -4.446068    3.209571    0.790459
 ---------------------------------------------------------------------

 SCF Done:  E(RHF) =  -470.733093345     A.U. after   11 cycles
 E2 =    -0.1584117791D+01 EUMP2 =    -0.47231721113572D+03

 The electronic state is 1-A.
 Alpha  occ. eigenvalues --  -11.21683 -11.21666 -11.21592 -11.21549 -11.21493
 Alpha  occ. eigenvalues --  -11.21432 -11.21336 -11.21247 -11.21130 -11.21121
 Alpha  occ. eigenvalues --  -11.21056 -11.21021  -1.08521  -1.08372  -1.03614
 Alpha  occ. eigenvalues --   -1.03483  -0.96050  -0.95935  -0.87070  -0.86949
 Alpha  occ. eigenvalues --   -0.79719  -0.79530  -0.78428  -0.78099  -0.65176
 Alpha  occ. eigenvalues --   -0.64984  -0.61004  -0.60915  -0.59451  -0.59265
 Alpha  occ. eigenvalues --   -0.57689  -0.57523  -0.55349  -0.55209  -0.52744
 Alpha  occ. eigenvalues --   -0.52640  -0.52533  -0.52310  -0.50024  -0.49852
 Alpha  occ. eigenvalues --   -0.48097  -0.47819  -0.46759  -0.46559  -0.46262
 Alpha  occ. eigenvalues --   -0.45796  -0.45711  -0.45131  -0.43855  -0.43736
 Alpha virt. eigenvalues --    0.20397   0.21978   0.23520   0.24416   0.25257
 Alpha virt. eigenvalues --    0.26315   0.26667   0.27450   0.28816   0.29830
 Alpha virt. eigenvalues --    0.30689   0.30921   0.31403   0.31746   0.32031

 Mulliken charges:
               1
     1  C   -0.297338
     2  C   -0.301086
     3  C   -0.475698
     4  H    0.149699
     5  H    0.149205
     6  H    0.152052
     7  H    0.151769
     8  H    0.155279
     9  H    0.155535
    10  H    0.159906
    11  C   -0.307783
    12  C   -0.298472
    13  C   -0.481417
    14  H    0.160008
    15  H    0.148490
    16  H    0.151271
    17  H    0.151647
    18  H    0.154824
    19  H    0.160912
    20  H    0.159876
    21  C   -0.297848
    22  C   -0.306473
    23  C   -0.477768
    24  H    0.150074
    25  H    0.149896
    26  H    0.152101
    27  H    0.157991
    28  H    0.155652
    29  H    0.155531
    30  H    0.162564
    31  C   -0.300560
    32  C   -0.299606
    33  C   -0.475839
    34  H    0.149381
    35  H    0.150606
    36  H    0.152311
    37  H    0.152238
    38  H    0.155356
    39  H    0.155125
    40  H    0.160591
 Sum of Mulliken charges =  -0.00000

 Dipole moment (field-independent basis, Debye):
    X=             -0.0633    Y=             -0.0148    Z=             -0.0096  Tot=              0.0657
 Quadrupole moment (field-independent basis, Debye-Ang):
   XX=            -83.9691   YY=            -87.0040   ZZ=            -83.8122
   XY=             -0.0810   XZ=             -0.6183   YZ=             -0.7292

 Normal termination of Gaussian 16 at Wed May  5 21:35:03 2021.
