 Gaussian 16, Revision A.03,
 Gaussian 16:  EM64L-G16RevA.03 25-Dec-2016

 -------------
 #p 6-31g* mp2
 -------------

 ------------------------------------------------------
 Input file generated by CHIRIPA (05-May-2021 14:57:26)
 ------------------------------------------------------
 Symbolic Z-matrix:
 Charge =  0 Multiplicity = 1

                         Standard orientation:
 ---------------------------------------------------------------------
 Center     Atomic      Atomic             Coordinates (Angstroms)
 Number     Number       Type             X           Y           Z
 ---------------------------------------------------------------------
      1          6           0       -0.748752    2.555464    0.008385
      2          6           0       -0.819445    1.756931   -1.137856
      3          6           0       -1.724131    0.693334   -1.207527
      4          6           0       -2.546893    0.455577   -0.107607
      5          6           0       -2.500152    1.233233    1.048402
      6          6           0       -1.587852    2.291532    1.095938
      7          1           0       -0.043013    3.379634    0.053910
      8          1           0       -0.169015    1.959573   -1.983977
      9          1           0       -1.799764    0.059304   -2.082572
     10          1           0       -3.161451    1.006666    1.875910
     11          1           0       -1.535143    2.910024    1.987417
     12          7           0       -3.508673   -0.667601   -0.169648
     13          8           0       -4.222622   -0.856327    0.812847
     14          8           0       -3.530357   -1.337954   -1.199596
     15          6           0        0.357197   -2.093191    0.458581
     16          6           0        1.089190   -1.627975    1.555980
     17          6           0        2.216306   -0.822549    1.367712
     18          6           0        2.584747   -0.500268    0.062462
     19          6           0        1.876042   -0.948254   -1.051241
     20          6           0        0.752263   -1.752445   -0.839239
     21          1           0       -0.517077   -2.718385    0.614052
     22          1           0        0.784705   -1.891010    2.565012
     23          1           0        2.801164   -0.448702    2.199335
     24          1           0        2.204100   -0.669274   -2.045206
     25          1           0        0.185693   -2.112302   -1.693373
     26          7           0        3.776208    0.351747   -0.149412
     27          8           0        4.080091    0.621517   -1.309376
     28          8           0        4.383631    0.733654    0.848496
 ---------------------------------------------------------------------

 SCF Done:  E(RHF) =  -868.337874821     A.U. after   16 cycles
 E2 =    -0.2603463906D+01 EUMP2 =    -0.87094133872782D+03

 The electronic state is 1-A.
 Alpha  occ. eigenvalues --  -20.61491 -20.61471 -20.61196 -20.61184 -15.86519
 Alpha  occ. eigenvalues --  -15.86239 -11.31609 -11.31466 -11.28208 -11.28169
 Alpha  occ. eigenvalues --  -11.28014 -11.27999 -11.27809 -11.27613 -11.27097
 Alpha  occ. eigenvalues --  -11.27080 -11.26960 -11.26939  -1.60570  -1.60276
 Alpha  occ. eigenvalues --   -1.40128  -1.39832  -1.19793  -1.19589  -1.09207
 Alpha  occ. eigenvalues --   -1.09009  -1.05192  -1.04960  -0.96089  -0.95875
 Alpha  occ. eigenvalues --   -0.86589  -0.86362  -0.82943  -0.82715  -0.78045
 Alpha  occ. eigenvalues --   -0.77794  -0.72738  -0.72456  -0.71920  -0.71606
 Alpha  occ. eigenvalues --   -0.70878  -0.70660  -0.65434  -0.65249  -0.65198
 Alpha  occ. eigenvalues --   -0.64937  -0.62585  -0.62295  -0.55619  -0.55422
 Alpha  occ. eigenvalues --   -0.54149  -0.53287  -0.53035  -0.52660  -0.49517
 Alpha  occ. eigenvalues --   -0.49469  -0.49225  -0.49199  -0.45590  -0.45269
 Alpha  occ. eigenvalues --   -0.38222  -0.37482  -0.37056  -0.35764
 Alpha virt. eigenvalues --    0.04256   0.04905   0.10045   0.11913   0.15734
 Alpha virt. eigenvalues --    0.16593   0.20293   0.21786   0.25842   0.27213
 Alpha virt. eigenvalues --    0.28221   0.28640   0.29891   0.31074   0.31867

 Mulliken charges:
               1
     1  C   -0.170299
     2  C   -0.215641
     3  C   -0.168103
     4  C    0.157762
     5  C   -0.172613
     6  C   -0.218513
     7  H    0.231356
     8  H    0.226115
     9  H    0.269251
    10  H    0.274425
    11  H    0.224927
    12  N    0.485867
    13  O   -0.459789
    14  O   -0.465491
    15  C   -0.173156
    16  C   -0.217410
    17  C   -0.171934
    18  C    0.158581
    19  C   -0.173987
    20  C   -0.219306
    21  H    0.235217
    22  H    0.225165
    23  H    0.274451
    24  H    0.271592
    25  H    0.227917
    26  N    0.487118
    27  O   -0.462989
    28  O   -0.460513
 Sum of Mulliken charges =  -0.00000

 Dipole moment (field-independent basis, Debye):
    X=             -0.8219    Y=              1.0034    Z=              1.0680  Tot=              1.6802
 Quadrupole moment (field-independent basis, Debye-Ang):
   XX=           -145.5528   YY=            -98.7067   ZZ=            -95.7856
   XY=            -14.6744   XZ=             -0.1668   YZ=              0.4749

 Normal termination of Gaussian 16 at Thu May  6 18:09:58 2021.
