 Gaussian 16, Revision A.03,
 Gaussian 16:  EM64L-G16RevA.03 25-Dec-2016

 -------------
 #p 6-31g* mp2
 -------------

 ------------------------------------------------------
 Input file generated by CHIRIPA (05-May-2021 14:57:27)
 ------------------------------------------------------
 Symbolic Z-matrix:
 Charge =  0 Multiplicity = 1

                         Standard orientation:
 ---------------------------------------------------------------------
 Center     Atomic      Atomic             Coordinates (Angstroms)
 Number     Number       Type             X           Y           Z
 ---------------------------------------------------------------------
      1          6           0       -1.162952   -2.028441   -0.005042
      2          6           0       -2.068125   -2.012907    1.061233
      3          6           0       -3.117931   -1.090011    1.087999
      4          6           0       -3.233308   -0.192991    0.027182
      5          6           0       -2.347552   -0.183514   -1.049218
      6          6           0       -1.305304   -1.115305   -1.055013
      7          1           0       -0.350373   -2.748824   -0.017690
      8          1           0       -1.960019   -2.720880    1.878015
      9          1           0       -3.832881   -1.055966    1.901083
     10          1           0       -2.481096    0.534664   -1.849095
     11          1           0       -0.603824   -1.125061   -1.884396
     12          7           0       -4.340690    0.788746    0.044418
     13          8           0       -4.420573    1.568523   -0.902263
     14          8           0       -5.107805    0.759866    1.004281
     15          6           0        2.465301    2.798226    0.205339
     16          6           0        1.840826    2.017747   -0.773132
     17          6           0        2.157444    0.662861   -0.909459
     18          6           0        3.107402    0.118571   -0.046546
     19          6           0        3.746868    0.870045    0.938168
     20          6           0        3.414656    2.222898    1.056366
     21          1           0        2.213287    3.849944    0.304200
     22          1           0        1.103168    2.461879   -1.435438
     23          1           0        1.689250    0.035579   -1.658277
     24          1           0        4.478214    0.399123    1.583756
     25          1           0        3.901229    2.826610    1.817169
     26          7           0        3.450845   -1.314710   -0.181273
     27          8           0        4.291128   -1.770432    0.591307
     28          8           0        2.873252   -1.955254   -1.056902
 ---------------------------------------------------------------------

 SCF Done:  E(RHF) =  -868.338974219     A.U. after   16 cycles
 E2 =    -0.2600021802D+01 EUMP2 =    -0.87093899602098D+03

 The electronic state is 1-A.
 Alpha  occ. eigenvalues --  -20.61665 -20.61608 -20.60909 -20.60894 -15.86671
 Alpha  occ. eigenvalues --  -15.85957 -11.31810 -11.31237 -11.28417 -11.28318
 Alpha  occ. eigenvalues --  -11.27995 -11.27859 -11.27785 -11.27371 -11.27303
 Alpha  occ. eigenvalues --  -11.27267 -11.26791 -11.26705  -1.60705  -1.59983
 Alpha  occ. eigenvalues --   -1.40269  -1.39540  -1.19953  -1.19393  -1.09376
 Alpha  occ. eigenvalues --   -1.08767  -1.05331  -1.04801  -0.96257  -0.95619
 Alpha  occ. eigenvalues --   -0.86741  -0.86175  -0.83105  -0.82474  -0.78204
 Alpha  occ. eigenvalues --   -0.77562  -0.72896  -0.72174  -0.72022  -0.71309
 Alpha  occ. eigenvalues --   -0.71062  -0.70397  -0.65607  -0.65370  -0.65029
 Alpha  occ. eigenvalues --   -0.64771  -0.62738  -0.62112  -0.55807  -0.55157
 Alpha  occ. eigenvalues --   -0.53678  -0.53462  -0.53081  -0.52836  -0.49672
 Alpha  occ. eigenvalues --   -0.49621  -0.48938  -0.48921  -0.45722  -0.44966
 Alpha  occ. eigenvalues --   -0.37907  -0.37359  -0.36947  -0.36311
 Alpha virt. eigenvalues --    0.04310   0.04986   0.10522   0.11421   0.15834
 Alpha virt. eigenvalues --    0.16515   0.19581   0.22052   0.25212   0.27164
 Alpha virt. eigenvalues --    0.28357   0.29153   0.30104   0.31083   0.32071

 Mulliken charges:
               1
     1  C   -0.173458
     2  C   -0.219232
     3  C   -0.170690
     4  C    0.158125
     5  C   -0.173533
     6  C   -0.223268
     7  H    0.241042
     8  H    0.225571
     9  H    0.275425
    10  H    0.271152
    11  H    0.223733
    12  N    0.488130
    13  O   -0.463102
    14  O   -0.459984
    15  C   -0.169461
    16  C   -0.217699
    17  C   -0.168714
    18  C    0.157313
    19  C   -0.170422
    20  C   -0.218292
    21  H    0.229722
    22  H    0.225250
    23  H    0.267975
    24  H    0.276393
    25  H    0.225977
    26  N    0.488062
    27  O   -0.456137
    28  O   -0.469877
 Sum of Mulliken charges =  -0.00000

 Dipole moment (field-independent basis, Debye):
    X=              2.8731    Y=              1.6135    Z=              0.6138  Tot=              3.3519
 Quadrupole moment (field-independent basis, Debye-Ang):
   XX=           -136.1542   YY=           -102.0196   ZZ=            -98.8599
   XY=             27.6874   XZ=              3.2801   YZ=             -1.8152

 Normal termination of Gaussian 16 at Thu May  6 05:14:46 2021.
