 Gaussian 16, Revision A.03,
 Gaussian 16:  EM64L-G16RevA.03 25-Dec-2016

 -------------
 #p 6-31g* mp2
 -------------

 ------------------------------------------------------
 Input file generated by CHIRIPA (05-May-2021 14:55:25)
 ------------------------------------------------------
 Symbolic Z-matrix:
 Charge =  0 Multiplicity = 1

                         Standard orientation:
 ---------------------------------------------------------------------
 Center     Atomic      Atomic             Coordinates (Angstroms)
 Number     Number       Type             X           Y           Z
 ---------------------------------------------------------------------
      1          6           0       -0.791981    0.534823    1.796156
      2          6           0       -0.560323   -0.455853    0.836252
      3          6           0       -1.594641   -0.893444    0.003638
      4          6           0       -2.853937   -0.316074    0.158902
      5          6           0       -3.116162    0.672753    1.105870
      6          6           0       -2.066914    1.094977    1.927670
      7          1           0        0.017301    0.868785    2.438750
      8          1           0        0.428794   -0.892659    0.731876
      9          1           0       -1.443020   -1.658812   -0.747789
     10          1           0       -4.112834    1.089398    1.186301
     11          1           0       -2.249729    1.864515    2.672274
     12          7           0       -3.956827   -0.771197   -0.716825
     13          8           0       -5.057258   -0.246673   -0.560098
     14          8           0       -3.699957   -1.643829   -1.543365
     15          6           0        2.892782    0.591142   -0.862718
     16          6           0        2.442483    2.005576   -0.495852
     17          6           0        1.386810    2.557200   -1.454529
     18          1           0        3.290961    0.593953   -1.886627
     19          1           0        2.018478   -0.074399   -0.869173
     20          1           0        3.317586    2.667966   -0.488738
     21          1           0        2.045506    1.999434    0.527373
     22          1           0        0.496610    1.919906   -1.455370
     23          1           0        1.775917    2.592234   -2.477254
     24          1           0        1.079204    3.569319   -1.173718
     25          6           0        3.947968    0.025982    0.086443
     26          6           0        4.398267   -1.388453   -0.280422
     27          6           0        5.453939   -1.940077    0.678254
     28          1           0        4.822272    0.691522    0.092899
     29          1           0        3.549789    0.023170    1.110352
     30          1           0        4.795243   -1.382311   -1.303647
     31          1           0        3.523163   -2.050842   -0.287536
     32          1           0        5.064833   -1.975111    1.700980
     33          1           0        6.344140   -1.302782    0.679096
     34          1           0        5.761545   -2.952195    0.397444
 ---------------------------------------------------------------------

 SCF Done:  E(RHF) =  -669.535307686     A.U. after   15 cycles
 E2 =    -0.2092941837D+01 EUMP2 =    -0.67162824952342D+03

 The electronic state is 1-A.
 Alpha  occ. eigenvalues --  -20.60806 -20.60801 -15.85861 -11.31257 -11.27838
 Alpha  occ. eigenvalues --  -11.27823 -11.27582 -11.26849 -11.26837 -11.22375
 Alpha  occ. eigenvalues --  -11.22324 -11.22245 -11.22164 -11.21716 -11.21495
 Alpha  occ. eigenvalues --   -1.59881  -1.39434  -1.19437  -1.09224  -1.08819
 Alpha  occ. eigenvalues --   -1.04846  -1.04205  -0.96641  -0.95652  -0.87651
 Alpha  occ. eigenvalues --   -0.86239  -0.82488  -0.80279  -0.79044  -0.77527
 Alpha  occ. eigenvalues --   -0.72079  -0.71205  -0.70541  -0.66014  -0.65087
 Alpha  occ. eigenvalues --   -0.64748  -0.62196  -0.61595  -0.60010  -0.58255
 Alpha  occ. eigenvalues --   -0.55957  -0.55329  -0.53299  -0.53167  -0.53085
 Alpha  occ. eigenvalues --   -0.52885  -0.50570  -0.48842  -0.48832  -0.48580
 Alpha  occ. eigenvalues --   -0.47330  -0.46557  -0.46511  -0.44833  -0.44493
 Alpha  occ. eigenvalues --   -0.37396  -0.36422
 Alpha virt. eigenvalues --    0.04983   0.11113   0.16368   0.18652   0.22903
 Alpha virt. eigenvalues --    0.23694   0.25092   0.25342   0.27026   0.28536
 Alpha virt. eigenvalues --    0.29401   0.30956   0.31108   0.31357   0.31950

 Mulliken charges:
               1
     1  C   -0.171408
     2  C   -0.218999
     3  C   -0.173112
     4  C    0.158834
     5  C   -0.170483
     6  C   -0.218615
     7  H    0.226253
     8  H    0.227835
     9  H    0.276125
    10  H    0.276018
    11  H    0.223923
    12  N    0.488117
    13  O   -0.460160
    14  O   -0.460129
    15  C   -0.301802
    16  C   -0.297996
    17  C   -0.478108
    18  H    0.155117
    19  H    0.143884
    20  H    0.154391
    21  H    0.143127
    22  H    0.160375
    23  H    0.157157
    24  H    0.160704
    25  C   -0.298939
    26  C   -0.299484
    27  C   -0.475868
    28  H    0.153792
    29  H    0.142008
    30  H    0.156015
    31  H    0.147188
    32  H    0.153864
    33  H    0.157289
    34  H    0.163087
 Sum of Mulliken charges =  -0.00000

 Dipole moment (field-independent basis, Debye):
    X=              3.9428    Y=              1.6338    Z=              3.0160  Tot=              5.2260
 Quadrupole moment (field-independent basis, Debye-Ang):
   XX=           -114.7450   YY=            -94.2406   ZZ=            -93.2549
   XY=             -7.5324   XZ=            -11.0628   YZ=              1.0134

 Normal termination of Gaussian 16 at Thu May  6 06:26:32 2021.
