 Gaussian 16, Revision A.03,
 Gaussian 16:  EM64L-G16RevA.03 25-Dec-2016

 -------------
 #p 6-31g* mp2
 -------------

 ------------------------------------------------------
 Input file generated by CHIRIPA (05-May-2021 14:51:13)
 ------------------------------------------------------
 Symbolic Z-matrix:
 Charge =  0 Multiplicity = 1

                         Standard orientation:
 ---------------------------------------------------------------------
 Center     Atomic      Atomic             Coordinates (Angstroms)
 Number     Number       Type             X           Y           Z
 ---------------------------------------------------------------------
      1          6           0        3.981437   -0.675790   -0.100471
      2          6           0        5.028987    0.294689   -0.647091
      3          6           0        6.129759   -0.409331   -1.441101
      4          1           0        4.477628   -1.419481    0.538014
      5          1           0        3.533966   -1.230583   -0.936755
      6          1           0        5.473367    0.848472    0.189848
      7          1           0        4.530219    1.036271   -1.284195
      8          1           0        5.704965   -0.947613   -2.294566
      9          1           0        6.653472   -1.136479   -0.812148
     10          1           0        6.867855    0.303083   -1.822599
     11          6           0        2.874413    0.013043    0.695604
     12          6           0        1.826862   -0.957436    1.242224
     13          6           0        0.726091   -0.253416    2.036234
     14          1           0        3.321883    0.567835    1.531888
     15          1           0        2.378222    0.756734    0.057119
     16          1           0        2.325631   -1.699018    1.879328
     17          1           0        1.382483   -1.511219    0.405285
     18          1           0        0.202378    0.473732    1.407281
     19          1           0        1.150885    0.284866    2.889699
     20          1           0       -0.012005   -0.965830    2.417731
     21          6           0       -3.465465   -0.424397   -0.193479
     22          6           0       -4.785676   -1.036330   -0.663122
     23          6           0       -4.845642   -2.548958   -0.448284
     24          1           0       -2.634989   -0.905339   -0.728223
     25          1           0       -3.323364   -0.650201    0.872455
     26          1           0       -4.925911   -0.808258   -1.727515
     27          1           0       -5.613117   -0.553741   -0.127338
     28          1           0       -4.731063   -2.792169    0.612999
     29          1           0       -4.039951   -3.048131   -0.996270
     30          1           0       -5.797892   -2.965683   -0.790951
     31          6           0       -3.390385    1.087144   -0.401653
     32          6           0       -2.070173    1.699078    0.067989
     33          6           0       -2.010208    3.211705   -0.146849
     34          1           0       -3.532485    1.312948   -1.467588
     35          1           0       -4.220861    1.568086    0.133090
     36          1           0       -1.242733    1.216489   -0.467795
     37          1           0       -1.929939    1.471005    1.132382
     38          1           0       -2.815899    3.710878    0.401137
     39          1           0       -2.124787    3.454916   -1.208132
     40          1           0       -1.057958    3.628430    0.195819
 ---------------------------------------------------------------------

 SCF Done:  E(RHF) =  -470.732567094     A.U. after   11 cycles
 E2 =    -0.1583182144D+01 EUMP2 =    -0.47231574923760D+03

 The electronic state is 1-A.
 Alpha  occ. eigenvalues --  -11.21624 -11.21614 -11.21588 -11.21531 -11.21425
 Alpha  occ. eigenvalues --  -11.21378 -11.21364 -11.21318 -11.21106 -11.21081
 Alpha  occ. eigenvalues --  -11.21062 -11.20873  -1.08462  -1.08388  -1.03577
 Alpha  occ. eigenvalues --   -1.03463  -0.96008  -0.95922  -0.87041  -0.86928
 Alpha  occ. eigenvalues --   -0.79736  -0.79467  -0.78309  -0.78168  -0.65087
 Alpha  occ. eigenvalues --   -0.65026  -0.60956  -0.60903  -0.59391  -0.59290
 Alpha  occ. eigenvalues --   -0.57692  -0.57471  -0.55289  -0.55221  -0.52716
 Alpha  occ. eigenvalues --   -0.52608  -0.52468  -0.52315  -0.49965  -0.49917
 Alpha  occ. eigenvalues --   -0.48115  -0.47682  -0.46671  -0.46592  -0.45884
 Alpha  occ. eigenvalues --   -0.45739  -0.45703  -0.45451  -0.43804  -0.43734
 Alpha virt. eigenvalues --    0.21712   0.23102   0.23743   0.24613   0.26000
 Alpha virt. eigenvalues --    0.26316   0.27233   0.27503   0.28039   0.29300
 Alpha virt. eigenvalues --    0.30654   0.31056   0.31749   0.31887   0.31929

 Mulliken charges:
               1
     1  C   -0.298185
     2  C   -0.299617
     3  C   -0.475673
     4  H    0.149710
     5  H    0.149247
     6  H    0.151923
     7  H    0.151795
     8  H    0.155084
     9  H    0.155191
    10  H    0.160194
    11  C   -0.298365
    12  C   -0.299145
    13  C   -0.484573
    14  H    0.149490
    15  H    0.149026
    16  H    0.151417
    17  H    0.151094
    18  H    0.167429
    19  H    0.153554
    20  H    0.158956
    21  C   -0.298519
    22  C   -0.299651
    23  C   -0.475681
    24  H    0.149374
    25  H    0.150207
    26  H    0.151874
    27  H    0.152006
    28  H    0.155246
    29  H    0.155134
    30  H    0.160298
    31  C   -0.297382
    32  C   -0.305041
    33  C   -0.475997
    34  H    0.149322
    35  H    0.149790
    36  H    0.151878
    37  H    0.157317
    38  H    0.155588
    39  H    0.155181
    40  H    0.160503
 Sum of Mulliken charges =  -0.00000

 Dipole moment (field-independent basis, Debye):
    X=             -0.0534    Y=              0.0292    Z=             -0.0038  Tot=              0.0610
 Quadrupole moment (field-independent basis, Debye-Ang):
   XX=            -85.1359   YY=            -86.1047   ZZ=            -83.6178
   XY=             -0.0328   XZ=              0.5601   YZ=             -0.0153

 Normal termination of Gaussian 16 at Wed May  5 21:35:03 2021.
