 Gaussian 16, Revision A.03,
 Gaussian 16:  EM64L-G16RevA.03 25-Dec-2016

 -------------
 #p 6-31g* mp2
 -------------

 ------------------------------------------------------
 Input file generated by CHIRIPA (05-May-2021 14:51:14)
 ------------------------------------------------------
 Symbolic Z-matrix:
 Charge =  0 Multiplicity = 1

                         Standard orientation:
 ---------------------------------------------------------------------
 Center     Atomic      Atomic             Coordinates (Angstroms)
 Number     Number       Type             X           Y           Z
 ---------------------------------------------------------------------
      1          6           0        1.840682   -1.100891    0.120339
      2          6           0        1.920619   -2.271193    1.101148
      3          6           0        0.623555   -3.078210    1.165512
      4          1           0        1.011377   -0.442111    0.412244
      5          1           0        1.597125   -1.485636   -0.879684
      6          1           0        2.165315   -1.884493    2.098747
      7          1           0        2.749950   -2.927161    0.806986
      8          1           0        0.377684   -3.491358    0.181918
      9          1           0       -0.210272   -2.442766    1.481018
     10          1           0        0.702809   -3.909815    1.872626
     11          6           0        3.129742   -0.284585    0.044855
     12          6           0        3.049805    0.885717   -0.935954
     13          6           0        4.346869    1.692734   -1.000318
     14          1           0        3.373299    0.100160    1.044878
     15          1           0        3.959046   -0.943364   -0.247050
     16          1           0        2.220473    1.541685   -0.641792
     17          1           0        2.805108    0.499017   -1.933553
     18          1           0        5.180696    1.057290   -1.315824
     19          1           0        4.592739    2.105883   -0.016724
     20          1           0        4.267614    2.524340   -1.707433
     21          6           0       -3.022106    0.151220   -0.126580
     22          6           0       -2.635298   -1.013505   -1.038600
     23          6           0       -3.719520   -2.088780   -1.116324
     24          1           0       -3.231343   -0.234020    0.880770
     25          1           0       -3.957528    0.598063   -0.490877
     26          1           0       -1.700151   -1.457144   -0.673497
     27          1           0       -2.426771   -0.625424   -2.043848
     28          1           0       -4.653404   -1.667046   -1.501812
     29          1           0       -3.922654   -2.503492   -0.123674
     30          1           0       -3.422226   -2.911904   -1.773547
     31          6           0       -1.948317    1.234256   -0.038614
     32          6           0       -2.335125    2.398981    0.873406
     33          6           0       -1.250903    3.474255    0.951129
     34          1           0       -1.012895    0.787412    0.325682
     35          1           0       -1.739079    1.619496   -1.045965
     36          1           0       -2.543652    2.010899    1.878655
     37          1           0       -3.270272    2.842619    0.508303
     38          1           0       -1.047768    3.888968   -0.041520
     39          1           0       -0.317019    3.052523    1.336618
     40          1           0       -1.548197    4.297380    1.608353
 ---------------------------------------------------------------------

 SCF Done:  E(RHF) =  -470.733163984     A.U. after   11 cycles
 E2 =    -0.1584232628D+01 EUMP2 =    -0.47231739661156D+03

 The electronic state is 1-A.
 Alpha  occ. eigenvalues --  -11.21655 -11.21620 -11.21590 -11.21507 -11.21426
 Alpha  occ. eigenvalues --  -11.21387 -11.21366 -11.21327 -11.21151 -11.21115
 Alpha  occ. eigenvalues --  -11.21061 -11.21014  -1.08477  -1.08400  -1.03565
 Alpha  occ. eigenvalues --   -1.03505  -0.96019  -0.95960  -0.87036  -0.86975
 Alpha  occ. eigenvalues --   -0.79647  -0.79550  -0.78436  -0.78073  -0.65227
 Alpha  occ. eigenvalues --   -0.64929  -0.60966  -0.60909  -0.59405  -0.59305
 Alpha  occ. eigenvalues --   -0.57681  -0.57520  -0.55355  -0.55214  -0.52707
 Alpha  occ. eigenvalues --   -0.52655  -0.52478  -0.52354  -0.50025  -0.49842
 Alpha  occ. eigenvalues --   -0.48056  -0.47825  -0.46709  -0.46601  -0.46382
 Alpha  occ. eigenvalues --   -0.45743  -0.45720  -0.45007  -0.43811  -0.43762
 Alpha virt. eigenvalues --    0.20101   0.22291   0.23697   0.24474   0.25629
 Alpha virt. eigenvalues --    0.26599   0.27006   0.27500   0.27895   0.30611
 Alpha virt. eigenvalues --    0.31175   0.31555   0.31671   0.31932   0.32083

 Mulliken charges:
               1
     1  C   -0.308044
     2  C   -0.299091
     3  C   -0.477825
     4  H    0.158149
     5  H    0.150323
     6  H    0.151705
     7  H    0.152322
     8  H    0.156358
     9  H    0.155679
    10  H    0.160760
    11  C   -0.297737
    12  C   -0.300689
    13  C   -0.475674
    14  H    0.149132
    15  H    0.149771
    16  H    0.153272
    17  H    0.152044
    18  H    0.155065
    19  H    0.155134
    20  H    0.160397
    21  C   -0.297689
    22  C   -0.305853
    23  C   -0.475326
    24  H    0.148827
    25  H    0.149510
    26  H    0.159239
    27  H    0.151362
    28  H    0.154779
    29  H    0.155166
    30  H    0.159894
    31  C   -0.307295
    32  C   -0.298989
    33  C   -0.476034
    34  H    0.157111
    35  H    0.150034
    36  H    0.151598
    37  H    0.152256
    38  H    0.155567
    39  H    0.154219
    40  H    0.160572
 Sum of Mulliken charges =  -0.00000

 Dipole moment (field-independent basis, Debye):
    X=              0.0271    Y=             -0.0133    Z=             -0.0056  Tot=              0.0307
 Quadrupole moment (field-independent basis, Debye-Ang):
   XX=            -85.8241   YY=            -85.3375   ZZ=            -83.6334
   XY=             -1.6481   XZ=              0.0814   YZ=              0.0147

 Normal termination of Gaussian 16 at Wed May  5 15:24:15 2021.
