 Gaussian 16, Revision A.03,
 Gaussian 16:  EM64L-G16RevA.03 25-Dec-2016

 -------------
 #p 6-31g* mp2
 -------------

 ------------------------------------------------------
 Input file generated by CHIRIPA (05-May-2021 14:55:22)
 ------------------------------------------------------
 Symbolic Z-matrix:
 Charge =  0 Multiplicity = 1

                         Standard orientation:
 ---------------------------------------------------------------------
 Center     Atomic      Atomic             Coordinates (Angstroms)
 Number     Number       Type             X           Y           Z
 ---------------------------------------------------------------------
      1          6           0       -1.256096   -2.009218    0.705675
      2          6           0       -0.767916   -0.990381   -0.119050
      3          6           0       -1.592910    0.072671   -0.498329
      4          6           0       -2.906735    0.085245   -0.032501
      5          6           0       -3.422384   -0.914973    0.790276
      6          6           0       -2.579439   -1.968334    1.156910
      7          1           0       -0.608248   -2.831259    0.995397
      8          1           0        0.259379   -1.019527   -0.470989
      9          1           0       -1.240798    0.874547   -1.135848
     10          1           0       -4.450978   -0.858474    1.125268
     11          1           0       -2.961272   -2.758201    1.797503
     12          7           0       -3.789622    1.205521   -0.427334
     13          8           0       -4.943274    1.193428   -0.003568
     14          8           0       -3.311258    2.074474   -1.153092
     15          6           0        3.997153    0.712474    0.121832
     16          6           0        3.249634    2.016310    0.403276
     17          6           0        4.189066    3.177900    0.728808
     18          1           0        4.612822    0.454533    0.994394
     19          1           0        4.691480    0.869378   -0.715237
     20          1           0        2.555923    1.856613    1.238667
     21          1           0        2.635526    2.271077   -0.469983
     22          1           0        4.872778    3.365802   -0.105358
     23          1           0        4.792723    2.948983    1.613000
     24          1           0        3.633729    4.100034    0.926616
     25          6           0        3.071583   -0.458034   -0.205217
     26          6           0        3.819102   -1.761870   -0.486660
     27          6           0        2.879670   -2.923461   -0.812191
     28          1           0        2.377255   -0.614939    0.631853
     29          1           0        2.455915   -0.200093   -1.077778
     30          1           0        4.433210   -2.016637    0.386599
     31          1           0        4.512813   -1.602173   -1.322051
     32          1           0        2.276013   -2.694544   -1.696384
     33          1           0        2.195958   -3.111363    0.021974
     34          1           0        3.435006   -3.845596   -1.010000
 ---------------------------------------------------------------------

 SCF Done:  E(RHF) =  -669.534908008     A.U. after   15 cycles
 E2 =    -0.2092731254D+01 EUMP2 =    -0.67162763926190D+03

 The electronic state is 1-A.
 Alpha  occ. eigenvalues --  -20.60674 -20.60669 -15.85724 -11.31059 -11.27623
 Alpha  occ. eigenvalues --  -11.27589 -11.27339 -11.26645 -11.26479 -11.22656
 Alpha  occ. eigenvalues --  -11.22535 -11.22333 -11.22206 -11.22141 -11.21484
 Alpha  occ. eigenvalues --   -1.59750  -1.39304  -1.19217  -1.09369  -1.08617
 Alpha  occ. eigenvalues --   -1.04615  -1.04377  -0.96861  -0.95464  -0.87875
 Alpha  occ. eigenvalues --   -0.86021  -0.82303  -0.80489  -0.79208  -0.77321
 Alpha  occ. eigenvalues --   -0.71944  -0.71072  -0.70338  -0.65983  -0.64863
 Alpha  occ. eigenvalues --   -0.64628  -0.61993  -0.61763  -0.60219  -0.58468
 Alpha  occ. eigenvalues --   -0.56169  -0.55122  -0.53514  -0.53330  -0.52938
 Alpha  occ. eigenvalues --   -0.52697  -0.50800  -0.48816  -0.48702  -0.48627
 Alpha  occ. eigenvalues --   -0.47519  -0.46624  -0.46577  -0.44717  -0.44647
 Alpha  occ. eigenvalues --   -0.37201  -0.36204
 Alpha virt. eigenvalues --    0.05175   0.11360   0.16663   0.19549   0.22464
 Alpha virt. eigenvalues --    0.23705   0.24148   0.25937   0.26653   0.28089
 Alpha virt. eigenvalues --    0.29206   0.30173   0.30889   0.31603   0.31854

 Mulliken charges:
               1
     1  C   -0.176702
     2  C   -0.226630
     3  C   -0.175128
     4  C    0.158957
     5  C   -0.171726
     6  C   -0.218271
     7  H    0.225991
     8  H    0.241731
     9  H    0.274843
    10  H    0.274959
    11  H    0.222703
    12  N    0.488060
    13  O   -0.460929
    14  O   -0.460810
    15  C   -0.297056
    16  C   -0.301243
    17  C   -0.476463
    18  H    0.152357
    19  H    0.152618
    20  H    0.153598
    21  H    0.151810
    22  H    0.156373
    23  H    0.155904
    24  H    0.164133
    25  C   -0.308191
    26  C   -0.298457
    27  C   -0.481265
    28  H    0.149419
    29  H    0.145491
    30  H    0.155869
    31  H    0.157075
    32  H    0.156065
    33  H    0.147382
    34  H    0.167533
 Sum of Mulliken charges =  -0.00000

 Dipole moment (field-independent basis, Debye):
    X=              3.4449    Y=             -3.8903    Z=              1.3871  Tot=              5.3783
 Quadrupole moment (field-independent basis, Debye-Ang):
   XX=           -109.6660   YY=            -95.6713   ZZ=            -93.1285
   XY=             13.0373   XZ=             -6.6815   YZ=             -1.3314

 Normal termination of Gaussian 16 at Thu May  6 15:51:58 2021.
