 Gaussian 16, Revision A.03,
 Gaussian 16:  EM64L-G16RevA.03 25-Dec-2016

 -------------
 #p 6-31g* mp2
 -------------

 ------------------------------------------------------
 Input file generated by CHIRIPA (05-May-2021 14:55:25)
 ------------------------------------------------------
 Symbolic Z-matrix:
 Charge =  0 Multiplicity = 1

                         Standard orientation:
 ---------------------------------------------------------------------
 Center     Atomic      Atomic             Coordinates (Angstroms)
 Number     Number       Type             X           Y           Z
 ---------------------------------------------------------------------
      1          6           0        0.854177   -0.916721    0.949845
      2          6           0        1.036532    0.372267    0.438203
      3          6           0        2.289582    0.780107   -0.028787
      4          6           0        3.343057   -0.130883    0.031027
      5          6           0        3.193019   -1.421870    0.535141
      6          6           0        1.931104   -1.808104    0.996598
      7          1           0       -0.122665   -1.225150    1.310465
      8          1           0        0.201979    1.066643    0.400670
      9          1           0        2.458678    1.772055   -0.429866
     10          1           0        4.043940   -2.091757    0.559661
     11          1           0        1.792412   -2.809772    1.393424
     12          7           0        4.674297    0.289443   -0.460426
     13          8           0        5.586370   -0.531968   -0.396842
     14          8           0        4.780442    1.432346   -0.899905
     15          6           0       -4.098903    0.924007    0.213460
     16          6           0       -3.106345    2.001354   -0.224877
     17          6           0       -3.320376    3.331613    0.497891
     18          1           0       -5.121846    1.281158    0.031877
     19          1           0       -4.008875    0.771763    1.297947
     20          1           0       -3.197249    2.150537   -1.308435
     21          1           0       -2.085640    1.641519   -0.042407
     22          1           0       -3.209345    3.204533    1.579613
     23          1           0       -4.327270    3.716443    0.306393
     24          1           0       -2.600156    4.087413    0.169393
     25          6           0       -3.897647   -0.411603   -0.500242
     26          6           0       -4.890204   -1.488951   -0.061905
     27          6           0       -4.676174   -2.819210   -0.784673
     28          1           0       -3.987675   -0.259360   -1.584729
     29          1           0       -2.874702   -0.768755   -0.318660
     30          1           0       -5.910910   -1.129116   -0.244375
     31          1           0       -4.799300   -1.638133    1.021652
     32          1           0       -3.669280   -3.204040   -0.593174
     33          1           0       -4.787205   -2.692130   -1.866395
     34          1           0       -5.396393   -3.575010   -0.456175
 ---------------------------------------------------------------------

 SCF Done:  E(RHF) =  -669.535471648     A.U. after   15 cycles
 E2 =    -0.2091370334D+01 EUMP2 =    -0.67162684198264D+03

 The electronic state is 1-A.
 Alpha  occ. eigenvalues --  -20.60752 -20.60747 -15.85805 -11.31176 -11.27744
 Alpha  occ. eigenvalues --  -11.27737 -11.27497 -11.26766 -11.26741 -11.22660
 Alpha  occ. eigenvalues --  -11.22391 -11.22325 -11.22267 -11.21915 -11.21772
 Alpha  occ. eigenvalues --   -1.59827  -1.39380  -1.19348  -1.09342  -1.08745
 Alpha  occ. eigenvalues --   -1.04752  -1.04396  -0.96818  -0.95578  -0.87830
 Alpha  occ. eigenvalues --   -0.86155  -0.82411  -0.80468  -0.79154  -0.77454
 Alpha  occ. eigenvalues --   -0.72024  -0.71150  -0.70463  -0.66017  -0.65001
 Alpha  occ. eigenvalues --   -0.64756  -0.62162  -0.61742  -0.60186  -0.58431
 Alpha  occ. eigenvalues --   -0.56110  -0.55257  -0.53500  -0.53235  -0.53080
 Alpha  occ. eigenvalues --   -0.52861  -0.50756  -0.48828  -0.48778  -0.48722
 Alpha  occ. eigenvalues --   -0.47505  -0.46690  -0.46609  -0.44785  -0.44652
 Alpha  occ. eigenvalues --   -0.37331  -0.36351
 Alpha virt. eigenvalues --    0.05074   0.11270   0.16547   0.18567   0.22623
 Alpha virt. eigenvalues --    0.23219   0.24978   0.26195   0.26598   0.27589
 Alpha virt. eigenvalues --    0.29413   0.30313   0.30896   0.31199   0.31871

 Mulliken charges:
               1
     1  C   -0.174645
     2  C   -0.225825
     3  C   -0.172745
     4  C    0.159071
     5  C   -0.171134
     6  C   -0.218481
     7  H    0.225919
     8  H    0.235147
     9  H    0.276283
    10  H    0.275576
    11  H    0.223395
    12  N    0.487965
    13  O   -0.460509
    14  O   -0.460328
    15  C   -0.298728
    16  C   -0.305220
    17  C   -0.476286
    18  H    0.154244
    19  H    0.148481
    20  H    0.157196
    21  H    0.143376
    22  H    0.155543
    23  H    0.159564
    24  H    0.161913
    25  C   -0.298100
    26  C   -0.300457
    27  C   -0.475506
    28  H    0.153617
    29  H    0.141903
    30  H    0.155077
    31  H    0.150810
    32  H    0.152419
    33  H    0.157791
    34  H    0.162673
 Sum of Mulliken charges =  -0.00000

 Dipole moment (field-independent basis, Debye):
    X=             -4.9201    Y=             -1.4386    Z=              1.6741  Tot=              5.3925
 Quadrupole moment (field-independent basis, Debye-Ang):
   XX=           -124.4957   YY=            -91.0478   ZZ=            -94.8078
   XY=             -6.6458   XZ=              6.8851   YZ=             -2.1819

 Normal termination of Gaussian 16 at Thu May  6 12:43:31 2021.
