 Gaussian 16, Revision A.03,
 Gaussian 16:  EM64L-G16RevA.03 25-Dec-2016

 -------------
 #p 6-31g* mp2
 -------------

 ------------------------------------------------------
 Input file generated by CHIRIPA (05-May-2021 14:57:25)
 ------------------------------------------------------
 Symbolic Z-matrix:
 Charge =  0 Multiplicity = 1

                         Standard orientation:
 ---------------------------------------------------------------------
 Center     Atomic      Atomic             Coordinates (Angstroms)
 Number     Number       Type             X           Y           Z
 ---------------------------------------------------------------------
      1          6           0       -2.569226   -2.373448   -0.881040
      2          6           0       -1.387354   -1.633022   -0.773951
      3          6           0       -1.422362   -0.293529   -0.375101
      4          6           0       -2.662158    0.276377   -0.089789
      5          6           0       -3.857016   -0.435056   -0.187092
      6          6           0       -3.798119   -1.773160   -0.587786
      7          1           0       -2.532751   -3.413459   -1.191593
      8          1           0       -0.431553   -2.096608   -1.001061
      9          1           0       -0.522687    0.302865   -0.283908
     10          1           0       -4.794778    0.054528    0.045993
     11          1           0       -4.717579   -2.345755   -0.670084
     12          7           0       -2.711866    1.693703    0.333431
     13          8           0       -3.816814    2.172609    0.579143
     14          8           0       -1.644936    2.298861    0.411426
     15          6           0        3.155095    2.195562   -0.891457
     16          6           0        2.275349    2.112598    0.192833
     17          6           0        1.990341    0.877695    0.783031
     18          6           0        2.605519   -0.259180    0.261147
     19          6           0        3.486447   -0.209049   -0.818085
     20          6           0        3.756775    1.036517   -1.392572
     21          1           0        3.370795    3.159006   -1.343835
     22          1           0        1.806624    3.011072    0.584097
     23          1           0        1.313168    0.784766    1.623399
     24          1           0        3.938387   -1.122147   -1.186081
     25          1           0        4.440406    1.097939   -2.234546
     26          7           0        2.311564   -1.572160    0.877648
     27          8           0        2.866460   -2.559012    0.399265
     28          8           0        1.531832   -1.589562    1.827570
 ---------------------------------------------------------------------

 SCF Done:  E(RHF) =  -868.339585702     A.U. after   16 cycles
 E2 =    -0.2601957224D+01 EUMP2 =    -0.87094154292649D+03

 The electronic state is 1-A.
 Alpha  occ. eigenvalues --  -20.61334 -20.61296 -20.60920 -20.60863 -15.86342
 Alpha  occ. eigenvalues --  -15.85931 -11.31520 -11.30947 -11.28038 -11.27886
 Alpha  occ. eigenvalues --  -11.27617 -11.27498 -11.27417 -11.27143 -11.27000
 Alpha  occ. eigenvalues --  -11.26809 -11.26452 -11.26378  -1.60410  -1.59961
 Alpha  occ. eigenvalues --   -1.39956  -1.39530  -1.19646  -1.19087  -1.09057
 Alpha  occ. eigenvalues --   -1.08545  -1.04964  -1.04443  -0.95930  -0.95440
 Alpha  occ. eigenvalues --   -0.86373  -0.85856  -0.82731  -0.82295  -0.77844
 Alpha  occ. eigenvalues --   -0.77377  -0.72543  -0.72180  -0.71775  -0.71267
 Alpha  occ. eigenvalues --   -0.70696  -0.70187  -0.65243  -0.64899  -0.64747
 Alpha  occ. eigenvalues --   -0.64451  -0.62294  -0.61794  -0.55429  -0.54974
 Alpha  occ. eigenvalues --   -0.53420  -0.52987  -0.52775  -0.52430  -0.49326
 Alpha  occ. eigenvalues --   -0.49295  -0.48936  -0.48877  -0.45387  -0.45012
 Alpha  occ. eigenvalues --   -0.37606  -0.37039  -0.36538  -0.35998
 Alpha virt. eigenvalues --    0.04579   0.05141   0.10962   0.11685   0.16164
 Alpha virt. eigenvalues --    0.16713   0.21348   0.21835   0.27173   0.27413
 Alpha virt. eigenvalues --    0.28259   0.28832   0.30960   0.31464   0.32259

 Mulliken charges:
               1
     1  C   -0.169616
     2  C   -0.217769
     3  C   -0.173613
     4  C    0.155161
     5  C   -0.170463
     6  C   -0.219036
     7  H    0.227793
     8  H    0.227361
     9  H    0.279816
    10  H    0.273926
    11  H    0.222836
    12  N    0.489084
    13  O   -0.458616
    14  O   -0.472516
    15  C   -0.171568
    16  C   -0.211724
    17  C   -0.190417
    18  C    0.154698
    19  C   -0.174254
    20  C   -0.217675
    21  H    0.229256
    22  H    0.239866
    23  H    0.283658
    24  H    0.274303
    25  H    0.224386
    26  N    0.485219
    27  O   -0.462840
    28  O   -0.457255
 Sum of Mulliken charges =  -0.00000

 Dipole moment (field-independent basis, Debye):
    X=              1.3019    Y=             -0.2468    Z=             -3.6152  Tot=              3.8504
 Quadrupole moment (field-independent basis, Debye-Ang):
   XX=            -93.8480   YY=           -109.4051   ZZ=           -104.6711
   XY=             25.1679   XZ=             -4.1851   YZ=              3.5392

 Normal termination of Gaussian 16 at Wed May  5 16:27:23 2021.
