 Gaussian 16, Revision A.03,
 Gaussian 16:  EM64L-G16RevA.03 25-Dec-2016

 -------------
 #p 6-31g* mp2
 -------------

 ------------------------------------------------------
 Input file generated by CHIRIPA (05-May-2021 14:53:17)
 ------------------------------------------------------
 Symbolic Z-matrix:
 Charge =  0 Multiplicity = 1

                         Standard orientation:
 ---------------------------------------------------------------------
 Center     Atomic      Atomic             Coordinates (Angstroms)
 Number     Number       Type             X           Y           Z
 ---------------------------------------------------------------------
      1          6           0       -3.312021    0.884812   -0.243653
      2          6           0       -3.719673    2.230192    0.357808
      3          6           0       -3.015360    3.412948   -0.307643
      4          1           0       -2.223893    0.764125   -0.152231
      5          1           0       -3.536800    0.888714   -1.319225
      6          1           0       -3.495467    2.223247    1.432191
      7          1           0       -4.806981    2.347605    0.265116
      8          1           0       -3.248238    3.448083   -1.376817
      9          1           0       -1.929272    3.323019   -0.203111
     10          1           0       -3.321396    4.364728    0.137686
     11          6           0       -4.007728   -0.307233    0.411136
     12          6           0       -3.600075   -1.652613   -0.190325
     13          6           0       -4.304388   -2.835369    0.475126
     14          1           0       -3.782948   -0.311135    1.486708
     15          1           0       -5.095855   -0.186546    0.319714
     16          1           0       -2.512767   -1.770026   -0.097632
     17          1           0       -3.824281   -1.645668   -1.264708
     18          1           0       -5.390476   -2.745440    0.370594
     19          1           0       -4.071510   -2.870504    1.544301
     20          1           0       -3.998352   -3.787149    0.029798
     21          6           0        5.024195    0.984026    0.399136
     22          6           0        3.844781    1.710043    0.203162
     23          6           0        2.639497    1.050317   -0.054908
     24          6           0        2.649980   -0.342561   -0.110335
     25          6           0        3.808530   -1.093959    0.080596
     26          6           0        5.002344   -0.413194    0.337337
     27          1           0        5.956033    1.504689    0.599095
     28          1           0        3.858769    2.795216    0.250588
     29          1           0        1.711850    1.587624   -0.210439
     30          1           0        3.763152   -2.174941    0.027331
     31          1           0        5.916763   -0.979622    0.489134
     32          7           0        1.380071   -1.052120   -0.382839
     33          8           0        1.415846   -2.279898   -0.426614
     34          8           0        0.372989   -0.367057   -0.547492
 ---------------------------------------------------------------------

 SCF Done:  E(RHF) =  -669.536487547     A.U. after   15 cycles
 E2 =    -0.2091456905D+01 EUMP2 =    -0.67162794445224D+03

 The electronic state is 1-A.
 Alpha  occ. eigenvalues --  -20.61063 -20.61055 -15.86084 -11.31363 -11.27922
 Alpha  occ. eigenvalues --  -11.27916 -11.27649 -11.26917 -11.26907 -11.20761
 Alpha  occ. eigenvalues --  -11.20504 -11.20180 -11.20070 -11.20033 -11.19891
 Alpha  occ. eigenvalues --   -1.60112  -1.39671  -1.19526  -1.08938  -1.07248
 Alpha  occ. eigenvalues --   -1.04916  -1.02460  -0.95787  -0.94942  -0.86318
 Alpha  occ. eigenvalues --   -0.85974  -0.82625  -0.78513  -0.77687  -0.76991
 Alpha  occ. eigenvalues --   -0.72304  -0.71422  -0.70635  -0.65185  -0.64918
 Alpha  occ. eigenvalues --   -0.63873  -0.62264  -0.59867  -0.58329  -0.56525
 Alpha  occ. eigenvalues --   -0.55421  -0.54244  -0.53250  -0.53007  -0.51687
 Alpha  occ. eigenvalues --   -0.51372  -0.49086  -0.49066  -0.48905  -0.46833
 Alpha  occ. eigenvalues --   -0.45517  -0.45121  -0.44581  -0.44327  -0.42673
 Alpha  occ. eigenvalues --   -0.37502  -0.36515
 Alpha virt. eigenvalues --    0.04838   0.11141   0.16336   0.21126   0.23863
 Alpha virt. eigenvalues --    0.25143   0.26861   0.27454   0.28103   0.28903
 Alpha virt. eigenvalues --    0.29212   0.30923   0.31820   0.32532   0.32932

 Mulliken charges:
               1
     1  C   -0.308187
     2  C   -0.298440
     3  C   -0.473255
     4  H    0.174405
     5  H    0.146213
     6  H    0.148574
     7  H    0.148760
     8  H    0.154767
     9  H    0.150417
    10  H    0.155834
    11  C   -0.296529
    12  C   -0.305706
    13  C   -0.474938
    14  H    0.145430
    15  H    0.143293
    16  H    0.174877
    17  H    0.148413
    18  H    0.149566
    19  H    0.151997
    20  H    0.159640
    21  C   -0.170460
    22  C   -0.218522
    23  C   -0.170439
    24  C    0.157233
    25  C   -0.170495
    26  C   -0.218585
    27  H    0.226298
    28  H    0.224255
    29  H    0.275402
    30  H    0.276015
    31  H    0.224067
    32  N    0.495653
    33  O   -0.458322
    34  O   -0.467229
 Sum of Mulliken charges =  -0.00000

 Dipole moment (field-independent basis, Debye):
    X=              4.8941    Y=              2.3794    Z=              0.8991  Tot=              5.5157
 Quadrupole moment (field-independent basis, Debye-Ang):
   XX=            -71.3873   YY=            -94.3135   ZZ=            -95.6949
   XY=              2.4847   XZ=              3.2347   YZ=             -0.5103

 Normal termination of Gaussian 16 at Thu May  6 04:24:11 2021.
