 Gaussian 16, Revision A.03,
 Gaussian 16:  EM64L-G16RevA.03 25-Dec-2016

 -------------
 #p 6-31g* mp2
 -------------

 ------------------------------------------------------
 Input file generated by CHIRIPA (05-May-2021 14:55:20)
 ------------------------------------------------------
 Symbolic Z-matrix:
 Charge =  0 Multiplicity = 1

                         Standard orientation:
 ---------------------------------------------------------------------
 Center     Atomic      Atomic             Coordinates (Angstroms)
 Number     Number       Type             X           Y           Z
 ---------------------------------------------------------------------
      1          6           0       -0.661402   -0.829719   -0.374142
      2          6           0       -0.953901    0.465095    0.066791
      3          6           0       -2.278898    0.866746    0.260717
      4          6           0       -3.291222   -0.056306    0.002909
      5          6           0       -3.031880   -1.353347   -0.437224
      6          6           0       -1.699495   -1.733215   -0.624302
      7          1           0        0.370758   -1.133270   -0.522129
      8          1           0       -0.149735    1.168877    0.261860
      9          1           0       -2.533649    1.862984    0.601349
     10          1           0       -3.854908   -2.032617   -0.623329
     11          1           0       -1.475303   -2.739430   -0.966812
     12          7           0       -4.697848    0.357373    0.204585
     13          8           0       -5.571643   -0.474660   -0.029594
     14          8           0       -4.899931    1.505815    0.593017
     15          6           0        4.202208   -0.446976    0.404757
     16          6           0        3.734943   -1.781985   -0.176102
     17          6           0        4.315944   -2.985567    0.566610
     18          1           0        5.299536   -0.404507    0.372942
     19          1           0        3.918075   -0.396837    1.465017
     20          1           0        4.018653   -1.829008   -1.235306
     21          1           0        2.638591   -1.821202   -0.143076
     22          1           0        4.021901   -2.966242    1.621013
     23          1           0        5.409804   -2.974093    0.522577
     24          1           0        3.968913   -3.929513    0.134874
     25          6           0        3.629838    0.765660   -0.327114
     26          6           0        4.097104    2.100668    0.253747
     27          6           0        3.516102    3.304250   -0.488966
     28          1           0        3.913970    0.715520   -1.387374
     29          1           0        2.532509    0.723190   -0.295298
     30          1           0        5.193455    2.139885    0.220719
     31          1           0        3.813393    2.147692    1.312950
     32          1           0        2.422241    3.292776   -0.444933
     33          1           0        3.810144    3.284926   -1.543370
     34          1           0        3.863133    4.248196   -0.057230
 ---------------------------------------------------------------------

 SCF Done:  E(RHF) =  -669.535336692     A.U. after   15 cycles
 E2 =    -0.2091987411D+01 EUMP2 =    -0.67162732410305D+03

 The electronic state is 1-A.
 Alpha  occ. eigenvalues --  -20.60732 -20.60727 -15.85786 -11.31146 -11.27720
 Alpha  occ. eigenvalues --  -11.27715 -11.27427 -11.26731 -11.26719 -11.22817
 Alpha  occ. eigenvalues --  -11.22588 -11.22520 -11.22429 -11.22008 -11.21938
 Alpha  occ. eigenvalues --   -1.59808  -1.39362  -1.19319  -1.09519  -1.08712
 Alpha  occ. eigenvalues --   -1.04725  -1.04545  -0.96967  -0.95551  -0.87980
 Alpha  occ. eigenvalues --   -0.86123  -0.82388  -0.80619  -0.79352  -0.77432
 Alpha  occ. eigenvalues --   -0.72004  -0.71131  -0.70450  -0.66171  -0.64970
 Alpha  occ. eigenvalues --   -0.64715  -0.62100  -0.61927  -0.60342  -0.58585
 Alpha  occ. eigenvalues --   -0.56252  -0.55252  -0.53632  -0.53384  -0.53051
 Alpha  occ. eigenvalues --   -0.52820  -0.50910  -0.48930  -0.48759  -0.48753
 Alpha  occ. eigenvalues --   -0.47656  -0.46878  -0.46776  -0.44811  -0.44768
 Alpha  occ. eigenvalues --   -0.37294  -0.36331
 Alpha virt. eigenvalues --    0.05101   0.11320   0.16571   0.17936   0.21974
 Alpha virt. eigenvalues --    0.22889   0.24846   0.25897   0.26431   0.27261
 Alpha virt. eigenvalues --    0.29230   0.30794   0.30975   0.31177   0.32100

 Mulliken charges:
               1
     1  C   -0.179397
     2  C   -0.224981
     3  C   -0.170611
     4  C    0.158398
     5  C   -0.170658
     6  C   -0.221528
     7  H    0.239487
     8  H    0.225632
     9  H    0.275561
    10  H    0.275473
    11  H    0.223768
    12  N    0.487911
    13  O   -0.460508
    14  O   -0.460529
    15  C   -0.298968
    16  C   -0.305584
    17  C   -0.475749
    18  H    0.154832
    19  H    0.151704
    20  H    0.155274
    21  H    0.144159
    22  H    0.157638
    23  H    0.159246
    24  H    0.161451
    25  C   -0.300900
    26  C   -0.301123
    27  C   -0.475482
    28  H    0.153514
    29  H    0.139800
    30  H    0.156232
    31  H    0.153094
    32  H    0.150089
    33  H    0.158093
    34  H    0.164660
 Sum of Mulliken charges =  -0.00000

 Dipole moment (field-independent basis, Debye):
    X=              5.2786    Y=             -1.4430    Z=             -0.6965  Tot=              5.5165
 Quadrupole moment (field-independent basis, Debye-Ang):
   XX=           -125.4599   YY=            -91.0847   ZZ=            -94.9019
   XY=              6.5490   XZ=              2.2783   YZ=              1.9247

 Normal termination of Gaussian 16 at Thu May  6 17:26:15 2021.
