 Gaussian 16, Revision A.03,
 Gaussian 16:  EM64L-G16RevA.03 25-Dec-2016

 -------------
 #p 6-31g* mp2
 -------------

 ------------------------------------------------------
 Input file generated by CHIRIPA (05-May-2021 14:57:27)
 ------------------------------------------------------
 Symbolic Z-matrix:
 Charge =  0 Multiplicity = 1

                         Standard orientation:
 ---------------------------------------------------------------------
 Center     Atomic      Atomic             Coordinates (Angstroms)
 Number     Number       Type             X           Y           Z
 ---------------------------------------------------------------------
      1          6           0       -0.590933   -1.569704    1.479886
      2          6           0       -1.171009   -0.380520    1.933621
      3          6           0       -2.220764    0.212569    1.225944
      4          6           0       -2.667595   -0.413415    0.063285
      5          6           0       -2.110243   -1.598529   -0.414368
      6          6           0       -1.061572   -2.173848    0.309403
      7          1           0        0.224121   -2.023528    2.035878
      8          1           0       -0.807547    0.090891    2.842308
      9          1           0       -2.688009    1.132929    1.554634
     10          1           0       -2.494077   -2.045007   -1.323624
     11          1           0       -0.612982   -3.097412   -0.045339
     12          7           0       -3.778350    0.205056   -0.694420
     13          8           0       -4.153842   -0.366233   -1.715827
     14          8           0       -4.252435    1.249391   -0.252556
     15          6           0        1.059820    2.530567    0.336252
     16          6           0        1.559064    1.736988    1.374282
     17          6           0        2.349504    0.618061    1.095440
     18          6           0        2.622265    0.320522   -0.238862
     19          6           0        2.139496    1.091664   -1.295065
     20          6           0        1.351116    2.205945   -0.992767
     21          1           0        0.446588    3.397972    0.561974
     22          1           0        1.334455    1.986700    2.407356
     23          1           0        2.748919   -0.013525    1.879649
     24          1           0        2.380418    0.817508   -2.314973
     25          1           0        0.964751    2.820443   -1.800949
     26          7           0        3.457978   -0.861577   -0.546476
     27          8           0        3.683910   -1.102406   -1.730365
     28          8           0        3.871252   -1.524893    0.402129
 ---------------------------------------------------------------------

 SCF Done:  E(RHF) =  -868.336582251     A.U. after   16 cycles
 E2 =    -0.2603475023D+01 EUMP2 =    -0.87094005727450D+03

 The electronic state is 1-A.
 Alpha  occ. eigenvalues --  -20.61401 -20.61367 -20.61079 -20.61060 -15.86434
 Alpha  occ. eigenvalues --  -15.86123 -11.31713 -11.31420 -11.28331 -11.28211
 Alpha  occ. eigenvalues --  -11.28017 -11.27953 -11.27918 -11.27655 -11.27328
 Alpha  occ. eigenvalues --  -11.27188 -11.27054 -11.26895  -1.60465  -1.60151
 Alpha  occ. eigenvalues --   -1.40022  -1.39706  -1.19879  -1.19571  -1.09278
 Alpha  occ. eigenvalues --   -1.08986  -1.05295  -1.04968  -0.96135  -0.95828
 Alpha  occ. eigenvalues --   -0.86694  -0.86382  -0.82978  -0.82673  -0.78058
 Alpha  occ. eigenvalues --   -0.77731  -0.72652  -0.72342  -0.71794  -0.71477
 Alpha  occ. eigenvalues --   -0.71001  -0.70656  -0.65539  -0.65349  -0.65231
 Alpha  occ. eigenvalues --   -0.64972  -0.62669  -0.62316  -0.55757  -0.55459
 Alpha  occ. eigenvalues --   -0.54147  -0.53411  -0.53057  -0.52753  -0.49420
 Alpha  occ. eigenvalues --   -0.49399  -0.49104  -0.49091  -0.45448  -0.45128
 Alpha  occ. eigenvalues --   -0.38083  -0.37987  -0.36734  -0.35910
 Alpha virt. eigenvalues --    0.04303   0.04897   0.10503   0.11238   0.16067
 Alpha virt. eigenvalues --    0.16436   0.19521   0.22098   0.25577   0.26533
 Alpha virt. eigenvalues --    0.28312   0.28896   0.29368   0.31412   0.32578

 Mulliken charges:
               1
     1  C   -0.171101
     2  C   -0.210388
     3  C   -0.173167
     4  C    0.158451
     5  C   -0.171360
     6  C   -0.219841
     7  H    0.229169
     8  H    0.214389
     9  H    0.270739
    10  H    0.276718
    11  H    0.229639
    12  N    0.487681
    13  O   -0.458971
    14  O   -0.463404
    15  C   -0.169046
    16  C   -0.216224
    17  C   -0.172791
    18  C    0.160497
    19  C   -0.170099
    20  C   -0.217329
    21  H    0.228402
    22  H    0.217738
    23  H    0.269765
    24  H    0.277383
    25  H    0.228480
    26  N    0.487258
    27  O   -0.457686
    28  O   -0.464902
 Sum of Mulliken charges =  -0.00000

 Dipole moment (field-independent basis, Debye):
    X=              1.0123    Y=              1.9726    Z=              3.5278  Tot=              4.1667
 Quadrupole moment (field-independent basis, Debye-Ang):
   XX=           -143.3504   YY=            -97.8893   ZZ=            -98.5483
   XY=             14.1855   XZ=             -3.1975   YZ=             -0.3231

 Normal termination of Gaussian 16 at Thu May  6 11:32:54 2021.
