 Gaussian 16, Revision A.03,
 Gaussian 16:  EM64L-G16RevA.03 25-Dec-2016

 -------------
 #p 6-31g* mp2
 -------------

 ------------------------------------------------------
 Input file generated by CHIRIPA (05-May-2021 14:53:12)
 ------------------------------------------------------
 Symbolic Z-matrix:
 Charge =  0 Multiplicity = 1

                         Standard orientation:
 ---------------------------------------------------------------------
 Center     Atomic      Atomic             Coordinates (Angstroms)
 Number     Number       Type             X           Y           Z
 ---------------------------------------------------------------------
      1          6           0       -3.610635   -0.458236   -0.307840
      2          6           0       -3.348570   -1.687891    0.562364
      3          6           0       -3.562363   -3.001362   -0.190551
      4          1           0       -4.639724   -0.500059   -0.690164
      5          1           0       -2.949720   -0.490870   -1.185064
      6          1           0       -4.008809   -1.652237    1.438394
      7          1           0       -2.320047   -1.643038    0.942817
      8          1           0       -2.893362   -3.063195   -1.054967
      9          1           0       -4.591720   -3.072446   -0.556574
     10          1           0       -3.369592   -3.867413    0.450273
     11          6           0       -3.401072    0.862458    0.430794
     12          6           0       -3.663137    2.092113   -0.439410
     13          6           0       -3.449344    3.405584    0.313505
     14          1           0       -4.061987    0.895092    1.308018
     15          1           0       -2.371983    0.904281    0.813118
     16          1           0       -4.691660    2.047260   -0.819863
     17          1           0       -3.002898    2.056459   -1.315440
     18          1           0       -2.419987    3.476668    0.679528
     19          1           0       -4.118345    3.467416    1.177921
     20          1           0       -3.642115    4.271635   -0.327319
     21          6           0        0.623224   -1.525765   -0.184343
     22          6           0        1.846539   -2.152555    0.074807
     23          6           0        3.025135   -1.404612    0.152531
     24          6           0        2.943489   -0.025659   -0.034851
     25          6           0        1.739864    0.627908   -0.294518
     26          6           0        0.573879   -0.139977   -0.367855
     27          1           0       -0.287438   -2.114532   -0.243016
     28          1           0        1.887867   -3.228616    0.217746
     29          1           0        3.985590   -1.864191    0.351858
     30          1           0        1.730322    1.702277   -0.432580
     31          1           0       -0.374758    0.349486   -0.569251
     32          7           0        4.184539    0.776711    0.045109
     33          8           0        4.085883    1.990138   -0.123711
     34          8           0        5.232433    0.176990    0.275087
 ---------------------------------------------------------------------

 SCF Done:  E(RHF) =  -669.534948547     A.U. after   15 cycles
 E2 =    -0.2093125068D+01 EUMP2 =    -0.67162807361520D+03

 The electronic state is 1-A.
 Alpha  occ. eigenvalues --  -20.60759 -20.60754 -15.85813 -11.31185 -11.27755
 Alpha  occ. eigenvalues --  -11.27751 -11.27458 -11.26758 -11.26741 -11.22825
 Alpha  occ. eigenvalues --  -11.22587 -11.22518 -11.22423 -11.22279 -11.21775
 Alpha  occ. eigenvalues --   -1.59835  -1.39388  -1.19356  -1.09566  -1.08743
 Alpha  occ. eigenvalues --   -1.04759  -1.04587  -0.97022  -0.95583  -0.88026
 Alpha  occ. eigenvalues --   -0.86159  -0.82420  -0.80643  -0.79337  -0.77467
 Alpha  occ. eigenvalues --   -0.72032  -0.71158  -0.70516  -0.66387  -0.65002
 Alpha  occ. eigenvalues --   -0.64619  -0.62109  -0.62002  -0.60384  -0.58609
 Alpha  occ. eigenvalues --   -0.56421  -0.55150  -0.53678  -0.53419  -0.53088
 Alpha  occ. eigenvalues --   -0.52829  -0.50970  -0.48935  -0.48787  -0.48784
 Alpha  occ. eigenvalues --   -0.47703  -0.46842  -0.46830  -0.44838  -0.44792
 Alpha  occ. eigenvalues --   -0.37319  -0.36360
 Alpha virt. eigenvalues --    0.05047   0.11183   0.16462   0.17861   0.21787
 Alpha virt. eigenvalues --    0.23787   0.25214   0.26259   0.26450   0.28341
 Alpha virt. eigenvalues --    0.29473   0.30553   0.30879   0.31433   0.32500

 Mulliken charges:
               1
     1  C   -0.301435
     2  C   -0.306492
     3  C   -0.479209
     4  H    0.156360
     5  H    0.143745
     6  H    0.159477
     7  H    0.147503
     8  H    0.150951
     9  H    0.161910
    10  H    0.163106
    11  C   -0.304157
    12  C   -0.301605
    13  C   -0.475902
    14  H    0.155860
    15  H    0.147123
    16  H    0.155978
    17  H    0.148727
    18  H    0.154771
    19  H    0.158074
    20  H    0.164016
    21  C   -0.177770
    22  C   -0.219682
    23  C   -0.170661
    24  C    0.158761
    25  C   -0.172047
    26  C   -0.226433
    27  H    0.234287
    28  H    0.223869
    29  H    0.275600
    30  H    0.275731
    31  H    0.232351
    32  N    0.488019
    33  O   -0.460417
    34  O   -0.460407
 Sum of Mulliken charges =  -0.00000

 Dipole moment (field-independent basis, Debye):
    X=             -4.6385    Y=             -2.7858    Z=             -0.2243  Tot=              5.4154
 Quadrupole moment (field-independent basis, Debye-Ang):
   XX=           -117.2579   YY=            -91.9472   ZZ=            -95.5284
   XY=            -10.9899   XZ=             -0.6412   YZ=             -1.2090

 Normal termination of Gaussian 16 at Thu May  6 02:32:06 2021.
