 Gaussian 16, Revision A.03,
 Gaussian 16:  EM64L-G16RevA.03 25-Dec-2016

 -------------
 #p 6-31g* mp2
 -------------

 ------------------------------------------------------
 Input file generated by CHIRIPA (05-May-2021 14:51:08)
 ------------------------------------------------------
 Symbolic Z-matrix:
 Charge =  0 Multiplicity = 1

                         Standard orientation:
 ---------------------------------------------------------------------
 Center     Atomic      Atomic             Coordinates (Angstroms)
 Number     Number       Type             X           Y           Z
 ---------------------------------------------------------------------
      1          6           0        3.006437    0.694860   -0.467587
      2          6           0        3.571171   -0.657190   -0.030529
      3          6           0        4.670487   -1.167821   -0.962491
      4          1           0        2.611718    0.607283   -1.489092
      5          1           0        3.822891    1.429034   -0.509855
      6          1           0        2.753661   -1.388260    0.012238
      7          1           0        3.964419   -0.566432    0.990126
      8          1           0        5.505101   -0.460166   -0.997757
      9          1           0        4.287464   -1.286662   -1.981201
     10          1           0        5.059995   -2.135577   -0.631443
     11          6           0        1.906507    1.218522    0.454184
     12          6           0        1.341773    2.570572    0.017125
     13          6           0        0.242457    3.081203    0.949088
     14          1           0        1.090053    0.484348    0.496451
     15          1           0        2.301227    1.306099    1.475689
     16          1           0        0.948525    2.479814   -1.003529
     17          1           0        2.159283    3.301642   -0.025641
     18          1           0        0.625480    3.200044    1.967798
     19          1           0       -0.592157    2.373548    0.984354
     20          1           0       -0.147051    4.048959    0.618039
     21          6           0       -1.906513   -1.450720   -0.185427
     22          6           0       -1.164017   -2.030131    1.019134
     23          6           0       -0.066804   -3.016790    0.618607
     24          1           0       -2.345178   -2.272562   -0.767745
     25          1           0       -1.185086   -0.949988   -0.845884
     26          1           0       -1.886828   -2.528425    1.677818
     27          1           0       -0.727232   -1.206802    1.598758
     28          1           0        0.676122   -2.528296   -0.020170
     29          1           0       -0.490062   -3.857428    0.059339
     30          1           0        0.451090   -3.418765    1.494999
     31          6           0       -3.006431   -0.462662    0.198830
     32          6           0       -3.748927    0.116749   -1.005731
     33          6           0       -4.846140    1.103408   -0.605203
     34          1           0       -3.727858   -0.963394    0.859287
     35          1           0       -2.567766    0.359180    0.781148
     36          1           0       -4.185713   -0.706579   -1.585354
     37          1           0       -3.026117    0.615043   -1.664415
     38          1           0       -4.422882    1.944046   -0.045936
     39          1           0       -5.589067    0.614915    0.033573
     40          1           0       -5.364034    1.505384   -1.481595
 ---------------------------------------------------------------------

 SCF Done:  E(RHF) =  -470.733088603     A.U. after   11 cycles
 E2 =    -0.1584486835D+01 EUMP2 =    -0.47231757543778D+03

 The electronic state is 1-A.
 Alpha  occ. eigenvalues --  -11.21664 -11.21644 -11.21638 -11.21585 -11.21468
 Alpha  occ. eigenvalues --  -11.21448 -11.21408 -11.21386 -11.21148 -11.21112
 Alpha  occ. eigenvalues --  -11.21086 -11.21068  -1.08512  -1.08447  -1.03583
 Alpha  occ. eigenvalues --   -1.03557  -0.96028  -0.96015  -0.87077  -0.87000
 Alpha  occ. eigenvalues --   -0.79687  -0.79580  -0.78299  -0.78289  -0.65390
 Alpha  occ. eigenvalues --   -0.64864  -0.61082  -0.60876  -0.59390  -0.59385
 Alpha  occ. eigenvalues --   -0.57668  -0.57592  -0.55342  -0.55295  -0.52720
 Alpha  occ. eigenvalues --   -0.52700  -0.52454  -0.52447  -0.50189  -0.49771
 Alpha  occ. eigenvalues --   -0.48023  -0.47908  -0.46827  -0.46514  -0.46046
 Alpha  occ. eigenvalues --   -0.45799  -0.45709  -0.45472  -0.43830  -0.43819
 Alpha virt. eigenvalues --    0.18629   0.21896   0.23936   0.24601   0.25552
 Alpha virt. eigenvalues --    0.26438   0.27027   0.27859   0.28423   0.29580
 Alpha virt. eigenvalues --    0.30824   0.31571   0.31689   0.31798   0.32603

 Mulliken charges:
               1
     1  C   -0.297662
     2  C   -0.308050
     3  C   -0.475200
     4  H    0.149038
     5  H    0.149876
     6  H    0.159942
     7  H    0.152045
     8  H    0.155119
     9  H    0.154931
    10  H    0.160533
    11  C   -0.305289
    12  C   -0.299225
    13  C   -0.479268
    14  H    0.155607
    15  H    0.149966
    16  H    0.151635
    17  H    0.152508
    18  H    0.155687
    19  H    0.156984
    20  H    0.160746
    21  C   -0.299575
    22  C   -0.302377
    23  C   -0.481570
    24  H    0.150212
    25  H    0.149391
    26  H    0.152715
    27  H    0.154328
    28  H    0.160020
    29  H    0.155588
    30  H    0.160963
    31  C   -0.302260
    32  C   -0.299480
    33  C   -0.475906
    34  H    0.150140
    35  H    0.152707
    36  H    0.152081
    37  H    0.151811
    38  H    0.155665
    39  H    0.155255
    40  H    0.160369
 Sum of Mulliken charges =  -0.00000

 Dipole moment (field-independent basis, Debye):
    X=             -0.0079    Y=             -0.0136    Z=              0.0151  Tot=              0.0218
 Quadrupole moment (field-independent basis, Debye-Ang):
   XX=            -85.1040   YY=            -84.6849   ZZ=            -84.8046
   XY=              1.8839   XZ=              0.9721   YZ=             -0.1547

 Normal termination of Gaussian 16 at Wed May  5 19:42:15 2021.
