 Gaussian 16, Revision A.03,
 Gaussian 16:  EM64L-G16RevA.03 25-Dec-2016

 -------------
 #p 6-31g* mp2
 -------------

 ------------------------------------------------------
 Input file generated by CHIRIPA (05-May-2021 14:57:23)
 ------------------------------------------------------
 Symbolic Z-matrix:
 Charge =  0 Multiplicity = 1

                         Standard orientation:
 ---------------------------------------------------------------------
 Center     Atomic      Atomic             Coordinates (Angstroms)
 Number     Number       Type             X           Y           Z
 ---------------------------------------------------------------------
      1          6           0        3.213622    2.204363   -0.146779
      2          6           0        2.575880    0.968128   -0.000053
      3          6           0        3.322358   -0.211753    0.072068
      4          6           0        4.711030   -0.118200   -0.006213
      5          6           0        5.375621    1.098442   -0.152467
      6          6           0        4.608997    2.265467   -0.222384
      7          1           0        2.625915    3.115930   -0.201948
      8          1           0        1.492359    0.917652    0.058937
      9          1           0        2.854398   -1.182084    0.185601
     10          1           0        6.457263    1.116917   -0.208391
     11          1           0        5.106976    3.224152   -0.336340
     12          7           0        5.511956   -1.360482    0.068972
     13          8           0        6.734082   -1.251179   -0.002426
     14          8           0        4.902430   -2.419963    0.197875
     15          6           0       -2.070182    0.138721    0.163098
     16          6           0       -2.884333    1.265266    0.319867
     17          6           0       -4.275617    1.152233    0.241756
     18          6           0       -4.821573   -0.108321    0.004636
     19          6           0       -4.037077   -1.249415   -0.155860
     20          6           0       -2.648135   -1.112818   -0.073848
     21          1           0       -0.990309    0.235681    0.225290
     22          1           0       -2.438251    2.238487    0.503978
     23          1           0       -4.929431    2.007875    0.359326
     24          1           0       -4.510866   -2.206302   -0.338371
     25          1           0       -2.018320   -1.989436   -0.195995
     26          7           0       -6.293223   -0.240457   -0.080121
     27          8           0       -6.749634   -1.362208   -0.289886
     28          8           0       -6.962428    0.780228    0.064815
 ---------------------------------------------------------------------

 SCF Done:  E(RHF) =  -868.336284931     A.U. after   16 cycles
 E2 =    -0.2599517285D+01 EUMP2 =    -0.87093580221528D+03

 The electronic state is 1-A.
 Alpha  occ. eigenvalues --  -20.61385 -20.61374 -20.61175 -20.61168 -15.86444
 Alpha  occ. eigenvalues --  -15.86231 -11.31935 -11.31729 -11.28600 -11.28489
 Alpha  occ. eigenvalues --  -11.28328 -11.28313 -11.28281 -11.28228 -11.27727
 Alpha  occ. eigenvalues --  -11.27512 -11.27430 -11.27371  -1.60455  -1.60246
 Alpha  occ. eigenvalues --   -1.40006  -1.39795  -1.20137  -1.19926  -1.09509
 Alpha  occ. eigenvalues --   -1.09327  -1.05578  -1.05339  -0.96316  -0.96136
 Alpha  occ. eigenvalues --   -0.86973  -0.86749  -0.83165  -0.82951  -0.78187
 Alpha  occ. eigenvalues --   -0.77950  -0.72659  -0.72449  -0.71780  -0.71569
 Alpha  occ. eigenvalues --   -0.71247  -0.71133  -0.65799  -0.65633  -0.65590
 Alpha  occ. eigenvalues --   -0.65348  -0.62940  -0.62676  -0.56131  -0.55916
 Alpha  occ. eigenvalues --   -0.53874  -0.53678  -0.53662  -0.53445  -0.49429
 Alpha  occ. eigenvalues --   -0.49405  -0.49219  -0.49194  -0.45383  -0.45171
 Alpha  occ. eigenvalues --   -0.38114  -0.37953  -0.37175  -0.36926
 Alpha virt. eigenvalues --    0.04384   0.04575   0.10480   0.10716   0.15839
 Alpha virt. eigenvalues --    0.16016   0.17253   0.21869   0.24301   0.26670
 Alpha virt. eigenvalues --    0.27566   0.28655   0.29705   0.31519   0.32033

 Mulliken charges:
               1
     1  C   -0.171577
     2  C   -0.221370
     3  C   -0.171735
     4  C    0.159219
     5  C   -0.169492
     6  C   -0.218109
     7  H    0.226256
     8  H    0.218448
     9  H    0.273733
    10  H    0.278250
    11  H    0.226235
    12  N    0.488191
    13  O   -0.457918
    14  O   -0.460130
    15  C   -0.173989
    16  C   -0.220020
    17  C   -0.170041
    18  C    0.159285
    19  C   -0.169710
    20  C   -0.219898
    21  H    0.222014
    22  H    0.220777
    23  H    0.277044
    24  H    0.278219
    25  H    0.226139
    26  N    0.487829
    27  O   -0.458341
    28  O   -0.459307
 Sum of Mulliken charges =  -0.00000

 Dipole moment (field-independent basis, Debye):
    X=              2.4084    Y=              4.8193    Z=              0.0074  Tot=              5.3876
 Quadrupole moment (field-independent basis, Debye-Ang):
   XX=           -176.3150   YY=            -99.8208   ZZ=           -106.4272
   XY=             20.6958   XZ=             -3.2235   YZ=              0.6076

 Normal termination of Gaussian 16 at Thu May  6 08:10:06 2021.
