 Gaussian 16, Revision A.03,
 Gaussian 16:  EM64L-G16RevA.03 25-Dec-2016

 -------------
 #p 6-31g* mp2
 -------------

 ------------------------------------------------------
 Input file generated by CHIRIPA (05-May-2021 14:55:21)
 ------------------------------------------------------
 Symbolic Z-matrix:
 Charge =  0 Multiplicity = 1

                         Standard orientation:
 ---------------------------------------------------------------------
 Center     Atomic      Atomic             Coordinates (Angstroms)
 Number     Number       Type             X           Y           Z
 ---------------------------------------------------------------------
      1          6           0        1.768512   -1.847397    1.959890
      2          6           0        2.359384   -2.337314    0.790543
      3          6           0        2.657997   -1.475446   -0.268966
      4          6           0        2.350845   -0.123375   -0.124559
      5          6           0        1.762102    0.395033    1.027797
      6          6           0        1.472279   -0.485188    2.074583
      7          1           0        1.539956   -2.524046    2.778000
      8          1           0        2.590553   -3.394749    0.698684
      9          1           0        3.115393   -1.827994   -1.185436
     10          1           0        1.543364    1.454138    1.089997
     11          1           0        1.013396   -0.101910    2.981539
     12          7           0        2.662320    0.798761   -1.239479
     13          8           0        2.381839    1.985714   -1.087459
     14          8           0        3.181039    0.317118   -2.244262
     15          6           0       -2.395843    0.884466   -0.100398
     16          6           0       -2.619074    2.030493    0.886909
     17          6           0       -1.515390    3.086872    0.825772
     18          1           0       -1.424642    0.414522    0.106643
     19          1           0       -2.334483    1.293485   -1.118401
     20          1           0       -2.681378    1.619286    1.902608
     21          1           0       -3.589943    2.497642    0.677618
     22          1           0       -1.456019    3.524448   -0.176029
     23          1           0       -0.542291    2.641101    1.055921
     24          1           0       -1.694898    3.896809    1.539661
     25          6           0       -3.490902   -0.179558   -0.051138
     26          6           0       -3.267670   -1.325586   -1.038445
     27          6           0       -4.371356   -2.381964   -0.977307
     28          1           0       -3.552262   -0.588577    0.966866
     29          1           0       -4.462103    0.290386   -0.258178
     30          1           0       -2.296802   -1.792733   -0.829153
     31          1           0       -3.205367   -0.914377   -2.054143
     32          1           0       -5.344454   -1.936193   -1.207457
     33          1           0       -4.430726   -2.819539    0.024494
     34          1           0       -4.191847   -3.191902   -1.691197
 ---------------------------------------------------------------------

 SCF Done:  E(RHF) =  -669.535386408     A.U. after   15 cycles
 E2 =    -0.2092410307D+01 EUMP2 =    -0.67162779671475D+03

 The electronic state is 1-A.
 Alpha  occ. eigenvalues --  -20.60791 -20.60784 -15.85845 -11.31258 -11.27833
 Alpha  occ. eigenvalues --  -11.27823 -11.27576 -11.26867 -11.26846 -11.21722
 Alpha  occ. eigenvalues --  -11.21673 -11.21475 -11.21370 -11.21187 -11.21163
 Alpha  occ. eigenvalues --   -1.59864  -1.39416  -1.19438  -1.08819  -1.08507
 Alpha  occ. eigenvalues --   -1.04850  -1.03626  -0.96069  -0.95647  -0.87084
 Alpha  occ. eigenvalues --   -0.86239  -0.82478  -0.79683  -0.78313  -0.77517
 Alpha  occ. eigenvalues --   -0.72063  -0.71187  -0.70548  -0.65169  -0.65080
 Alpha  occ. eigenvalues --   -0.64842  -0.62236  -0.61010  -0.59431  -0.57672
 Alpha  occ. eigenvalues --   -0.55451  -0.55263  -0.53181  -0.52968  -0.52766
 Alpha  occ. eigenvalues --   -0.52446  -0.50008  -0.48827  -0.48815  -0.47989
 Alpha  occ. eigenvalues --   -0.46722  -0.45851  -0.45777  -0.44805  -0.43867
 Alpha  occ. eigenvalues --   -0.37411  -0.36421
 Alpha virt. eigenvalues --    0.04980   0.11152   0.16464   0.20514   0.22877
 Alpha virt. eigenvalues --    0.23989   0.25775   0.26809   0.27452   0.27766
 Alpha virt. eigenvalues --    0.29010   0.30532   0.31433   0.31697   0.31946

 Mulliken charges:
               1
     1  C   -0.170948
     2  C   -0.218480
     3  C   -0.170567
     4  C    0.158916
     5  C   -0.175328
     6  C   -0.220733
     7  H    0.225965
     8  H    0.223875
     9  H    0.276017
    10  H    0.283377
    11  H    0.224111
    12  N    0.487704
    13  O   -0.459815
    14  O   -0.460360
    15  C   -0.301819
    16  C   -0.300116
    17  C   -0.475542
    18  H    0.149898
    19  H    0.154382
    20  H    0.146350
    21  H    0.153550
    22  H    0.164982
    23  H    0.146616
    24  H    0.159713
    25  C   -0.297616
    26  C   -0.299949
    27  C   -0.475587
    28  H    0.146023
    29  H    0.150284
    30  H    0.151125
    31  H    0.154664
    32  H    0.155989
    33  H    0.153021
    34  H    0.160296
 Sum of Mulliken charges =  -0.00000

 Dipole moment (field-independent basis, Debye):
    X=             -1.0602    Y=             -3.2103    Z=              3.8242  Tot=              5.1044
 Quadrupole moment (field-independent basis, Debye-Ang):
   XX=           -100.2642   YY=            -91.5173   ZZ=            -94.3620
   XY=            -10.3047   XZ=              8.9027   YZ=              1.5467

 Normal termination of Gaussian 16 at Thu May  6 09:21:39 2021.
