 Gaussian 16, Revision A.03,
 Gaussian 16:  EM64L-G16RevA.03 25-Dec-2016

 -------------
 #p 6-31g* mp2
 -------------

 ------------------------------------------------------
 Input file generated by CHIRIPA (05-May-2021 14:55:24)
 ------------------------------------------------------
 Symbolic Z-matrix:
 Charge =  0 Multiplicity = 1

                         Standard orientation:
 ---------------------------------------------------------------------
 Center     Atomic      Atomic             Coordinates (Angstroms)
 Number     Number       Type             X           Y           Z
 ---------------------------------------------------------------------
      1          6           0       -1.115434    1.390039    1.354991
      2          6           0       -2.271058    1.912474    0.764978
      3          6           0       -3.194302    1.067536    0.141883
      4          6           0       -2.929104   -0.300946    0.127205
      5          6           0       -1.786895   -0.851743    0.706231
      6          6           0       -0.877460    0.012027    1.323789
      7          1           0       -0.403600    2.053721    1.836876
      8          1           0       -2.458471    2.982243    0.787693
      9          1           0       -4.097037    1.445269   -0.322667
     10          1           0       -1.627457   -1.922492    0.667596
     11          1           0        0.019165   -0.396504    1.781185
     12          7           0       -3.899191   -1.205413   -0.529508
     13          8           0       -3.642432   -2.407374   -0.528938
     14          8           0       -4.897936   -0.695245   -1.032375
     15          6           0        3.461229    0.918329   -0.530306
     16          6           0        2.012283    1.404839   -0.487308
     17          6           0        1.861658    2.854899   -0.948211
     18          1           0        4.079452    1.571292    0.100872
     19          1           0        3.844577    1.020033   -1.555047
     20          1           0        1.631340    1.300955    0.536755
     21          1           0        1.397404    0.750527   -1.118511
     22          1           0        2.215644    2.970642   -1.977725
     23          1           0        2.450909    3.524197   -0.313055
     24          1           0        0.817961    3.182101   -0.909513
     25          6           0        3.627979   -0.529517   -0.072418
     26          6           0        5.076926   -1.016027   -0.115415
     27          6           0        5.227551   -2.466088    0.345488
     28          1           0        3.244630   -0.631221    0.952324
     29          1           0        3.009756   -1.182481   -0.703596
     30          1           0        5.691805   -0.361716    0.515786
     31          1           0        5.457869   -0.912144   -1.139479
     32          1           0        4.638299   -3.135386   -0.289668
     33          1           0        4.873565   -2.581830    1.375001
     34          1           0        6.271247   -2.793291    0.306789
 ---------------------------------------------------------------------

 SCF Done:  E(RHF) =  -669.534142541     A.U. after   15 cycles
 E2 =    -0.2093391700D+01 EUMP2 =    -0.67162753424109D+03

 The electronic state is 1-A.
 Alpha  occ. eigenvalues --  -20.60754 -20.60748 -15.85808 -11.31169 -11.27744
 Alpha  occ. eigenvalues --  -11.27724 -11.27475 -11.26766 -11.26731 -11.22295
 Alpha  occ. eigenvalues --  -11.22131 -11.22062 -11.21991 -11.21790 -11.21519
 Alpha  occ. eigenvalues --   -1.59830  -1.39383  -1.19350  -1.09089  -1.08740
 Alpha  occ. eigenvalues --   -1.04754  -1.04145  -0.96599  -0.95581  -0.87612
 Alpha  occ. eigenvalues --   -0.86160  -0.82412  -0.80223  -0.78908  -0.77450
 Alpha  occ. eigenvalues --   -0.72027  -0.71154  -0.70485  -0.65734  -0.65001
 Alpha  occ. eigenvalues --   -0.64753  -0.62109  -0.61534  -0.59984  -0.58228
 Alpha  occ. eigenvalues --   -0.55898  -0.55236  -0.53343  -0.53023  -0.53009
 Alpha  occ. eigenvalues --   -0.52841  -0.50536  -0.48788  -0.48783  -0.48519
 Alpha  occ. eigenvalues --   -0.47253  -0.46436  -0.46353  -0.44790  -0.44410
 Alpha  occ. eigenvalues --   -0.37247  -0.36322
 Alpha virt. eigenvalues --    0.05052   0.11226   0.16483   0.19847   0.22745
 Alpha virt. eigenvalues --    0.23668   0.24926   0.26292   0.26914   0.28512
 Alpha virt. eigenvalues --    0.28761   0.30522   0.30941   0.31222   0.31690

 Mulliken charges:
               1
     1  C   -0.167755
     2  C   -0.221019
     3  C   -0.171104
     4  C    0.158293
     5  C   -0.173235
     6  C   -0.214265
     7  H    0.226354
     8  H    0.223438
     9  H    0.275526
    10  H    0.275574
    11  H    0.224351
    12  N    0.488091
    13  O   -0.460526
    14  O   -0.460549
    15  C   -0.298694
    16  C   -0.297079
    17  C   -0.478525
    18  H    0.149192
    19  H    0.152703
    20  H    0.139835
    21  H    0.158380
    22  H    0.159966
    23  H    0.153589
    24  H    0.158120
    25  C   -0.298381
    26  C   -0.299901
    27  C   -0.476222
    28  H    0.142150
    29  H    0.151920
    30  H    0.152361
    31  H    0.154398
    32  H    0.156769
    33  H    0.153812
    34  H    0.162432
 Sum of Mulliken charges =  -0.00000

 Dipole moment (field-independent basis, Debye):
    X=              3.5084    Y=              3.1576    Z=              2.2159  Tot=              5.2143
 Quadrupole moment (field-independent basis, Debye-Ang):
   XX=           -113.4378   YY=            -94.8700   ZZ=            -93.7554
   XY=            -12.8906   XZ=             -5.8729   YZ=             -0.7377

 Normal termination of Gaussian 16 at Thu May  6 03:10:22 2021.
