 Gaussian 16, Revision A.03,
 Gaussian 16:  EM64L-G16RevA.03 25-Dec-2016

 -------------
 #p 6-31g* mp2
 -------------

 ------------------------------------------------------
 Input file generated by CHIRIPA (05-May-2021 14:51:12)
 ------------------------------------------------------
 Symbolic Z-matrix:
 Charge =  0 Multiplicity = 1

                         Standard orientation:
 ---------------------------------------------------------------------
 Center     Atomic      Atomic             Coordinates (Angstroms)
 Number     Number       Type             X           Y           Z
 ---------------------------------------------------------------------
      1          6           0        2.247168    0.736305   -0.198343
      2          6           0        2.350190    2.211742   -0.586231
      3          6           0        1.123574    3.021022   -0.164007
      4          1           0        1.346363    0.305368   -0.656371
      5          1           0        2.112319    0.658895    0.889415
      6          1           0        2.486192    2.286291   -1.672767
      7          1           0        3.250958    2.639168   -0.127383
      8          1           0        0.987552    2.976401    0.921400
      9          1           0        0.218442    2.621520   -0.632765
     10          1           0        1.218327    4.072909   -0.451088
     11          6           0        3.465894   -0.085821   -0.613729
     12          6           0        3.362872   -1.561258   -0.225842
     13          6           0        4.589488   -2.370538   -0.648066
     14          1           0        3.600744   -0.008411   -1.701488
     15          1           0        4.366699    0.345116   -0.155702
     16          1           0        2.462105   -1.988684   -0.684690
     17          1           0        3.226870   -1.635807    0.860695
     18          1           0        5.494621   -1.971036   -0.179308
     19          1           0        4.725510   -2.325917   -1.733472
     20          1           0        4.494735   -3.422425   -0.360985
     21          6           0       -2.479812   -0.620437    1.001330
     22          6           0       -1.325151    0.257943    1.484231
     23          6           0       -0.581161   -0.346011    2.675664
     24          1           0       -3.181979   -0.780735    1.830915
     25          1           0       -2.088718   -1.610032    0.727208
     26          1           0       -1.718099    1.246031    1.756053
     27          1           0       -0.625749    0.416326    0.653346
     28          1           0       -0.162109   -1.322801    2.413217
     29          1           0       -1.260665   -0.488381    3.522190
     30          1           0        0.240197    0.298241    3.004554
     31          6           0       -3.233250   -0.030047   -0.189257
     32          6           0       -4.387912   -0.908427   -0.672157
     33          6           0       -5.131902   -0.304473   -1.863591
     34          1           0       -3.624345    0.959547    0.084866
     35          1           0       -2.531084    0.130251   -1.018842
     36          1           0       -5.087314   -1.066810    0.158727
     37          1           0       -3.994964   -1.896516   -0.943979
     38          1           0       -4.452398   -0.162103   -2.710117
     39          1           0       -5.550953    0.672317   -1.601145
     40          1           0       -5.953260   -0.948725   -2.192481
 ---------------------------------------------------------------------

 SCF Done:  E(RHF) =  -470.732422479     A.U. after   11 cycles
 E2 =    -0.1584408745D+01 EUMP2 =    -0.47231683122392D+03

 The electronic state is 1-A.
 Alpha  occ. eigenvalues --  -11.21634 -11.21623 -11.21589 -11.21433 -11.21413
 Alpha  occ. eigenvalues --  -11.21373 -11.21370 -11.21289 -11.21096 -11.21065
 Alpha  occ. eigenvalues --  -11.21050 -11.21013  -1.08485  -1.08362  -1.03578
 Alpha  occ. eigenvalues --   -1.03451  -0.96002  -0.95936  -0.87020  -0.86951
 Alpha  occ. eigenvalues --   -0.79720  -0.79470  -0.78417  -0.78055  -0.65130
 Alpha  occ. eigenvalues --   -0.64988  -0.60982  -0.60865  -0.59482  -0.59204
 Alpha  occ. eigenvalues --   -0.57616  -0.57543  -0.55294  -0.55225  -0.52694
 Alpha  occ. eigenvalues --   -0.52631  -0.52456  -0.52338  -0.49959  -0.49872
 Alpha  occ. eigenvalues --   -0.48161  -0.47727  -0.46789  -0.46573  -0.46079
 Alpha  occ. eigenvalues --   -0.45740  -0.45679  -0.45112  -0.43809  -0.43729
 Alpha virt. eigenvalues --    0.20945   0.23082   0.23489   0.24071   0.25092
 Alpha virt. eigenvalues --    0.26517   0.26799   0.27950   0.28697   0.29807
 Alpha virt. eigenvalues --    0.30235   0.31390   0.31610   0.31974   0.32304

 Mulliken charges:
               1
     1  C   -0.304186
     2  C   -0.299644
     3  C   -0.477187
     4  H    0.150461
     5  H    0.154405
     6  H    0.151674
     7  H    0.151880
     8  H    0.156321
     9  H    0.156805
    10  H    0.159939
    11  C   -0.297290
    12  C   -0.299940
    13  C   -0.475706
    14  H    0.149417
    15  H    0.149789
    16  H    0.151190
    17  H    0.152593
    18  H    0.155353
    19  H    0.155191
    20  H    0.160332
    21  C   -0.298015
    22  C   -0.308590
    23  C   -0.476117
    24  H    0.149148
    25  H    0.148815
    26  H    0.151277
    27  H    0.164468
    28  H    0.155322
    29  H    0.154698
    30  H    0.158867
    31  C   -0.298088
    32  C   -0.299521
    33  C   -0.475672
    34  H    0.149802
    35  H    0.147957
    36  H    0.152121
    37  H    0.151769
    38  H    0.154892
    39  H    0.155254
    40  H    0.160215
 Sum of Mulliken charges =  -0.00000

 Dipole moment (field-independent basis, Debye):
    X=              0.0401    Y=              0.0177    Z=             -0.0079  Tot=              0.0445
 Quadrupole moment (field-independent basis, Debye-Ang):
   XX=            -85.3038   YY=            -85.1434   ZZ=            -84.4567
   XY=              0.5447   XZ=             -0.3148   YZ=              0.6074

 Normal termination of Gaussian 16 at Wed May  5 19:54:26 2021.
