 Gaussian 16, Revision A.03,
 Gaussian 16:  EM64L-G16RevA.03 25-Dec-2016

 -------------
 #p 6-31g* mp2
 -------------

 ------------------------------------------------------
 Input file generated by CHIRIPA (05-May-2021 14:53:15)
 ------------------------------------------------------
 Symbolic Z-matrix:
 Charge =  0 Multiplicity = 1

                         Standard orientation:
 ---------------------------------------------------------------------
 Center     Atomic      Atomic             Coordinates (Angstroms)
 Number     Number       Type             X           Y           Z
 ---------------------------------------------------------------------
      1          6           0       -3.887084    0.070174    0.189758
      2          6           0       -5.121276   -0.224861   -0.663302
      3          6           0       -6.022443    0.997359   -0.841817
      4          1           0       -4.208724    0.437257    1.174006
      5          1           0       -3.314381    0.884319   -0.275618
      6          1           0       -5.690748   -1.039144   -0.197189
      7          1           0       -4.796663   -0.591466   -1.645566
      8          1           0       -5.475364    1.811673   -1.327819
      9          1           0       -6.374528    1.361451    0.128788
     10          1           0       -6.898615    0.764038   -1.454797
     11          6           0       -2.976394   -1.141934    0.377278
     12          6           0       -1.742203   -0.846899    1.230338
     13          6           0       -0.841035   -2.069119    1.408853
     14          1           0       -3.549097   -1.956079    0.842654
     15          1           0       -2.654755   -1.509017   -0.606970
     16          1           0       -2.066815   -0.480294    2.212602
     17          1           0       -1.172731   -0.032616    0.764225
     18          1           0       -0.488950   -2.433211    0.438248
     19          1           0       -1.388115   -2.883433    1.894855
     20          1           0        0.035137   -1.835798    2.021833
     21          6           0        1.212983    2.402468    0.303105
     22          6           0        0.775520    1.426972   -0.598868
     23          6           0        1.580582    0.323559   -0.897038
     24          6           0        2.822973    0.226869   -0.272215
     25          6           0        3.286844    1.182203    0.630807
     26          6           0        2.465041    2.277190    0.913988
     27          1           0        0.581090    3.256352    0.528909
     28          1           0       -0.196375    1.521661   -1.074784
     29          1           0        1.266634   -0.446264   -1.591465
     30          1           0        4.260615    1.060400    1.089450
     31          1           0        2.807372    3.033240    1.614876
     32          7           0        3.684117   -0.936805   -0.579940
     33          8           0        4.774498   -0.998847   -0.016152
     34          8           0        3.252395   -1.764816   -1.379096
 ---------------------------------------------------------------------

 SCF Done:  E(RHF) =  -669.534881548     A.U. after   15 cycles
 E2 =    -0.2093122633D+01 EUMP2 =    -0.67162800418113D+03

 The electronic state is 1-A.
 Alpha  occ. eigenvalues --  -20.60807 -20.60802 -15.85862 -11.31258 -11.27837
 Alpha  occ. eigenvalues --  -11.27818 -11.27569 -11.26851 -11.26837 -11.22061
 Alpha  occ. eigenvalues --  -11.21947 -11.21827 -11.21754 -11.21520 -11.21174
 Alpha  occ. eigenvalues --   -1.59881  -1.39434  -1.19439  -1.08872  -1.08813
 Alpha  occ. eigenvalues --   -1.04857  -1.03874  -0.96329  -0.95651  -0.87340
 Alpha  occ. eigenvalues --   -0.86244  -0.82491  -0.79950  -0.78685  -0.77528
 Alpha  occ. eigenvalues --   -0.72080  -0.71203  -0.70532  -0.65550  -0.65088
 Alpha  occ. eigenvalues --   -0.64834  -0.62217  -0.61277  -0.59702  -0.57943
 Alpha  occ. eigenvalues --   -0.55649  -0.55334  -0.53193  -0.52969  -0.52923
 Alpha  occ. eigenvalues --   -0.52744  -0.50274  -0.48842  -0.48832  -0.48258
 Alpha  occ. eigenvalues --   -0.47003  -0.46210  -0.46160  -0.44832  -0.44154
 Alpha  occ. eigenvalues --   -0.37386  -0.36370
 Alpha virt. eigenvalues --    0.05000   0.11101   0.16421   0.19871   0.22841
 Alpha virt. eigenvalues --    0.23892   0.25171   0.26410   0.27449   0.28346
 Alpha virt. eigenvalues --    0.28740   0.31193   0.31321   0.31486   0.31960

 Mulliken charges:
               1
     1  C   -0.296614
     2  C   -0.299860
     3  C   -0.475627
     4  H    0.151070
     5  H    0.139590
     6  H    0.154578
     7  H    0.152183
     8  H    0.152733
     9  H    0.155755
    10  H    0.162247
    11  C   -0.298470
    12  C   -0.307099
    13  C   -0.475609
    14  H    0.152481
    15  H    0.147667
    16  H    0.150959
    17  H    0.152912
    18  H    0.156831
    19  H    0.156453
    20  H    0.162255
    21  C   -0.170922
    22  C   -0.219834
    23  C   -0.168466
    24  C    0.158785
    25  C   -0.170927
    26  C   -0.218317
    27  H    0.226460
    28  H    0.225435
    29  H    0.275767
    30  H    0.275931
    31  H    0.223869
    32  N    0.488230
    33  O   -0.460187
    34  O   -0.460259
 Sum of Mulliken charges =  -0.00000

 Dipole moment (field-independent basis, Debye):
    X=             -2.9950    Y=              4.0664    Z=              1.1170  Tot=              5.1724
 Quadrupole moment (field-independent basis, Debye-Ang):
   XX=           -109.8587   YY=            -93.2837   ZZ=            -93.2423
   XY=             13.2966   XZ=              5.8202   YZ=              0.3758

 Normal termination of Gaussian 16 at Thu May  6 04:17:01 2021.
