 Gaussian 16, Revision A.03,
 Gaussian 16:  EM64L-G16RevA.03 25-Dec-2016

 -------------
 #p 6-31g* mp2
 -------------

 ------------------------------------------------------
 Input file generated by CHIRIPA (05-May-2021 14:53:15)
 ------------------------------------------------------
 Symbolic Z-matrix:
 Charge =  0 Multiplicity = 1

                         Standard orientation:
 ---------------------------------------------------------------------
 Center     Atomic      Atomic             Coordinates (Angstroms)
 Number     Number       Type             X           Y           Z
 ---------------------------------------------------------------------
      1          6           0       -3.743465   -0.504102   -0.643311
      2          6           0       -2.980192   -1.819585   -0.485496
      3          6           0       -3.569499   -2.949927   -1.329793
      4          1           0       -4.794532   -0.661764   -0.365198
      5          1           0       -3.740893   -0.211551   -1.702463
      6          1           0       -2.983017   -2.108855    0.573244
      7          1           0       -1.930778   -1.658727   -0.763834
      8          1           0       -3.552029   -2.686510   -2.392294
      9          1           0       -4.610247   -3.139195   -1.047619
     10          1           0       -3.008600   -3.880989   -1.201826
     11          6           0       -3.166296    0.635464    0.194539
     12          6           0       -3.929569    1.950946    0.036724
     13          6           0       -3.340261    3.081288    0.881021
     14          1           0       -3.168868    0.342912    1.253690
     15          1           0       -2.115229    0.793125   -0.083574
     16          1           0       -4.978983    1.790088    0.315062
     17          1           0       -3.926744    2.240216   -1.022016
     18          1           0       -2.299514    3.270557    0.598846
     19          1           0       -3.357731    2.817871    1.943522
     20          1           0       -3.901160    4.012350    0.753053
     21          6           0        1.175070   -1.273281    1.772165
     22          6           0        0.738596   -0.100647    1.146912
     23          6           0        1.574538    0.584688    0.260309
     24          6           0        2.846465    0.066823    0.020923
     25          6           0        3.310180   -1.099058    0.628361
     26          6           0        2.457208   -1.767872    1.511353
     27          1           0        0.519075   -1.799249    2.459498
     28          1           0       -0.256620    0.285781    1.347570
     29          1           0        1.262087    1.494659   -0.237431
     30          1           0        4.307619   -1.459815    0.408389
     31          1           0        2.798846   -2.678330    1.995497
     32          7           0        3.740453    0.783610   -0.915774
     33          8           0        4.856499    0.306724   -1.109832
     34          8           0        3.308188    1.808743   -1.438161
 ---------------------------------------------------------------------

 SCF Done:  E(RHF) =  -669.535636315     A.U. after   15 cycles
 E2 =    -0.2091948026D+01 EUMP2 =    -0.67162758434044D+03

 The electronic state is 1-A.
 Alpha  occ. eigenvalues --  -20.60741 -20.60736 -15.85793 -11.31148 -11.27715
 Alpha  occ. eigenvalues --  -11.27706 -11.27436 -11.26727 -11.26647 -11.22369
 Alpha  occ. eigenvalues --  -11.22292 -11.22282 -11.22083 -11.21763 -11.21602
 Alpha  occ. eigenvalues --   -1.59816  -1.39370  -1.19314  -1.09206  -1.08706
 Alpha  occ. eigenvalues --   -1.04713  -1.04214  -0.96672  -0.95547  -0.87683
 Alpha  occ. eigenvalues --   -0.86109  -0.82384  -0.80287  -0.79083  -0.77417
 Alpha  occ. eigenvalues --   -0.72011  -0.71139  -0.70420  -0.65841  -0.64961
 Alpha  occ. eigenvalues --   -0.64702  -0.62074  -0.61593  -0.60039  -0.58290
 Alpha  occ. eigenvalues --   -0.55959  -0.55208  -0.53338  -0.53161  -0.53040
 Alpha  occ. eigenvalues --   -0.52740  -0.50604  -0.48777  -0.48768  -0.48592
 Alpha  occ. eigenvalues --   -0.47316  -0.46542  -0.46496  -0.44778  -0.44499
 Alpha  occ. eigenvalues --   -0.37284  -0.36304
 Alpha virt. eigenvalues --    0.05089   0.11279   0.16520   0.20166   0.22653
 Alpha virt. eigenvalues --    0.23459   0.25261   0.25619   0.27321   0.28407
 Alpha virt. eigenvalues --    0.29215   0.30411   0.30971   0.31179   0.31617

 Mulliken charges:
               1
     1  C   -0.297770
     2  C   -0.302713
     3  C   -0.475885
     4  H    0.152110
     5  H    0.153760
     6  H    0.146425
     7  H    0.155220
     8  H    0.158222
     9  H    0.156139
    10  H    0.160977
    11  C   -0.303836
    12  C   -0.299586
    13  C   -0.477007
    14  H    0.145254
    15  H    0.146233
    16  H    0.154806
    17  H    0.156157
    18  H    0.152843
    19  H    0.154103
    20  H    0.165307
    21  C   -0.172156
    22  C   -0.222544
    23  C   -0.174148
    24  C    0.158768
    25  C   -0.171248
    26  C   -0.218493
    27  H    0.225900
    28  H    0.233109
    29  H    0.274626
    30  H    0.275407
    31  H    0.223166
    32  N    0.488114
    33  O   -0.460556
    34  O   -0.460704
 Sum of Mulliken charges =  -0.00000

 Dipole moment (field-independent basis, Debye):
    X=             -3.3401    Y=             -2.5180    Z=              3.2195  Tot=              5.2784
 Quadrupole moment (field-independent basis, Debye-Ang):
   XX=           -109.6067   YY=            -93.5946   ZZ=            -94.8906
   XY=            -10.6238   XZ=              9.6775   YZ=             -1.1446

 Normal termination of Gaussian 16 at Wed May  5 15:38:47 2021.
