 Gaussian 16, Revision A.03,
 Gaussian 16:  EM64L-G16RevA.03 25-Dec-2016

 -------------
 #p 6-31g* mp2
 -------------

 ------------------------------------------------------
 Input file generated by CHIRIPA (05-May-2021 14:51:12)
 ------------------------------------------------------
 Symbolic Z-matrix:
 Charge =  0 Multiplicity = 1

                         Standard orientation:
 ---------------------------------------------------------------------
 Center     Atomic      Atomic             Coordinates (Angstroms)
 Number     Number       Type             X           Y           Z
 ---------------------------------------------------------------------
      1          6           0        3.273355    0.497383   -0.827838
      2          6           0        2.548789    1.713201   -0.249239
      3          6           0        2.070685    2.685238   -1.328292
      4          1           0        4.131868    0.838748   -1.422287
      5          1           0        2.600800   -0.025572   -1.521798
      6          1           0        3.222037    2.232922    0.444478
      7          1           0        1.692013    1.368894    0.344060
      8          1           0        1.378621    2.187900   -2.015535
      9          1           0        2.917337    3.056838   -1.914546
     10          1           0        1.555458    3.546967   -0.892604
     11          6           0        3.757327   -0.483575    0.238567
     12          6           0        4.481893   -1.699393   -0.340031
     13          6           0        4.959997   -2.671430    0.739021
     14          1           0        4.429883    0.039380    0.932528
     15          1           0        2.898814   -0.824940    0.833017
     16          1           0        5.338669   -1.355086   -0.933330
     17          1           0        3.808645   -2.219114   -1.033749
     18          1           0        4.113345   -3.043029    1.325276
     19          1           0        5.652061   -2.174092    1.426265
     20          1           0        5.475224   -3.533159    0.303333
     21          6           0       -3.828972   -0.361798   -0.304630
     22          6           0       -5.211025   -0.945187   -0.008705
     23          6           0       -5.825472   -1.652002   -1.217282
     24          1           0       -3.907690    0.343850   -1.142968
     25          1           0       -3.161482   -1.168870   -0.637026
     26          1           0       -5.875328   -0.137483    0.324360
     27          1           0       -5.129041   -1.649383    0.829151
     28          1           0       -5.185673   -2.476709   -1.547612
     29          1           0       -5.936200   -0.956218   -2.055271
     30          1           0       -6.813167   -2.061497   -0.983545
     31          6           0       -3.201710    0.347989    0.893900
     32          6           0       -1.819657    0.931379    0.597974
     33          6           0       -1.205210    1.638194    1.806553
     34          1           0       -3.869200    1.155061    1.226296
     35          1           0       -3.122992   -0.357658    1.732239
     36          1           0       -1.901641    1.635575   -0.239882
     37          1           0       -1.155354    0.123675    0.264911
     38          1           0       -1.094482    0.942411    2.644541
     39          1           0       -1.845009    2.462900    2.136881
     40          1           0       -0.217515    2.047689    1.572816
 ---------------------------------------------------------------------

 SCF Done:  E(RHF) =  -470.733280580     A.U. after   11 cycles
 E2 =    -0.1582763114D+01 EUMP2 =    -0.47231604369407D+03

 The electronic state is 1-A.
 Alpha  occ. eigenvalues --  -11.21639 -11.21621 -11.21604 -11.21576 -11.21433
 Alpha  occ. eigenvalues --  -11.21402 -11.21373 -11.21343 -11.21088 -11.21076
 Alpha  occ. eigenvalues --  -11.21068 -11.21067  -1.08462  -1.08423  -1.03577
 Alpha  occ. eigenvalues --   -1.03506  -0.96019  -0.95961  -0.87025  -0.86986
 Alpha  occ. eigenvalues --   -0.79633  -0.79579  -0.78273  -0.78241  -0.65108
 Alpha  occ. eigenvalues --   -0.65049  -0.61006  -0.60921  -0.59503  -0.59220
 Alpha  occ. eigenvalues --   -0.57722  -0.57467  -0.55287  -0.55257  -0.52732
 Alpha  occ. eigenvalues --   -0.52648  -0.52432  -0.52399  -0.49940  -0.49913
 Alpha  occ. eigenvalues --   -0.47998  -0.47850  -0.46667  -0.46586  -0.45811
 Alpha  occ. eigenvalues --   -0.45784  -0.45740  -0.45680  -0.43814  -0.43756
 Alpha virt. eigenvalues --    0.20924   0.23142   0.23440   0.25125   0.26273
 Alpha virt. eigenvalues --    0.26622   0.26901   0.27679   0.27687   0.28947
 Alpha virt. eigenvalues --    0.30614   0.31081   0.31396   0.31758   0.32232

 Mulliken charges:
               1
     1  C   -0.297685
     2  C   -0.307672
     3  C   -0.475935
     4  H    0.149612
     5  H    0.149481
     6  H    0.151701
     7  H    0.159730
     8  H    0.155749
     9  H    0.155252
    10  H    0.160105
    11  C   -0.298362
    12  C   -0.299648
    13  C   -0.475686
    14  H    0.149616
    15  H    0.149486
    16  H    0.152011
    17  H    0.151823
    18  H    0.155058
    19  H    0.155247
    20  H    0.160248
    21  C   -0.298303
    22  C   -0.299680
    23  C   -0.475725
    24  H    0.149760
    25  H    0.149280
    26  H    0.152033
    27  H    0.151961
    28  H    0.155134
    29  H    0.155237
    30  H    0.160341
    31  C   -0.298256
    32  C   -0.300179
    33  C   -0.481748
    34  H    0.149834
    35  H    0.149670
    36  H    0.152716
    37  H    0.151154
    38  H    0.154977
    39  H    0.155480
    40  H    0.166184
 Sum of Mulliken charges =  -0.00000

 Dipole moment (field-independent basis, Debye):
    X=             -0.0089    Y=              0.0085    Z=              0.0008  Tot=              0.0124
 Quadrupole moment (field-independent basis, Debye-Ang):
   XX=            -84.2905   YY=            -84.6892   ZZ=            -85.7656
   XY=              0.0620   XZ=             -0.5222   YZ=             -0.1292

 Normal termination of Gaussian 16 at Wed May  5 23:09:51 2021.
