 Gaussian 16, Revision A.03,
 Gaussian 16:  EM64L-G16RevA.03 25-Dec-2016

 -------------
 #p 6-31g* mp2
 -------------

 ------------------------------------------------------
 Input file generated by CHIRIPA (05-May-2021 14:53:14)
 ------------------------------------------------------
 Symbolic Z-matrix:
 Charge =  0 Multiplicity = 1

                         Standard orientation:
 ---------------------------------------------------------------------
 Center     Atomic      Atomic             Coordinates (Angstroms)
 Number     Number       Type             X           Y           Z
 ---------------------------------------------------------------------
      1          6           0        3.524422   -0.637779   -0.101249
      2          6           0        4.918806   -1.247000   -0.251345
      3          6           0        4.950928   -2.739069    0.081056
      4          1           0        3.172075   -0.793348    0.927631
      5          1           0        2.824601   -1.175382   -0.755946
      6          1           0        5.616068   -0.707509    0.402407
      7          1           0        5.267952   -1.089793   -1.279935
      8          1           0        4.277608   -3.295391   -0.579056
      9          1           0        4.627701   -2.910935    1.112845
     10          1           0        5.957195   -3.154176   -0.032838
     11          6           0        3.476167    0.853284   -0.430083
     12          6           0        2.081783    1.462505   -0.279988
     13          6           0        2.049661    2.954575   -0.612389
     14          1           0        4.175988    1.390887    0.224614
     15          1           0        3.828513    1.008853   -1.458964
     16          1           0        1.732636    1.305299    0.748603
     17          1           0        1.384520    0.923015   -0.933739
     18          1           0        2.372887    3.126440   -1.644178
     19          1           0        2.722981    3.510896    0.047723
     20          1           0        1.043394    3.369682   -0.498495
     21          6           0       -4.382709   -1.361301   -1.213237
     22          6           0       -3.844279   -0.156704   -1.677521
     23          6           0       -2.930284    0.559355   -0.898789
     24          6           0       -2.575272    0.039285    0.344908
     25          6           0       -3.094258   -1.158046    0.835156
     26          6           0       -4.006644   -1.857253    0.039411
     27          1           0       -5.092098   -1.911007   -1.824783
     28          1           0       -4.134517    0.230858   -2.649943
     29          1           0       -2.498037    1.494418   -1.233808
     30          1           0       -2.785762   -1.519107    1.808748
     31          1           0       -4.423181   -2.792496    0.402539
     32          7           0       -1.608519    0.788425    1.178322
     33          8           0       -1.311939    0.308900    2.270446
     34          8           0       -1.165663    1.840939    0.723647
 ---------------------------------------------------------------------

 SCF Done:  E(RHF) =  -669.536183378     A.U. after   15 cycles
 E2 =    -0.2092030388D+01 EUMP2 =    -0.67162821376551D+03

 The electronic state is 1-A.
 Alpha  occ. eigenvalues --  -20.60978 -20.60960 -15.85984 -11.31299 -11.27860
 Alpha  occ. eigenvalues --  -11.27855 -11.27595 -11.26865 -11.26855 -11.21037
 Alpha  occ. eigenvalues --  -11.20646 -11.20632 -11.20425 -11.20252 -11.19731
 Alpha  occ. eigenvalues --   -1.60017  -1.39576  -1.19464  -1.08871  -1.07565
 Alpha  occ. eigenvalues --   -1.04859  -1.02605  -0.95720  -0.95081  -0.86261
 Alpha  occ. eigenvalues --   -0.86119  -0.82554  -0.78718  -0.77612  -0.77330
 Alpha  occ. eigenvalues --   -0.72220  -0.71316  -0.70575  -0.65123  -0.64864
 Alpha  occ. eigenvalues --   -0.64208  -0.62207  -0.60019  -0.58478  -0.56637
 Alpha  occ. eigenvalues --   -0.55364  -0.54410  -0.53189  -0.52951  -0.51763
 Alpha  occ. eigenvalues --   -0.51511  -0.49098  -0.48976  -0.48954  -0.47025
 Alpha  occ. eigenvalues --   -0.45763  -0.45159  -0.44774  -0.44649  -0.42861
 Alpha  occ. eigenvalues --   -0.37440  -0.36460
 Alpha virt. eigenvalues --    0.04898   0.11188   0.16380   0.21278   0.23641
 Alpha virt. eigenvalues --    0.25159   0.27197   0.27465   0.27903   0.28420
 Alpha virt. eigenvalues --    0.29020   0.30836   0.31996   0.32309   0.32555

 Mulliken charges:
               1
     1  C   -0.297905
     2  C   -0.298699
     3  C   -0.475165
     4  H    0.152941
     5  H    0.145057
     6  H    0.151831
     7  H    0.149858
     8  H    0.152804
     9  H    0.155527
    10  H    0.158218
    11  C   -0.298587
    12  C   -0.295852
    13  C   -0.479146
    14  H    0.148188
    15  H    0.144358
    16  H    0.168489
    17  H    0.141153
    18  H    0.144678
    19  H    0.151510
    20  H    0.174866
    21  C   -0.170575
    22  C   -0.218576
    23  C   -0.170765
    24  C    0.158594
    25  C   -0.170627
    26  C   -0.218571
    27  H    0.226023
    28  H    0.223871
    29  H    0.275714
    30  H    0.275882
    31  H    0.223870
    32  N    0.491679
    33  O   -0.459734
    34  O   -0.460908
 Sum of Mulliken charges =  -0.00000

 Dipole moment (field-independent basis, Debye):
    X=             -3.7160    Y=             -2.5771    Z=             -2.7629  Tot=              5.2994
 Quadrupole moment (field-independent basis, Debye-Ang):
   XX=            -78.8112   YY=            -94.1366   ZZ=            -93.8304
   XY=              7.4380   XZ=              6.9624   YZ=             -3.2363

 Normal termination of Gaussian 16 at Wed May  5 15:33:37 2021.
