 Gaussian 16, Revision A.03,
 Gaussian 16:  EM64L-G16RevA.03 25-Dec-2016

 -------------
 #p 6-31g* mp2
 -------------

 ------------------------------------------------------
 Input file generated by CHIRIPA (05-May-2021 14:53:14)
 ------------------------------------------------------
 Symbolic Z-matrix:
 Charge =  0 Multiplicity = 1

                         Standard orientation:
 ---------------------------------------------------------------------
 Center     Atomic      Atomic             Coordinates (Angstroms)
 Number     Number       Type             X           Y           Z
 ---------------------------------------------------------------------
      1          6           0       -4.011340    0.020865    0.254540
      2          6           0       -4.815595    0.341168   -1.005843
      3          6           0       -5.827482    1.467132   -0.791173
      4          1           0       -4.702596   -0.254607    1.062764
      5          1           0       -3.487260    0.927634    0.586963
      6          1           0       -5.336903   -0.566283   -1.336578
      7          1           0       -4.122333    0.615724   -1.811214
      8          1           0       -5.320365    2.387341   -0.483522
      9          1           0       -6.541836    1.198618   -0.006189
     10          1           0       -6.391384    1.679708   -1.704785
     11          6           0       -2.995562   -1.102709    0.055781
     12          6           0       -2.191308   -1.423012    1.316165
     13          6           0       -1.179420   -2.548976    1.101495
     14          1           0       -3.519642   -2.009478   -0.276641
     15          1           0       -2.304306   -0.827237   -0.752442
     16          1           0       -2.884570   -1.697567    2.121536
     17          1           0       -1.670000   -0.515560    1.646900
     18          1           0       -0.465066   -2.280462    0.316511
     19          1           0       -1.686537   -3.469185    0.793844
     20          1           0       -0.615518   -2.761552    2.015106
     21          6           0        1.415054    2.445106    0.605173
     22          6           0        2.809119    2.441994    0.719599
     23          6           0        3.551809    1.326880    0.320247
     24          6           0        2.864879    0.227066   -0.191444
     25          6           0        1.476877    0.199799   -0.317927
     26          6           0        0.754547    1.325972    0.087688
     27          1           0        0.846022    3.315648    0.917831
     28          1           0        3.324746    3.309720    1.121125
     29          1           0        4.631877    1.297675    0.397823
     30          1           0        0.990991   -0.680015   -0.721980
     31          1           0       -0.328016    1.325580   -0.002332
     32          7           0        3.640355   -0.959308   -0.617535
     33          8           0        3.011431   -1.915733   -1.065133
     34          8           0        4.862412   -0.910299   -0.495839
 ---------------------------------------------------------------------

 SCF Done:  E(RHF) =  -669.535189046     A.U. after   15 cycles
 E2 =    -0.2092458119D+01 EUMP2 =    -0.67162764716496D+03

 The electronic state is 1-A.
 Alpha  occ. eigenvalues --  -20.60769 -20.60764 -15.85822 -11.31198 -11.27777
 Alpha  occ. eigenvalues --  -11.27770 -11.27523 -11.26794 -11.26783 -11.22200
 Alpha  occ. eigenvalues --  -11.22189 -11.22117 -11.22061 -11.21603 -11.21436
 Alpha  occ. eigenvalues --   -1.59843  -1.39396  -1.19379  -1.09092  -1.08769
 Alpha  occ. eigenvalues --   -1.04791  -1.04091  -0.96534  -0.95602  -0.87541
 Alpha  occ. eigenvalues --   -0.86182  -0.82436  -0.80149  -0.78905  -0.77486
 Alpha  occ. eigenvalues --   -0.72041  -0.71165  -0.70502  -0.65791  -0.65028
 Alpha  occ. eigenvalues --   -0.64787  -0.62260  -0.61368  -0.59891  -0.58135
 Alpha  occ. eigenvalues --   -0.55865  -0.55275  -0.53180  -0.53105  -0.53015
 Alpha  occ. eigenvalues --   -0.52808  -0.50457  -0.48802  -0.48796  -0.48449
 Alpha  occ. eigenvalues --   -0.47199  -0.46423  -0.46395  -0.44797  -0.44367
 Alpha  occ. eigenvalues --   -0.37357  -0.36373
 Alpha virt. eigenvalues --    0.05028   0.11209   0.16432   0.18205   0.22675
 Alpha virt. eigenvalues --    0.23613   0.25211   0.25419   0.27106   0.28588
 Alpha virt. eigenvalues --    0.29091   0.31128   0.31333   0.31476   0.32273

 Mulliken charges:
               1
     1  C   -0.298355
     2  C   -0.299943
     3  C   -0.475715
     4  H    0.153429
     5  H    0.142295
     6  H    0.155211
     7  H    0.150790
     8  H    0.153074
     9  H    0.156797
    10  H    0.162533
    11  C   -0.299757
    12  C   -0.303864
    13  C   -0.477317
    14  H    0.155479
    15  H    0.142268
    16  H    0.155522
    17  H    0.147416
    18  H    0.154494
    19  H    0.159435
    20  H    0.165305
    21  C   -0.171250
    22  C   -0.218498
    23  C   -0.170502
    24  C    0.158543
    25  C   -0.174313
    26  C   -0.223220
    27  H    0.225786
    28  H    0.223549
    29  H    0.275748
    30  H    0.280786
    31  H    0.227478
    32  N    0.487726
    33  O   -0.460582
    34  O   -0.460349
 Sum of Mulliken charges =  -0.00000

 Dipole moment (field-independent basis, Debye):
    X=             -2.8345    Y=              4.0613    Z=              1.5417  Tot=              5.1871
 Quadrupole moment (field-independent basis, Debye-Ang):
   XX=           -106.3463   YY=            -92.0702   ZZ=            -95.6751
   XY=             15.1306   XZ=              5.9705   YZ=             -0.0501

 Normal termination of Gaussian 16 at Thu May  6 20:20:27 2021.
