 Gaussian 16, Revision A.03,
 Gaussian 16:  EM64L-G16RevA.03 25-Dec-2016

 -------------
 #p 6-31g* mp2
 -------------

 ------------------------------------------------------
 Input file generated by CHIRIPA (05-May-2021 14:53:17)
 ------------------------------------------------------
 Symbolic Z-matrix:
 Charge =  0 Multiplicity = 1

                         Standard orientation:
 ---------------------------------------------------------------------
 Center     Atomic      Atomic             Coordinates (Angstroms)
 Number     Number       Type             X           Y           Z
 ---------------------------------------------------------------------
      1          6           0        2.957945   -0.402543   -0.302597
      2          6           0        3.840731   -1.587763    0.089736
      3          6           0        3.164967   -2.936388   -0.159959
      4          1           0        2.016328   -0.452414    0.261154
      5          1           0        2.691122   -0.488888   -1.365021
      6          1           0        4.106948   -1.498473    1.150760
      7          1           0        4.780435   -1.534959   -0.474873
      8          1           0        2.914162   -3.051312   -1.219436
      9          1           0        2.236848   -3.014619    0.415434
     10          1           0        3.813594   -3.769772    0.127467
     11          6           0        3.619702    0.952593   -0.058851
     12          6           0        2.736916    2.137814   -0.451184
     13          6           0        3.412680    3.486439   -0.201489
     14          1           0        3.886525    1.038939    1.003573
     15          1           0        4.561319    1.002465   -0.622602
     16          1           0        1.797212    2.085010    0.113425
     17          1           0        2.470699    2.048524   -1.512208
     18          1           0        4.340799    3.564669   -0.776882
     19          1           0        3.663485    3.601363    0.857987
     20          1           0        2.764053    4.319823   -0.488915
     21          6           0       -4.758813    0.867716   -0.491567
     22          6           0       -4.226816   -0.152615   -1.286818
     23          6           0       -3.014439   -0.759591   -0.945836
     24          6           0       -2.357728   -0.319523    0.202364
     25          6           0       -2.862078    0.694641    1.015008
     26          6           0       -4.075949    1.287348    0.654787
     27          1           0       -5.701198    1.333688   -0.763924
     28          1           0       -4.754950   -0.480539   -2.177652
     29          1           0       -2.579914   -1.551630   -1.543565
     30          1           0       -2.312566    1.000113    1.897131
     31          1           0       -4.486730    2.079528    1.274267
     32          7           0       -1.073447   -0.954549    0.573530
     33          8           0       -0.514339   -0.548766    1.590081
     34          8           0       -0.650255   -1.846041   -0.159128
 ---------------------------------------------------------------------

 SCF Done:  E(RHF) =  -669.537047836     A.U. after   15 cycles
 E2 =    -0.2092460156D+01 EUMP2 =    -0.67162950799217D+03

 The electronic state is 1-A.
 Alpha  occ. eigenvalues --  -20.61168 -20.61149 -15.86137 -11.31396 -11.27945
 Alpha  occ. eigenvalues --  -11.27939 -11.27669 -11.26933 -11.26923 -11.20753
 Alpha  occ. eigenvalues --  -11.20439 -11.20234 -11.20120 -11.19708 -11.19335
 Alpha  occ. eigenvalues --   -1.60186  -1.39743  -1.19551  -1.08970  -1.07157
 Alpha  occ. eigenvalues --   -1.04935  -1.02310  -0.95821  -0.94744  -0.86339
 Alpha  occ. eigenvalues --   -0.85763  -0.82660  -0.78438  -0.77725  -0.76895
 Alpha  occ. eigenvalues --   -0.72348  -0.71484  -0.70660  -0.65206  -0.64940
 Alpha  occ. eigenvalues --   -0.63783  -0.62282  -0.59711  -0.58187  -0.56344
 Alpha  occ. eigenvalues --   -0.55444  -0.54018  -0.53269  -0.53025  -0.51516
 Alpha  occ. eigenvalues --   -0.51151  -0.49215  -0.49142  -0.48632  -0.46717
 Alpha  occ. eigenvalues --   -0.45478  -0.45184  -0.44444  -0.44161  -0.42538
 Alpha  occ. eigenvalues --   -0.37521  -0.36530
 Alpha virt. eigenvalues --    0.04761   0.11126   0.16274   0.21258   0.24078
 Alpha virt. eigenvalues --    0.25593   0.27188   0.27832   0.28151   0.28853
 Alpha virt. eigenvalues --    0.29185   0.30908   0.32339   0.32621   0.32708

 Mulliken charges:
               1
     1  C   -0.308796
     2  C   -0.297813
     3  C   -0.478474
     4  H    0.176146
     5  H    0.143138
     6  H    0.149346
     7  H    0.143672
     8  H    0.150446
     9  H    0.176111
    10  H    0.150347
    11  C   -0.296433
    12  C   -0.299323
    13  C   -0.474681
    14  H    0.148586
    15  H    0.144393
    16  H    0.152683
    17  H    0.148136
    18  H    0.153682
    19  H    0.154618
    20  H    0.155279
    21  C   -0.170235
    22  C   -0.218641
    23  C   -0.170553
    24  C    0.160399
    25  C   -0.170542
    26  C   -0.218596
    27  H    0.226418
    28  H    0.224237
    29  H    0.276263
    30  H    0.275871
    31  H    0.224212
    32  N    0.487922
    33  O   -0.460623
    34  O   -0.457194
 Sum of Mulliken charges =  -0.00000

 Dipole moment (field-independent basis, Debye):
    X=             -5.0018    Y=              2.1137    Z=             -1.1949  Tot=              5.5600
 Quadrupole moment (field-independent basis, Debye-Ang):
   XX=            -75.3696   YY=            -96.7034   ZZ=            -91.5706
   XY=             -4.1688   XZ=              2.5684   YZ=              3.5671

 Normal termination of Gaussian 16 at Thu May  6 07:35:08 2021.
