 Gaussian 16, Revision A.03,
 Gaussian 16:  EM64L-G16RevA.03 25-Dec-2016

 -------------
 #p 6-31g* mp2
 -------------

 ------------------------------------------------------
 Input file generated by CHIRIPA (05-May-2021 14:57:22)
 ------------------------------------------------------
 Symbolic Z-matrix:
 Charge =  0 Multiplicity = 1

                         Standard orientation:
 ---------------------------------------------------------------------
 Center     Atomic      Atomic             Coordinates (Angstroms)
 Number     Number       Type             X           Y           Z
 ---------------------------------------------------------------------
      1          6           0       -1.457856   -0.045797    2.300600
      2          6           0       -1.873389   -1.239276    1.701048
      3          6           0       -2.625615   -1.217612    0.522814
      4          6           0       -2.945936    0.020818   -0.031238
      5          6           0       -2.546687    1.227036    0.542284
      6          6           0       -1.795236    1.181386    1.720328
      7          1           0       -0.873810   -0.071943    3.215807
      8          1           0       -1.612839   -2.193780    2.149468
      9          1           0       -2.960328   -2.126452    0.037638
     10          1           0       -2.821834    2.163177    0.071803
     11          1           0       -1.473893    2.109841    2.183744
     12          7           0       -3.741873    0.056449   -1.278481
     13          8           0       -4.011061    1.160473   -1.746783
     14          8           0       -4.081470   -1.020321   -1.764151
     15          6           0        2.901628    2.506463   -0.144773
     16          6           0        1.840271    1.835347    0.471382
     17          6           0        1.781859    0.438553    0.461195
     18          6           0        2.806358   -0.258706   -0.177180
     19          6           0        3.876925    0.381149   -0.799884
     20          6           0        3.914781    1.778506   -0.777324
     21          1           0        2.939019    3.591745   -0.132055
     22          1           0        1.052049    2.398095    0.963382
     23          1           0        0.971762   -0.106411    0.930424
     24          1           0        4.647977   -0.207137   -1.282394
     25          1           0        4.740256    2.297041   -1.256653
     26          7           0        2.755400   -1.737727   -0.194512
     27          8           0        3.670384   -2.328957   -0.763626
     28          8           0        1.801440   -2.277749    0.361343
 ---------------------------------------------------------------------

 SCF Done:  E(RHF) =  -868.337578642     A.U. after   16 cycles
 E2 =    -0.2602594075D+01 EUMP2 =    -0.87094017271728D+03

 The electronic state is 1-A.
 Alpha  occ. eigenvalues --  -20.61100 -20.61068 -20.61017 -20.60994 -15.86137
 Alpha  occ. eigenvalues --  -15.86065 -11.31586 -11.31397 -11.28243 -11.28063
 Alpha  occ. eigenvalues --  -11.27986 -11.27936 -11.27883 -11.27755 -11.27367
 Alpha  occ. eigenvalues --  -11.27082 -11.27017 -11.26979  -1.60157  -1.60079
 Alpha  occ. eigenvalues --   -1.39715  -1.39627  -1.19799  -1.19584  -1.09180
 Alpha  occ. eigenvalues --   -1.09010  -1.05198  -1.04975  -0.95978  -0.95841
 Alpha  occ. eigenvalues --   -0.86593  -0.86389  -0.82773  -0.82694  -0.77833
 Alpha  occ. eigenvalues --   -0.77707  -0.72369  -0.72281  -0.71474  -0.71401
 Alpha  occ. eigenvalues --   -0.70909  -0.70690  -0.65431  -0.65268  -0.65241
 Alpha  occ. eigenvalues --   -0.64947  -0.62546  -0.62342  -0.55701  -0.55549
 Alpha  occ. eigenvalues --   -0.53612  -0.53319  -0.53260  -0.52916  -0.49121
 Alpha  occ. eigenvalues --   -0.49105  -0.49051  -0.49025  -0.45143  -0.44998
 Alpha  occ. eigenvalues --   -0.37803  -0.37585  -0.36841  -0.36509
 Alpha virt. eigenvalues --    0.04596   0.04895   0.10714   0.11058   0.16029
 Alpha virt. eigenvalues --    0.16327   0.19812   0.22051   0.25478   0.27595
 Alpha virt. eigenvalues --    0.28218   0.28984   0.29947   0.31674   0.32214

 Mulliken charges:
               1
     1  C   -0.191557
     2  C   -0.209263
     3  C   -0.167109
     4  C    0.159617
     5  C   -0.171048
     6  C   -0.222691
     7  H    0.229568
     8  H    0.235434
     9  H    0.281421
    10  H    0.275495
    11  H    0.218975
    12  N    0.488067
    13  O   -0.460977
    14  O   -0.456276
    15  C   -0.169787
    16  C   -0.222646
    17  C   -0.177699
    18  C    0.157160
    19  C   -0.169160
    20  C   -0.219155
    21  H    0.225606
    22  H    0.215406
    23  H    0.285599
    24  H    0.276294
    25  H    0.224417
    26  N    0.488151
    27  O   -0.458321
    28  O   -0.465519
 Sum of Mulliken charges =  -0.00000

 Dipole moment (field-independent basis, Debye):
    X=              2.7710    Y=              4.7794    Z=              4.3591  Tot=              7.0373
 Quadrupole moment (field-independent basis, Debye-Ang):
   XX=           -116.9361   YY=           -103.0382   ZZ=           -105.0277
   XY=             15.8033   XZ=            -15.7107   YZ=             -1.1476

 Normal termination of Gaussian 16 at Fri May  7 03:16:05 2021.
