 Gaussian 16, Revision A.03,
 Gaussian 16:  EM64L-G16RevA.03 25-Dec-2016

 -------------
 #p 6-31g* mp2
 -------------

 ------------------------------------------------------
 Input file generated by CHIRIPA (05-May-2021 14:57:26)
 ------------------------------------------------------
 Symbolic Z-matrix:
 Charge =  0 Multiplicity = 1

                         Standard orientation:
 ---------------------------------------------------------------------
 Center     Atomic      Atomic             Coordinates (Angstroms)
 Number     Number       Type             X           Y           Z
 ---------------------------------------------------------------------
      1          6           0        1.014434    0.422139    2.003397
      2          6           0        1.201071   -0.870490    1.502599
      3          6           0        2.206956   -1.131202    0.567307
      4          6           0        3.011587   -0.070972    0.152854
      5          6           0        2.850482    1.227705    0.633242
      6          6           0        1.838283    1.465272    1.567888
      7          1           0        0.230586    0.615677    2.729703
      8          1           0        0.562756   -1.682536    1.839022
      9          1           0        2.373368   -2.122384    0.163222
     10          1           0        3.502564    2.016794    0.278919
     11          1           0        1.695636    2.470143    1.955096
     12          7           0        4.079815   -0.334725   -0.836956
     13          8           0        4.775375    0.616560   -1.186082
     14          8           0        4.201305   -1.487747   -1.244901
     15          6           0       -3.206578   -2.445258    0.021204
     16          6           0       -1.921294   -1.959624   -0.240946
     17          6           0       -1.703985   -0.591490   -0.429449
     18          6           0       -2.799659    0.266560   -0.348585
     19          6           0       -4.092101   -0.186707   -0.088907
     20          6           0       -4.285977   -1.558813    0.096254
     21          1           0       -3.366288   -3.509601    0.166339
     22          1           0       -1.081146   -2.645725   -0.299793
     23          1           0       -0.719443   -0.188543   -0.633728
     24          1           0       -4.909875    0.521732   -0.036180
     25          1           0       -5.285245   -1.933134    0.299703
     26          7           0       -2.582007    1.717045   -0.546376
     27          8           0       -3.563952    2.452305   -0.470125
     28          8           0       -1.433588    2.091210   -0.773910
 ---------------------------------------------------------------------

 SCF Done:  E(RHF) =  -868.337052906     A.U. after   16 cycles
 E2 =    -0.2602743813D+01 EUMP2 =    -0.87093979671889D+03

 The electronic state is 1-A.
 Alpha  occ. eigenvalues --  -20.61249 -20.61243 -20.60905 -20.60881 -15.86299
 Alpha  occ. eigenvalues --  -15.85951 -11.31642 -11.31382 -11.28264 -11.28158
 Alpha  occ. eigenvalues --  -11.28031 -11.28016 -11.27828 -11.27611 -11.27269
 Alpha  occ. eigenvalues --  -11.27238 -11.27027 -11.26823  -1.60329  -1.59969
 Alpha  occ. eigenvalues --   -1.39878  -1.39522  -1.19863  -1.19542  -1.09257
 Alpha  occ. eigenvalues --   -1.08913  -1.05287  -1.04924  -0.96080  -0.95737
 Alpha  occ. eigenvalues --   -0.86652  -0.86328  -0.82923  -0.82560  -0.77973
 Alpha  occ. eigenvalues --   -0.77603  -0.72516  -0.72165  -0.71665  -0.71296
 Alpha  occ. eigenvalues --   -0.70950  -0.70604  -0.65512  -0.65304  -0.65166
 Alpha  occ. eigenvalues --   -0.64905  -0.62648  -0.62243  -0.55778  -0.55394
 Alpha  occ. eigenvalues --   -0.53756  -0.53514  -0.52981  -0.52931  -0.49278
 Alpha  occ. eigenvalues --   -0.49267  -0.48932  -0.48916  -0.45287  -0.44915
 Alpha  occ. eigenvalues --   -0.37914  -0.37690  -0.36904  -0.36216
 Alpha virt. eigenvalues --    0.04543   0.04882   0.10590   0.11212   0.15924
 Alpha virt. eigenvalues --    0.16440   0.20225   0.21749   0.25661   0.27816
 Alpha virt. eigenvalues --    0.27995   0.28381   0.30443   0.31239   0.32214

 Mulliken charges:
               1
     1  C   -0.169804
     2  C   -0.227153
     3  C   -0.181054
     4  C    0.160091
     5  C   -0.168182
     6  C   -0.208624
     7  H    0.228274
     8  H    0.220822
     9  H    0.271618
    10  H    0.278871
    11  H    0.230257
    12  N    0.488249
    13  O   -0.457023
    14  O   -0.462713
    15  C   -0.170647
    16  C   -0.225745
    17  C   -0.170332
    18  C    0.153873
    19  C   -0.170413
    20  C   -0.219763
    21  H    0.226733
    22  H    0.219949
    23  H    0.284208
    24  H    0.276503
    25  H    0.224802
    26  N    0.487386
    27  O   -0.460086
    28  O   -0.460097
 Sum of Mulliken charges =  -0.00000

 Dipole moment (field-independent basis, Debye):
    X=             -4.4581    Y=             -3.8408    Z=              4.2244  Tot=              7.2437
 Quadrupole moment (field-independent basis, Debye-Ang):
   XX=           -118.4345   YY=           -103.4698   ZZ=           -105.5456
   XY=             18.5221   XZ=              7.6612   YZ=              2.4672

 Normal termination of Gaussian 16 at Thu May  6 14:47:51 2021.
