 Gaussian 16, Revision A.03,
 Gaussian 16:  EM64L-G16RevA.03 25-Dec-2016

 -------------
 #p 6-31g* mp2
 -------------

 ------------------------------------------------------
 Input file generated by CHIRIPA (05-May-2021 14:53:13)
 ------------------------------------------------------
 Symbolic Z-matrix:
 Charge =  0 Multiplicity = 1

                         Standard orientation:
 ---------------------------------------------------------------------
 Center     Atomic      Atomic             Coordinates (Angstroms)
 Number     Number       Type             X           Y           Z
 ---------------------------------------------------------------------
      1          6           0       -3.384533    0.372188   -0.494060
      2          6           0       -2.097009   -0.359287   -0.875123
      3          6           0       -0.954340    0.596162   -1.220400
      4          1           0       -3.688004    1.023983   -1.324730
      5          1           0       -3.184204    1.030447    0.362654
      6          1           0       -2.300040   -1.017010   -1.729989
      7          1           0       -1.796673   -1.009562   -0.043523
      8          1           0       -0.723203    1.244019   -0.368661
      9          1           0       -1.229431    1.236528   -2.064709
     10          1           0       -0.043669    0.052143   -1.489810
     11          6           0       -4.536033   -0.569499   -0.146207
     12          6           0       -5.823557    0.161977    0.234856
     13          6           0       -6.966227   -0.793473    0.580134
     14          1           0       -4.736363   -1.227758   -1.002921
     15          1           0       -4.232562   -1.221294    0.684464
     16          1           0       -6.123893    0.812251   -0.596743
     17          1           0       -5.620526    0.819699    1.089722
     18          1           0       -6.691135   -1.433839    1.424442
     19          1           0       -7.197363   -1.441330   -0.271605
     20          1           0       -7.876898   -0.249454    0.849543
     21          6           0        4.290135   -2.101847   -0.182811
     22          6           0        3.340333   -2.015998    0.840431
     23          6           0        2.671432   -0.813831    1.089252
     24          6           0        2.978330    0.287725    0.291956
     25          6           0        3.919560    0.233788   -0.734916
     26          6           0        4.576213   -0.978660   -0.965839
     27          1           0        4.804996   -3.039713   -0.369150
     28          1           0        3.116137   -2.886662    1.450126
     29          1           0        1.931642   -0.719491    1.874891
     30          1           0        4.121733    1.118766   -1.325980
     31          1           0        5.313372   -1.042409   -1.761186
     32          7           0        2.276679    1.565847    0.545899
     33          8           0        2.565051    2.521917   -0.170627
     34          8           0        1.451636    1.587370    1.456656
 ---------------------------------------------------------------------

 SCF Done:  E(RHF) =  -669.536202699     A.U. after   15 cycles
 E2 =    -0.2091738008D+01 EUMP2 =    -0.67162794070631D+03

 The electronic state is 1-A.
 Alpha  occ. eigenvalues --  -20.60868 -20.60847 -15.85884 -11.31239 -11.27802
 Alpha  occ. eigenvalues --  -11.27797 -11.27541 -11.26812 -11.26803 -11.21273
 Alpha  occ. eigenvalues --  -11.21128 -11.21027 -11.20871 -11.20821 -11.20325
 Alpha  occ. eigenvalues --   -1.59914  -1.39472  -1.19405  -1.08803  -1.08006
 Alpha  occ. eigenvalues --   -1.04804  -1.03093  -0.95644  -0.95531  -0.86551
 Alpha  occ. eigenvalues --   -0.86203  -0.82478  -0.79171  -0.77817  -0.77527
 Alpha  occ. eigenvalues --   -0.72116  -0.71231  -0.70513  -0.65061  -0.64808
 Alpha  occ. eigenvalues --   -0.64632  -0.62152  -0.60478  -0.58931  -0.57155
 Alpha  occ. eigenvalues --   -0.55310  -0.54795  -0.53150  -0.52897  -0.52241
 Alpha  occ. eigenvalues --   -0.51937  -0.49468  -0.48875  -0.48864  -0.47476
 Alpha  occ. eigenvalues --   -0.46222  -0.45364  -0.45304  -0.44765  -0.43369
 Alpha  occ. eigenvalues --   -0.37373  -0.36405
 Alpha virt. eigenvalues --    0.04974   0.11240   0.16447   0.21364   0.23282
 Alpha virt. eigenvalues --    0.24694   0.27022   0.27324   0.27935   0.28164
 Alpha virt. eigenvalues --    0.28435   0.30938   0.31898   0.31965   0.32292

 Mulliken charges:
               1
     1  C   -0.299046
     2  C   -0.297327
     3  C   -0.487173
     4  H    0.149489
     5  H    0.154879
     6  H    0.147867
     7  H    0.147533
     8  H    0.177326
     9  H    0.154902
    10  H    0.150666
    11  C   -0.297757
    12  C   -0.299599
    13  C   -0.475428
    14  H    0.147575
    15  H    0.147920
    16  H    0.151941
    17  H    0.153276
    18  H    0.154266
    19  H    0.154114
    20  H    0.159793
    21  C   -0.170664
    22  C   -0.218568
    23  C   -0.170842
    24  C    0.159849
    25  C   -0.171414
    26  C   -0.218625
    27  H    0.225802
    28  H    0.223630
    29  H    0.275583
    30  H    0.275979
    31  H    0.223665
    32  N    0.489940
    33  O   -0.458641
    34  O   -0.460914
 Sum of Mulliken charges =  -0.00000

 Dipole moment (field-independent basis, Debye):
    X=              2.6018    Y=             -4.3776    Z=             -0.8249  Tot=              5.1588
 Quadrupole moment (field-independent basis, Debye-Ang):
   XX=            -80.2921   YY=            -97.1942   ZZ=            -92.1556
   XY=            -12.4577   XZ=             -3.8144   YZ=             -3.3402

 Normal termination of Gaussian 16 at Thu May  6 20:19:06 2021.
