 Gaussian 16, Revision A.03,
 Gaussian 16:  EM64L-G16RevA.03 25-Dec-2016

 -------------
 #p 6-31g* mp2
 -------------

 ------------------------------------------------------
 Input file generated by CHIRIPA (05-May-2021 14:57:21)
 ------------------------------------------------------
 Symbolic Z-matrix:
 Charge =  0 Multiplicity = 1

                         Standard orientation:
 ---------------------------------------------------------------------
 Center     Atomic      Atomic             Coordinates (Angstroms)
 Number     Number       Type             X           Y           Z
 ---------------------------------------------------------------------
      1          6           0        4.521988    2.277198   -0.418425
      2          6           0        3.229910    1.973028   -0.859488
      3          6           0        2.682141    0.706804   -0.633273
      4          6           0        3.457875   -0.235486    0.040239
      5          6           0        4.748167    0.037248    0.491961
      6          6           0        5.275664    1.310042    0.254705
      7          1           0        4.939634    3.263383   -0.598442
      8          1           0        2.642299    2.722163   -1.382514
      9          1           0        1.684472    0.444574   -0.963894
     10          1           0        5.309730   -0.730296    1.010556
     11          1           0        6.279382    1.543461    0.598377
     12          7           0        2.888707   -1.579458    0.285566
     13          8           0        3.592557   -2.392082    0.881281
     14          8           0        1.749520   -1.794792   -0.122505
     15          6           0       -5.907465    0.806797    0.433382
     16          6           0       -4.870697    1.191852    1.289750
     17          6           0       -3.561595    0.758561    1.059404
     18          6           0       -3.323932   -0.062663   -0.041685
     19          6           0       -4.335552   -0.463455   -0.913052
     20          6           0       -5.637059   -0.018174   -0.663353
     21          1           0       -6.921457    1.148044    0.619838
     22          1           0       -5.077760    1.832469    2.142264
     23          1           0       -2.740137    1.041524    1.706363
     24          1           0       -4.098200   -1.102750   -1.754708
     25          1           0       -6.440254   -0.318800   -1.330098
     26          7           0       -1.942064   -0.527716   -0.295786
     27          8           0       -1.758805   -1.250628   -1.272746
     28          8           0       -1.068382   -0.160506    0.486821
 ---------------------------------------------------------------------

 SCF Done:  E(RHF) =  -868.336528059     A.U. after   16 cycles
 E2 =    -0.2600653838D+01 EUMP2 =    -0.87093718189720D+03

 The electronic state is 1-A.
 Alpha  occ. eigenvalues --  -20.60460 -20.60441 -20.59301 -20.59134 -15.85502
 Alpha  occ. eigenvalues --  -15.84265 -11.31022 -11.29939 -11.27615 -11.27596
 Alpha  occ. eigenvalues --  -11.27376 -11.26658 -11.26648 -11.26642 -11.26467
 Alpha  occ. eigenvalues --  -11.26434 -11.25731 -11.25653  -1.59503  -1.58306
 Alpha  occ. eigenvalues --   -1.39060  -1.37834  -1.19206  -1.18176  -1.08569
 Alpha  occ. eigenvalues --   -1.07535  -1.04631  -1.03623  -0.95377  -0.94300
 Alpha  occ. eigenvalues --   -0.86021  -0.85006  -0.82210  -0.81122  -0.77234
 Alpha  occ. eigenvalues --   -0.76090  -0.71699  -0.70854  -0.70480  -0.70309
 Alpha  occ. eigenvalues --   -0.69641  -0.69289  -0.64855  -0.64632  -0.63822
 Alpha  occ. eigenvalues --   -0.63647  -0.61976  -0.60940  -0.55123  -0.54163
 Alpha  occ. eigenvalues --   -0.52954  -0.52724  -0.51954  -0.51722  -0.48489
 Alpha  occ. eigenvalues --   -0.48429  -0.47313  -0.47141  -0.44440  -0.43146
 Alpha  occ. eigenvalues --   -0.37198  -0.36242  -0.36215  -0.35242
 Alpha virt. eigenvalues --    0.05283   0.06431   0.11410   0.12406   0.16745
 Alpha virt. eigenvalues --    0.17833   0.21528   0.22455   0.27433   0.28294
 Alpha virt. eigenvalues --    0.28454   0.29449   0.31066   0.31959   0.32672

 Mulliken charges:
               1
     1  C   -0.171929
     2  C   -0.220859
     3  C   -0.169464
     4  C    0.155672
     5  C   -0.172060
     6  C   -0.219816
     7  H    0.220356
     8  H    0.219162
     9  H    0.291246
    10  H    0.272535
    11  H    0.218584
    12  N    0.485178
    13  O   -0.471803
    14  O   -0.440201
    15  C   -0.171276
    16  C   -0.218537
    17  C   -0.171623
    18  C    0.158448
    19  C   -0.171160
    20  C   -0.218545
    21  H    0.224891
    22  H    0.222575
    23  H    0.274827
    24  H    0.276292
    25  H    0.223110
    26  N    0.486810
    27  O   -0.453910
    28  O   -0.458504
 Sum of Mulliken charges =  -0.00000

 Dipole moment (field-independent basis, Debye):
    X=             -3.2993    Y=              6.1571    Z=             -0.0588  Tot=              6.9856
 Quadrupole moment (field-independent basis, Debye-Ang):
   XX=            -57.8979   YY=           -107.3891   ZZ=           -101.7174
   XY=             10.3088   XZ=             -2.1438   YZ=              2.1467

 Normal termination of Gaussian 16 at Thu May  6 01:41:45 2021.
