 Gaussian 16, Revision A.03,
 Gaussian 16:  EM64L-G16RevA.03 25-Dec-2016

 -------------
 #p 6-31g* mp2
 -------------

 ------------------------------------------------------
 Input file generated by CHIRIPA (05-May-2021 14:51:09)
 ------------------------------------------------------
 Symbolic Z-matrix:
 Charge =  0 Multiplicity = 1

                         Standard orientation:
 ---------------------------------------------------------------------
 Center     Atomic      Atomic             Coordinates (Angstroms)
 Number     Number       Type             X           Y           Z
 ---------------------------------------------------------------------
      1          6           0        4.547552   -0.540392    0.238681
      2          6           0        5.884528   -0.991463   -0.350399
      3          6           0        6.458489   -2.218996    0.357788
      4          1           0        4.680269   -0.320568    1.306861
      5          1           0        3.829250   -1.369636    0.177106
      6          1           0        6.599690   -0.161168   -0.288992
      7          1           0        5.748656   -1.210056   -1.417344
      8          1           0        5.766599   -3.064331    0.285012
      9          1           0        6.622467   -2.009484    1.419775
     10          1           0        7.414309   -2.524305   -0.079310
     11          6           0        3.961083    0.685726   -0.458756
     12          6           0        2.624107    1.136797    0.130323
     13          6           0        2.050146    2.364329   -0.577863
     14          1           0        4.679386    1.514969   -0.397182
     15          1           0        3.828367    0.465901   -1.526936
     16          1           0        2.759979    1.355389    1.197268
     17          1           0        1.908946    0.306502    0.068916
     18          1           0        1.886168    2.154818   -1.639851
     19          1           0        2.742037    3.209665   -0.505088
     20          1           0        1.094326    2.669639   -0.140766
     21          6           0       -4.992159   -0.153925    0.290090
     22          6           0       -5.730348   -1.145318   -0.610021
     23          6           0       -7.205438   -1.297066   -0.237358
     24          1           0       -5.075857   -0.484151    1.334548
     25          1           0       -5.488796    0.824461    0.230854
     26          1           0       -5.231638   -2.121189   -0.550173
     27          1           0       -5.644721   -0.812797   -1.652477
     28          1           0       -7.723307   -0.335629   -0.315141
     29          1           0       -7.307877   -1.651454    0.793427
     30          1           0       -7.713947   -2.010372   -0.893462
     31          6           0       -3.516476    0.008591   -0.070014
     32          6           0       -2.778287    0.999984    0.830097
     33          6           0       -1.303198    1.151733    0.457434
     34          1           0       -3.019840   -0.969794   -0.010778
     35          1           0       -3.432779    0.338817   -1.114472
     36          1           0       -2.863914    0.667464    1.872553
     37          1           0       -3.276996    1.975854    0.770248
     38          1           0       -1.200758    1.506120   -0.573351
     39          1           0       -0.785328    0.190295    0.535216
     40          1           0       -0.794688    1.865038    1.113538
 ---------------------------------------------------------------------

 SCF Done:  E(RHF) =  -470.732407534     A.U. after   11 cycles
 E2 =    -0.1583081837D+01 EUMP2 =    -0.47231548937180D+03

 The electronic state is 1-A.
 Alpha  occ. eigenvalues --  -11.21612 -11.21603 -11.21562 -11.21471 -11.21420
 Alpha  occ. eigenvalues --  -11.21360 -11.21340 -11.21272 -11.21080 -11.21080
 Alpha  occ. eigenvalues --  -11.21044 -11.20856  -1.08447  -1.08352  -1.03571
 Alpha  occ. eigenvalues --   -1.03420  -0.96067  -0.95832  -0.87093  -0.86845
 Alpha  occ. eigenvalues --   -0.79621  -0.79509  -0.78263  -0.78163  -0.65076
 Alpha  occ. eigenvalues --   -0.64987  -0.60950  -0.60845  -0.59625  -0.59084
 Alpha  occ. eigenvalues --   -0.57620  -0.57492  -0.55307  -0.55181  -0.53008
 Alpha  occ. eigenvalues --   -0.52466  -0.52400  -0.52082  -0.50007  -0.49779
 Alpha  occ. eigenvalues --   -0.47954  -0.47797  -0.46701  -0.46475  -0.45816
 Alpha  occ. eigenvalues --   -0.45743  -0.45690  -0.45586  -0.43892  -0.43562
 Alpha virt. eigenvalues --    0.22095   0.22982   0.23508   0.24886   0.26058
 Alpha virt. eigenvalues --    0.26693   0.27002   0.27436   0.27692   0.29193
 Alpha virt. eigenvalues --    0.29938   0.30640   0.31589   0.31762   0.32361

 Mulliken charges:
               1
     1  C   -0.298123
     2  C   -0.299560
     3  C   -0.475650
     4  H    0.149440
     5  H    0.149077
     6  H    0.151879
     7  H    0.151847
     8  H    0.155026
     9  H    0.155085
    10  H    0.160117
    11  C   -0.298127
    12  C   -0.301098
    13  C   -0.479990
    14  H    0.149232
    15  H    0.149344
    16  H    0.150752
    17  H    0.154801
    18  H    0.153450
    19  H    0.153361
    20  H    0.167695
    21  C   -0.298272
    22  C   -0.299627
    23  C   -0.475709
    24  H    0.149699
    25  H    0.149593
    26  H    0.151880
    27  H    0.151942
    28  H    0.155217
    29  H    0.155199
    30  H    0.160275
    31  C   -0.298672
    32  C   -0.300599
    33  C   -0.477419
    34  H    0.149330
    35  H    0.149708
    36  H    0.151894
    37  H    0.151898
    38  H    0.157228
    39  H    0.156665
    40  H    0.161212
 Sum of Mulliken charges =  -0.00000

 Dipole moment (field-independent basis, Debye):
    X=             -0.0572    Y=             -0.0004    Z=              0.0088  Tot=              0.0579
 Quadrupole moment (field-independent basis, Debye-Ang):
   XX=            -86.2406   YY=            -84.7109   ZZ=            -84.1530
   XY=              0.2915   XZ=              0.4660   YZ=              0.3330

 Normal termination of Gaussian 16 at Wed May  5 18:09:14 2021.
