 Gaussian 16, Revision A.03,
 Gaussian 16:  EM64L-G16RevA.03 25-Dec-2016

 -------------
 #p 6-31g* mp2
 -------------

 ------------------------------------------------------
 Input file generated by CHIRIPA (05-May-2021 14:55:20)
 ------------------------------------------------------
 Symbolic Z-matrix:
 Charge =  0 Multiplicity = 1

                         Standard orientation:
 ---------------------------------------------------------------------
 Center     Atomic      Atomic             Coordinates (Angstroms)
 Number     Number       Type             X           Y           Z
 ---------------------------------------------------------------------
      1          6           0        1.323706   -2.167971    0.044031
      2          6           0        1.140239   -1.209540    1.046164
      3          6           0        1.918759   -0.048541    1.069341
      4          6           0        2.875896    0.122509    0.070381
      5          6           0        3.082462   -0.814017   -0.941320
      6          6           0        2.292524   -1.967504   -0.944769
      7          1           0        0.714498   -3.066946    0.033689
      8          1           0        0.388593   -1.362573    1.815354
      9          1           0        1.797701    0.709666    1.833465
     10          1           0        3.839653   -0.633515   -1.694645
     11          1           0        2.437206   -2.710135   -1.724264
     12          7           0        3.706124    1.347631    0.084476
     13          8           0        4.542681    1.474729   -0.806958
     14          8           0        3.504578    2.157585    0.986690
     15          6           0       -3.033885   -0.484089   -0.219252
     16          6           0       -3.550796   -1.814953    0.328094
     17          6           0       -2.595310   -2.977180    0.055936
     18          1           0       -2.868754   -0.579216   -1.301207
     19          1           0       -2.054203   -0.267132    0.228574
     20          1           0       -4.529842   -2.028659   -0.119584
     21          1           0       -3.714897   -1.716590    1.408840
     22          1           0       -1.620016   -2.790098    0.516807
     23          1           0       -2.439590   -3.103941   -1.020300
     24          1           0       -2.984405   -3.918819    0.455661
     25          6           0       -3.978119    0.687367    0.045022
     26          6           0       -3.461208    2.018232   -0.502324
     27          6           0       -4.416695    3.180458   -0.230166
     28          1           0       -4.957800    0.470410   -0.402805
     29          1           0       -4.143250    0.782495    1.126978
     30          1           0       -3.297106    1.919868   -1.583070
     31          1           0       -2.482162    2.231938   -0.054646
     32          1           0       -4.572414    3.307220    0.846070
     33          1           0       -5.391989    2.993377   -0.691037
     34          1           0       -4.027599    4.122098   -0.629890
 ---------------------------------------------------------------------

 SCF Done:  E(RHF) =  -669.535168329     A.U. after   15 cycles
 E2 =    -0.2092171625D+01 EUMP2 =    -0.67162733995409D+03

 The electronic state is 1-A.
 Alpha  occ. eigenvalues --  -20.60767 -20.60761 -15.85822 -11.31188 -11.27783
 Alpha  occ. eigenvalues --  -11.27767 -11.27473 -11.26789 -11.26754 -11.22382
 Alpha  occ. eigenvalues --  -11.22159 -11.21958 -11.21880 -11.21788 -11.21260
 Alpha  occ. eigenvalues --   -1.59842  -1.39396  -1.19369  -1.08975  -1.08755
 Alpha  occ. eigenvalues --   -1.04778  -1.04097  -0.96571  -0.95591  -0.87595
 Alpha  occ. eigenvalues --   -0.86174  -0.82428  -0.80178  -0.78733  -0.77475
 Alpha  occ. eigenvalues --   -0.72040  -0.71166  -0.70489  -0.65635  -0.65023
 Alpha  occ. eigenvalues --   -0.64777  -0.62143  -0.61483  -0.59945  -0.58159
 Alpha  occ. eigenvalues --   -0.55935  -0.55235  -0.53257  -0.53117  -0.52944
 Alpha  occ. eigenvalues --   -0.52869  -0.50524  -0.48799  -0.48795  -0.48472
 Alpha  occ. eigenvalues --   -0.47199  -0.46283  -0.46185  -0.44802  -0.44324
 Alpha  occ. eigenvalues --   -0.37310  -0.36371
 Alpha virt. eigenvalues --    0.05056   0.11145   0.16497   0.19934   0.22586
 Alpha virt. eigenvalues --    0.23901   0.25657   0.26174   0.26919   0.28002
 Alpha virt. eigenvalues --    0.28948   0.30293   0.30916   0.31366   0.31887

 Mulliken charges:
               1
     1  C   -0.170612
     2  C   -0.219134
     3  C   -0.171663
     4  C    0.158224
     5  C   -0.170377
     6  C   -0.219560
     7  H    0.229770
     8  H    0.223310
     9  H    0.275473
    10  H    0.275675
    11  H    0.223669
    12  N    0.488154
    13  O   -0.460384
    14  O   -0.460596
    15  C   -0.300372
    16  C   -0.300018
    17  C   -0.478727
    18  H    0.151354
    19  H    0.148718
    20  H    0.155691
    21  H    0.151917
    22  H    0.144599
    23  H    0.157316
    24  H    0.163135
    25  C   -0.298784
    26  C   -0.300072
    27  C   -0.476110
    28  H    0.150530
    29  H    0.149185
    30  H    0.153049
    31  H    0.153301
    32  H    0.155286
    33  H    0.155170
    34  H    0.162882
 Sum of Mulliken charges =  -0.00000

 Dipole moment (field-independent basis, Debye):
    X=             -3.0209    Y=             -4.2670    Z=             -0.1212  Tot=              5.2295
 Quadrupole moment (field-independent basis, Debye-Ang):
   XX=           -110.7983   YY=            -96.7134   ZZ=            -90.8748
   XY=            -13.1854   XZ=             -2.0366   YZ=              1.3358

 Normal termination of Gaussian 16 at Wed May  5 18:53:22 2021.
