 Gaussian 16, Revision A.03,
 Gaussian 16:  EM64L-G16RevA.03 25-Dec-2016

 -------------
 #p 6-31g* mp2
 -------------

 ------------------------------------------------------
 Input file generated by CHIRIPA (05-May-2021 14:51:13)
 ------------------------------------------------------
 Symbolic Z-matrix:
 Charge =  0 Multiplicity = 1

                         Standard orientation:
 ---------------------------------------------------------------------
 Center     Atomic      Atomic             Coordinates (Angstroms)
 Number     Number       Type             X           Y           Z
 ---------------------------------------------------------------------
      1          6           0        4.041046    0.301987    0.344081
      2          6           0        4.503828    1.249740   -0.762978
      3          6           0        5.580471    2.227904   -0.291991
      4          1           0        3.658098    0.892773    1.187449
      5          1           0        4.906817   -0.258723    0.722817
      6          1           0        3.637209    1.807496   -1.140463
      7          1           0        4.885542    0.656624   -1.603886
      8          1           0        6.462410    1.686963    0.066013
      9          1           0        5.206985    2.844374    0.532068
     10          1           0        5.896742    2.895978   -1.099153
     11          6           0        2.964858   -0.681931   -0.111391
     12          6           0        2.502076   -1.629684    0.995668
     13          6           0        1.425433   -2.607848    0.524681
     14          1           0        2.099087   -0.121222   -0.490127
     15          1           0        3.347806   -1.272717   -0.954758
     16          1           0        2.120362   -1.036569    1.836576
     17          1           0        3.368695   -2.187441    1.373154
     18          1           0        1.798919   -3.224319   -0.299378
     19          1           0        0.543494   -2.066907    0.166677
     20          1           0        1.109162   -3.275922    1.331843
     21          6           0       -3.351560    0.934307   -0.196833
     22          6           0       -4.383754    1.839314    0.476608
     23          6           0       -4.067174    3.325498    0.306831
     24          1           0       -2.357878    1.148908    0.219683
     25          1           0       -3.301645    1.179626   -1.266750
     26          1           0       -4.432705    1.591416    1.544675
     27          1           0       -5.375124    1.622398    0.058577
     28          1           0       -4.038239    3.594476   -0.754025
     29          1           0       -3.090465    3.563317    0.740516
     30          1           0       -4.817716    3.954272    0.795901
     31          6           0       -3.654344   -0.554363   -0.035857
     32          6           0       -2.622149   -1.459369   -0.709298
     33          6           0       -2.938730   -2.945554   -0.539521
     34          1           0       -3.704259   -0.799682    1.034060
     35          1           0       -4.648027   -0.768963   -0.452373
     36          1           0       -1.630779   -1.242454   -0.291268
     37          1           0       -2.573199   -1.211472   -1.777365
     38          1           0       -3.915439   -3.183373   -0.973206
     39          1           0       -2.967665   -3.214531    0.521335
     40          1           0       -2.188187   -3.574328   -1.028591
 ---------------------------------------------------------------------

 SCF Done:  E(RHF) =  -470.733313517     A.U. after   11 cycles
 E2 =    -0.1582581110D+01 EUMP2 =    -0.47231589462754D+03

 The electronic state is 1-A.
 Alpha  occ. eigenvalues --  -11.21620 -11.21611 -11.21603 -11.21599 -11.21421
 Alpha  occ. eigenvalues --  -11.21411 -11.21360 -11.21352 -11.21091 -11.21073
 Alpha  occ. eigenvalues --  -11.21053 -11.21039  -1.08448  -1.08431  -1.03556
 Alpha  occ. eigenvalues --   -1.03514  -0.96005  -0.95958  -0.87000  -0.86996
 Alpha  occ. eigenvalues --   -0.79647  -0.79555  -0.78281  -0.78226  -0.65131
 Alpha  occ. eigenvalues --   -0.65021  -0.61076  -0.60813  -0.59362  -0.59340
 Alpha  occ. eigenvalues --   -0.57663  -0.57526  -0.55363  -0.55178  -0.52696
 Alpha  occ. eigenvalues --   -0.52653  -0.52414  -0.52394  -0.50014  -0.49859
 Alpha  occ. eigenvalues --   -0.48011  -0.47840  -0.46795  -0.46478  -0.45871
 Alpha  occ. eigenvalues --   -0.45766  -0.45747  -0.45558  -0.43799  -0.43778
 Alpha virt. eigenvalues --    0.21441   0.23115   0.23530   0.24771   0.25926
 Alpha virt. eigenvalues --    0.26879   0.27083   0.27520   0.28026   0.28837
 Alpha virt. eigenvalues --    0.30432   0.31510   0.31641   0.31865   0.32116

 Mulliken charges:
               1
     1  C   -0.298277
     2  C   -0.299694
     3  C   -0.475706
     4  H    0.149487
     5  H    0.149577
     6  H    0.152054
     7  H    0.151980
     8  H    0.155173
     9  H    0.155146
    10  H    0.160301
    11  C   -0.298365
    12  C   -0.299281
    13  C   -0.483685
    14  H    0.149383
    15  H    0.149809
    16  H    0.151391
    17  H    0.152030
    18  H    0.155279
    19  H    0.162951
    20  H    0.160319
    21  C   -0.298259
    22  C   -0.299657
    23  C   -0.475706
    24  H    0.148939
    25  H    0.149615
    26  H    0.151977
    27  H    0.152094
    28  H    0.155224
    29  H    0.154987
    30  H    0.160354
    31  C   -0.297623
    32  C   -0.306411
    33  C   -0.475577
    34  H    0.149573
    35  H    0.149799
    36  H    0.156927
    37  H    0.152034
    38  H    0.154964
    39  H    0.155286
    40  H    0.161588
 Sum of Mulliken charges =  -0.00000

 Dipole moment (field-independent basis, Debye):
    X=             -0.0090    Y=             -0.0112    Z=             -0.0089  Tot=              0.0169
 Quadrupole moment (field-independent basis, Debye-Ang):
   XX=            -84.5595   YY=            -86.1421   ZZ=            -84.0057
   XY=             -1.1863   XZ=              0.1228   YZ=              0.0815

 Normal termination of Gaussian 16 at Wed May  5 21:36:15 2021.
