 Gaussian 16, Revision A.03,
 Gaussian 16:  EM64L-G16RevA.03 25-Dec-2016

 -------------
 #p 6-31g* mp2
 -------------

 ------------------------------------------------------
 Input file generated by CHIRIPA (05-May-2021 14:55:19)
 ------------------------------------------------------
 Symbolic Z-matrix:
 Charge =  0 Multiplicity = 1

                         Standard orientation:
 ---------------------------------------------------------------------
 Center     Atomic      Atomic             Coordinates (Angstroms)
 Number     Number       Type             X           Y           Z
 ---------------------------------------------------------------------
      1          6           0        3.607840    1.228355    1.573861
      2          6           0        2.233974    1.012109    1.723029
      3          6           0        1.558245    0.128446    0.876225
      4          6           0        2.290811   -0.525100   -0.113480
      5          6           0        3.660234   -0.330752   -0.287260
      6          6           0        4.315338    0.557417    0.570961
      7          1           0        4.124751    1.916556    2.236114
      8          1           0        1.681962    1.531788    2.501016
      9          1           0        0.495179   -0.057585    0.969505
     10          1           0        4.183542   -0.863340   -1.072064
     11          1           0        5.382356    0.723404    0.452787
     12          7           0        1.586365   -1.462980   -1.015997
     13          8           0        2.254521   -2.026474   -1.880103
     14          8           0        0.379403   -1.616838   -0.842195
     15          6           0       -2.490004    0.836081   -0.366747
     16          6           0       -2.805542    2.278576   -0.763773
     17          6           0       -1.613669    2.989192   -1.405845
     18          1           0       -1.640132    0.831645    0.329415
     19          1           0       -2.167032    0.280163   -1.257837
     20          1           0       -3.129149    2.831247    0.127545
     21          1           0       -3.654884    2.279592   -1.458923
     22          1           0       -1.293259    2.462971   -2.310847
     23          1           0       -0.764537    3.017760   -0.715365
     24          1           0       -1.861290    4.018932   -1.681852
     25          6           0       -3.671691    0.112467    0.276467
     26          6           0       -3.356154   -1.330029    0.673494
     27          6           0       -4.548027   -2.040645    1.315564
     28          1           0       -3.994664    0.668384    1.167556
     29          1           0       -4.521564    0.116903   -0.419695
     30          1           0       -2.506811   -1.331044    1.368643
     31          1           0       -3.032546   -1.882699   -0.217825
     32          1           0       -5.397158   -2.069212    0.625085
     33          1           0       -4.868436   -1.514423    2.220567
     34          1           0       -4.300406   -3.070385    1.591572
 ---------------------------------------------------------------------

 SCF Done:  E(RHF) =  -669.535561398     A.U. after   15 cycles
 E2 =    -0.2092482103D+01 EUMP2 =    -0.67162804350059D+03

 The electronic state is 1-A.
 Alpha  occ. eigenvalues --  -20.60812 -20.60803 -15.85851 -11.31201 -11.27776
 Alpha  occ. eigenvalues --  -11.27752 -11.27521 -11.26794 -11.26784 -11.21398
 Alpha  occ. eigenvalues --  -11.21045 -11.21005 -11.20956 -11.20954 -11.20614
 Alpha  occ. eigenvalues --   -1.59877  -1.39430  -1.19378  -1.08776  -1.08065
 Alpha  occ. eigenvalues --   -1.04782  -1.03178  -0.95664  -0.95602  -0.86671
 Alpha  occ. eigenvalues --   -0.86180  -0.82446  -0.79229  -0.77939  -0.77400
 Alpha  occ. eigenvalues --   -0.72067  -0.71193  -0.70495  -0.65035  -0.64875
 Alpha  occ. eigenvalues --   -0.64636  -0.62134  -0.60583  -0.59016  -0.57240
 Alpha  occ. eigenvalues --   -0.55299  -0.54950  -0.53108  -0.52894  -0.52345
 Alpha  occ. eigenvalues --   -0.52060  -0.49607  -0.48837  -0.48833  -0.47547
 Alpha  occ. eigenvalues --   -0.46268  -0.45427  -0.45299  -0.44757  -0.43432
 Alpha  occ. eigenvalues --   -0.37357  -0.36377
 Alpha virt. eigenvalues --    0.05007   0.11235   0.16490   0.20373   0.23173
 Alpha virt. eigenvalues --    0.24517   0.24933   0.27431   0.27732   0.28183
 Alpha virt. eigenvalues --    0.29631   0.31210   0.31649   0.31980   0.32293

 Mulliken charges:
               1
     1  C   -0.170367
     2  C   -0.221415
     3  C   -0.175605
     4  C    0.156705
     5  C   -0.170214
     6  C   -0.218736
     7  H    0.225708
     8  H    0.223369
     9  H    0.285952
    10  H    0.275608
    11  H    0.223535
    12  N    0.488205
    13  O   -0.460324
    14  O   -0.461213
    15  C   -0.298505
    16  C   -0.299630
    17  C   -0.475144
    18  H    0.136498
    19  H    0.166712
    20  H    0.147887
    21  H    0.153233
    22  H    0.159320
    23  H    0.149444
    24  H    0.158876
    25  C   -0.299332
    26  C   -0.298778
    27  C   -0.476063
    28  H    0.144196
    29  H    0.149931
    30  H    0.146606
    31  H    0.166824
    32  H    0.154650
    33  H    0.151014
    34  H    0.161055
 Sum of Mulliken charges =  -0.00000

 Dipole moment (field-independent basis, Debye):
    X=              2.5236    Y=              3.1479    Z=              2.9984  Tot=              5.0268
 Quadrupole moment (field-independent basis, Debye-Ang):
   XX=            -80.4888   YY=            -99.3865   ZZ=            -94.3313
   XY=              5.4183   XZ=              5.9797   YZ=             -0.7716

 Normal termination of Gaussian 16 at Thu May  6 10:46:16 2021.
