 Gaussian 16, Revision A.03,
 Gaussian 16:  EM64L-G16RevA.03 25-Dec-2016

 -------------
 #p 6-31g* mp2
 -------------

 ------------------------------------------------------
 Input file generated by CHIRIPA (05-May-2021 14:51:07)
 ------------------------------------------------------
 Symbolic Z-matrix:
 Charge =  0 Multiplicity = 1

                         Standard orientation:
 ---------------------------------------------------------------------
 Center     Atomic      Atomic             Coordinates (Angstroms)
 Number     Number       Type             X           Y           Z
 ---------------------------------------------------------------------
      1          6           0        5.109854   -0.145088   -0.122758
      2          6           0        5.482207   -1.561879    0.315469
      3          6           0        6.989758   -1.814551    0.280267
      4          1           0        5.488608    0.028930   -1.139226
      5          1           0        5.619159    0.578498    0.528723
      6          1           0        4.971258   -2.282594   -0.335774
      7          1           0        5.102356   -1.732610    1.330939
      8          1           0        7.512658   -1.118328    0.943931
      9          1           0        7.380815   -1.671437   -0.732252
     10          1           0        7.233580   -2.833335    0.597268
     11          6           0        3.606164    0.122777   -0.092873
     12          6           0        3.233811    1.539568   -0.531099
     13          6           0        1.726260    1.792241   -0.495898
     14          1           0        3.096859   -0.600809   -0.744353
     15          1           0        3.227410   -0.051241    0.923595
     16          1           0        3.613662    1.710300   -1.546570
     17          1           0        3.744760    2.260283    0.120143
     18          1           0        1.335203    1.649127    0.516621
     19          1           0        1.203360    1.096018   -1.159562
     20          1           0        1.482438    2.811025   -0.812899
     21          6           0       -3.683226    0.294448   -0.110919
     22          6           0       -3.171486    1.412340    0.798160
     23          6           0       -1.820542    1.968885    0.347604
     24          1           0       -2.941830   -0.515828   -0.137937
     25          1           0       -3.766891    0.675937   -1.137983
     26          1           0       -3.090127    1.029250    1.823459
     27          1           0       -3.914273    2.219965    0.823169
     28          1           0       -1.890695    2.377090   -0.665830
     29          1           0       -1.061867    1.179609    0.340143
     30          1           0       -1.473476    2.766807    1.011477
     31          6           0       -5.032793   -0.272138    0.326550
     32          6           0       -5.544532   -1.390030   -0.582529
     33          6           0       -6.895477   -1.946575   -0.131973
     34          1           0       -4.949128   -0.653627    1.353614
     35          1           0       -5.774189    0.538138    0.353568
     36          1           0       -4.801745   -2.197655   -0.607538
     37          1           0       -5.625891   -1.006939   -1.607829
     38          1           0       -7.654151   -1.157299   -0.124513
     39          1           0       -6.825323   -2.354779    0.881461
     40          1           0       -7.242542   -2.744497   -0.795846
 ---------------------------------------------------------------------

 SCF Done:  E(RHF) =  -470.732610267     A.U. after   11 cycles
 E2 =    -0.1582566600D+01 EUMP2 =    -0.47231517686724D+03

 The electronic state is 1-A.
 Alpha  occ. eigenvalues --  -11.21592 -11.21574 -11.21532 -11.21503 -11.21384
 Alpha  occ. eigenvalues --  -11.21358 -11.21325 -11.21297 -11.21064 -11.21050
 Alpha  occ. eigenvalues --  -11.20959 -11.20890  -1.08405  -1.08373  -1.03520
 Alpha  occ. eigenvalues --   -1.03440  -0.96020  -0.95841  -0.87103  -0.86794
 Alpha  occ. eigenvalues --   -0.79696  -0.79398  -0.78239  -0.78164  -0.65039
 Alpha  occ. eigenvalues --   -0.65004  -0.60933  -0.60834  -0.59332  -0.59262
 Alpha  occ. eigenvalues --   -0.57654  -0.57453  -0.55322  -0.55129  -0.52849
 Alpha  occ. eigenvalues --   -0.52524  -0.52517  -0.52076  -0.49980  -0.49753
 Alpha  occ. eigenvalues --   -0.48042  -0.47658  -0.46638  -0.46494  -0.45826
 Alpha  occ. eigenvalues --   -0.45691  -0.45673  -0.45581  -0.43799  -0.43659
 Alpha virt. eigenvalues --    0.22562   0.23007   0.23653   0.24826   0.26379
 Alpha virt. eigenvalues --    0.26661   0.26782   0.27591   0.27624   0.29375
 Alpha virt. eigenvalues --    0.31048   0.31287   0.31429   0.32027   0.32210

 Mulliken charges:
               1
     1  C   -0.298157
     2  C   -0.299604
     3  C   -0.475684
     4  H    0.149663
     5  H    0.149510
     6  H    0.151826
     7  H    0.151809
     8  H    0.155176
     9  H    0.155183
    10  H    0.160176
    11  C   -0.298247
    12  C   -0.301003
    13  C   -0.474571
    14  H    0.149168
    15  H    0.149186
    16  H    0.151427
    17  H    0.151507
    18  H    0.157194
    19  H    0.154975
    20  H    0.160741
    21  C   -0.298242
    22  C   -0.300536
    23  C   -0.476421
    24  H    0.149378
    25  H    0.149299
    26  H    0.151123
    27  H    0.151160
    28  H    0.154536
    29  H    0.160760
    30  H    0.159065
    31  C   -0.298145
    32  C   -0.299588
    33  C   -0.475665
    34  H    0.149381
    35  H    0.149584
    36  H    0.151813
    37  H    0.151830
    38  H    0.155143
    39  H    0.155127
    40  H    0.160126
 Sum of Mulliken charges =  -0.00000

 Dipole moment (field-independent basis, Debye):
    X=              0.0179    Y=              0.0149    Z=             -0.0062  Tot=              0.0241
 Quadrupole moment (field-independent basis, Debye-Ang):
   XX=            -86.9624   YY=            -84.5874   ZZ=            -83.5565
   XY=             -0.4183   XZ=              0.5651   YZ=             -0.0041

 Normal termination of Gaussian 16 at Wed May  5 15:02:27 2021.
