 Gaussian 16, Revision A.03,
 Gaussian 16:  EM64L-G16RevA.03 25-Dec-2016

 -------------
 #p 6-31g* mp2
 -------------

 ------------------------------------------------------
 Input file generated by CHIRIPA (05-May-2021 14:55:19)
 ------------------------------------------------------
 Symbolic Z-matrix:
 Charge =  0 Multiplicity = 1

                         Standard orientation:
 ---------------------------------------------------------------------
 Center     Atomic      Atomic             Coordinates (Angstroms)
 Number     Number       Type             X           Y           Z
 ---------------------------------------------------------------------
      1          6           0        1.308239   -2.242888    0.904135
      2          6           0        1.469671   -1.190489    1.811283
      3          6           0        2.005537    0.031273    1.393319
      4          6           0        2.370960    0.166607    0.054872
      5          6           0        2.222498   -0.863185   -0.872909
      6          6           0        1.684504   -2.076171   -0.432709
      7          1           0        0.891139   -3.188573    1.237456
      8          1           0        1.178334   -1.317118    2.850096
      9          1           0        2.141434    0.862539    2.074455
     10          1           0        2.522136   -0.706968   -1.902099
     11          1           0        1.560278   -2.891745   -1.139429
     12          7           0        2.939383    1.455386   -0.399378
     13          8           0        3.253539    1.549298   -1.583914
     14          8           0        3.059994    2.347217    0.437717
     15          6           0       -2.525006   -0.490150   -0.526970
     16          6           0       -2.857455   -1.897354   -0.029740
     17          6           0       -2.069458   -2.984365   -0.761354
     18          1           0       -2.729851   -0.431036   -1.604693
     19          1           0       -1.448169   -0.309924   -0.403135
     20          1           0       -3.933580   -2.074363   -0.153195
     21          1           0       -2.651977   -1.953068    1.046963
     22          1           0       -0.993025   -2.835636   -0.628038
     23          1           0       -2.281909   -2.957620   -1.835016
     24          1           0       -2.322583   -3.982374   -0.390187
     25          6           0       -3.304822    0.607395    0.194841
     26          6           0       -2.972373    2.014600   -0.302387
     27          6           0       -3.760372    3.101612    0.429226
     28          1           0       -4.381659    0.427171    0.071007
     29          1           0       -3.099977    0.548282    1.272566
     30          1           0       -3.177852    2.070315   -1.379091
     31          1           0       -1.896249    2.191609   -0.178932
     32          1           0       -3.547919    3.074865    1.502888
     33          1           0       -4.836803    2.952882    0.295911
     34          1           0       -3.507246    4.099621    0.058059
 ---------------------------------------------------------------------

 SCF Done:  E(RHF) =  -669.534589655     A.U. after   15 cycles
 E2 =    -0.2093807529D+01 EUMP2 =    -0.67162839718402D+03

 The electronic state is 1-A.
 Alpha  occ. eigenvalues --  -20.60855 -20.60848 -15.85910 -11.31318 -11.27893
 Alpha  occ. eigenvalues --  -11.27876 -11.27619 -11.26903 -11.26881 -11.22046
 Alpha  occ. eigenvalues --  -11.21622 -11.21612 -11.21591 -11.21513 -11.21051
 Alpha  occ. eigenvalues --   -1.59930  -1.39482  -1.19501  -1.08900  -1.08638
 Alpha  occ. eigenvalues --   -1.04904  -1.03774  -0.96246  -0.95704  -0.87273
 Alpha  occ. eigenvalues --   -0.86295  -0.82534  -0.79854  -0.78433  -0.77576
 Alpha  occ. eigenvalues --   -0.72127  -0.71254  -0.70601  -0.65321  -0.65139
 Alpha  occ. eigenvalues --   -0.64895  -0.62252  -0.61190  -0.59618  -0.57832
 Alpha  occ. eigenvalues --   -0.55612  -0.55335  -0.53288  -0.53003  -0.52930
 Alpha  occ. eigenvalues --   -0.52624  -0.50193  -0.48889  -0.48879  -0.48153
 Alpha  occ. eigenvalues --   -0.46873  -0.45981  -0.45863  -0.44878  -0.44013
 Alpha  occ. eigenvalues --   -0.37400  -0.36471
 Alpha virt. eigenvalues --    0.04936   0.11017   0.16385   0.20885   0.22756
 Alpha virt. eigenvalues --    0.24238   0.26407   0.26496   0.27248   0.27810
 Alpha virt. eigenvalues --    0.28890   0.30731   0.31259   0.31673   0.31786

 Mulliken charges:
               1
     1  C   -0.169918
     2  C   -0.219368
     3  C   -0.171439
     4  C    0.158115
     5  C   -0.171689
     6  C   -0.218894
     7  H    0.228606
     8  H    0.224153
     9  H    0.276135
    10  H    0.276540
    11  H    0.226258
    12  N    0.488071
    13  O   -0.459751
    14  O   -0.460209
    15  C   -0.301470
    16  C   -0.296789
    17  C   -0.484477
    18  H    0.150114
    19  H    0.154388
    20  H    0.153601
    21  H    0.147302
    22  H    0.155207
    23  H    0.156912
    24  H    0.156888
    25  C   -0.298001
    26  C   -0.300284
    27  C   -0.475756
    28  H    0.149289
    29  H    0.147363
    30  H    0.152942
    31  H    0.154555
    32  H    0.154220
    33  H    0.154371
    34  H    0.163014
 Sum of Mulliken charges =  -0.00000

 Dipole moment (field-independent basis, Debye):
    X=             -1.9092    Y=             -4.4412    Z=              1.5842  Tot=              5.0871
 Quadrupole moment (field-independent basis, Debye-Ang):
   XX=           -104.8263   YY=            -97.1725   ZZ=            -90.0310
   XY=            -11.2200   XZ=              4.0373   YZ=              1.5333

 Normal termination of Gaussian 16 at Thu May  6 02:55:00 2021.
