 Gaussian 16, Revision A.03,
 Gaussian 16:  EM64L-G16RevA.03 25-Dec-2016

 -------------
 #p 6-31g* mp2
 -------------

 ------------------------------------------------------
 Input file generated by CHIRIPA (05-May-2021 14:57:25)
 ------------------------------------------------------
 Symbolic Z-matrix:
 Charge =  0 Multiplicity = 1

                         Standard orientation:
 ---------------------------------------------------------------------
 Center     Atomic      Atomic             Coordinates (Angstroms)
 Number     Number       Type             X           Y           Z
 ---------------------------------------------------------------------
      1          6           0        4.414945    1.740391    0.503067
      2          6           0        4.636416    0.593175    1.272071
      3          6           0        3.927825   -0.583613    1.012039
      4          6           0        3.001103   -0.577776   -0.029327
      5          6           0        2.758053    0.549026   -0.813251
      6          6           0        3.478122    1.714700   -0.535309
      7          1           0        4.969853    2.650232    0.712023
      8          1           0        5.363349    0.610220    2.079117
      9          1           0        4.079522   -1.486042    1.591717
     10          1           0        2.026922    0.501400   -1.611120
     11          1           0        3.304053    2.604145   -1.134168
     12          7           0        2.244875   -1.817706   -0.314092
     13          8           0        1.433910   -1.786700   -1.237137
     14          8           0        2.477426   -2.797091    0.391147
     15          6           0       -1.469644    2.180193   -0.616643
     16          6           0       -2.514110    2.454766    0.272302
     17          6           0       -3.437524    1.461347    0.611382
     18          6           0       -3.285844    0.198748    0.040307
     19          6           0       -2.255930   -0.105711   -0.848439
     20          6           0       -1.344109    0.903083   -1.173196
     21          1           0       -0.756817    2.957877   -0.874484
     22          1           0       -2.614063    3.445678    0.706061
     23          1           0       -4.255566    1.646650    1.296866
     24          1           0       -2.182221   -1.103070   -1.264685
     25          1           0       -0.533954    0.686989   -1.863845
     26          7           0       -4.257284   -0.861078    0.391693
     27          8           0       -4.101763   -1.965352   -0.125055
     28          8           0       -5.155826   -0.567429    1.177206
 ---------------------------------------------------------------------

 SCF Done:  E(RHF) =  -868.337525883     A.U. after   16 cycles
 E2 =    -0.2600391120D+01 EUMP2 =    -0.87093791700227D+03

 The electronic state is 1-A.
 Alpha  occ. eigenvalues --  -20.61477 -20.61423 -20.60344 -20.60317 -15.86499
 Alpha  occ. eigenvalues --  -15.85388 -11.31883 -11.30804 -11.28557 -11.28389
 Alpha  occ. eigenvalues --  -11.28168 -11.27523 -11.27447 -11.27404 -11.27294
 Alpha  occ. eigenvalues --  -11.27278 -11.26513 -11.26421  -1.60506  -1.59408
 Alpha  occ. eigenvalues --   -1.40069  -1.38958  -1.20050  -1.19012  -1.09430
 Alpha  occ. eigenvalues --   -1.08429  -1.05471  -1.04404  -0.96272  -0.95238
 Alpha  occ. eigenvalues --   -0.86867  -0.85831  -0.83118  -0.82049  -0.78181
 Alpha  occ. eigenvalues --   -0.77057  -0.72725  -0.71817  -0.71609  -0.71169
 Alpha  occ. eigenvalues --   -0.70732  -0.70168  -0.65711  -0.65502  -0.64670
 Alpha  occ. eigenvalues --   -0.64443  -0.62838  -0.61709  -0.55949  -0.55012
 Alpha  occ. eigenvalues --   -0.53775  -0.53585  -0.52756  -0.52486  -0.49484
 Alpha  occ. eigenvalues --   -0.49454  -0.48379  -0.48349  -0.45468  -0.44350
 Alpha  occ. eigenvalues --   -0.38006  -0.37174  -0.36955  -0.35985
 Alpha virt. eigenvalues --    0.04367   0.05456   0.10503   0.11670   0.15852
 Alpha virt. eigenvalues --    0.16909   0.19321   0.22063   0.25160   0.26856
 Alpha virt. eigenvalues --    0.28305   0.29318   0.29859   0.31126   0.32412

 Mulliken charges:
               1
     1  C   -0.170144
     2  C   -0.218024
     3  C   -0.169299
     4  C    0.159847
     5  C   -0.170699
     6  C   -0.220194
     7  H    0.227329
     8  H    0.226294
     9  H    0.278530
    10  H    0.269116
    11  H    0.220905
    12  N    0.489532
    13  O   -0.468653
    14  O   -0.453407
    15  C   -0.171487
    16  C   -0.218927
    17  C   -0.171323
    18  C    0.157706
    19  C   -0.168880
    20  C   -0.221561
    21  H    0.217040
    22  H    0.220454
    23  H    0.274482
    24  H    0.286542
    25  H    0.226231
    26  N    0.487860
    27  O   -0.456290
    28  O   -0.462981
 Sum of Mulliken charges =  -0.00000

 Dipole moment (field-independent basis, Debye):
    X=              6.2847    Y=              7.7991    Z=             -0.1102  Tot=             10.0168
 Quadrupole moment (field-independent basis, Debye-Ang):
   XX=           -109.4312   YY=           -106.2632   ZZ=           -101.3742
   XY=             -2.6933   XZ=              8.3063   YZ=             -0.4970

 Normal termination of Gaussian 16 at Thu May  6 21:17:05 2021.
