 Gaussian 16, Revision A.03,
 Gaussian 16:  EM64L-G16RevA.03 25-Dec-2016

 -------------
 #p 6-31g* mp2
 -------------

 ------------------------------------------------------
 Input file generated by CHIRIPA (05-May-2021 14:57:25)
 ------------------------------------------------------
 Symbolic Z-matrix:
 Charge =  0 Multiplicity = 1

                         Standard orientation:
 ---------------------------------------------------------------------
 Center     Atomic      Atomic             Coordinates (Angstroms)
 Number     Number       Type             X           Y           Z
 ---------------------------------------------------------------------
      1          6           0        4.132580    1.559123    1.320520
      2          6           0        3.571286    0.516701    2.065387
      3          6           0        2.895567   -0.527899    1.427608
      4          6           0        2.799552   -0.498171    0.037217
      5          6           0        3.348131    0.526375   -0.732625
      6          6           0        4.019410    1.560631   -0.073651
      7          1           0        4.655770    2.366576    1.824194
      8          1           0        3.657627    0.512920    3.148242
      9          1           0        2.451634   -1.347301    1.979806
     10          1           0        3.245749    0.502636   -1.810759
     11          1           0        4.454333    2.368891   -0.654687
     12          7           0        2.086548   -1.598567   -0.649190
     13          8           0        2.015732   -1.549151   -1.875232
     14          8           0        1.612013   -2.489637    0.051844
     15          6           0       -1.407943    1.414726   -1.848304
     16          6           0       -1.511010    0.020566   -1.801220
     17          6           0       -2.344064   -0.598568   -0.864607
     18          6           0       -3.062959    0.210670    0.013807
     19          6           0       -2.981562    1.602137   -0.008214
     20          6           0       -2.142254    2.199678   -0.953229
     21          1           0       -0.758377    1.887298   -2.579151
     22          1           0       -0.941911   -0.591550   -2.495110
     23          1           0       -2.442641   -1.675734   -0.806194
     24          1           0       -3.561261    2.185845    0.696522
     25          1           0       -2.064180    3.282626   -0.987493
     26          7           0       -3.948187   -0.433349    1.009805
     27          8           0       -4.571074    0.301946    1.772687
     28          8           0       -4.002380   -1.661234    1.008725
 ---------------------------------------------------------------------

 SCF Done:  E(RHF) =  -868.339464592     A.U. after   16 cycles
 E2 =    -0.2599338705D+01 EUMP2 =    -0.87093880329669D+03

 The electronic state is 1-A.
 Alpha  occ. eigenvalues --  -20.61498 -20.61435 -20.60326 -20.60301 -15.86496
 Alpha  occ. eigenvalues --  -15.85363 -11.31695 -11.30663 -11.28290 -11.28199
 Alpha  occ. eigenvalues --  -11.27953 -11.27280 -11.27254 -11.27184 -11.27103
 Alpha  occ. eigenvalues --  -11.26971 -11.26320 -11.26037  -1.60532  -1.59394
 Alpha  occ. eigenvalues --   -1.40091  -1.38947  -1.19851  -1.18827  -1.09276
 Alpha  occ. eigenvalues --   -1.08244  -1.05233  -1.04192  -0.96140  -0.95088
 Alpha  occ. eigenvalues --   -0.86638  -0.85596  -0.82980  -0.81901  -0.78049
 Alpha  occ. eigenvalues --   -0.76948  -0.72723  -0.71838  -0.71583  -0.70961
 Alpha  occ. eigenvalues --   -0.70718  -0.69950  -0.65509  -0.65235  -0.64468
 Alpha  occ. eigenvalues --   -0.64157  -0.62584  -0.61508  -0.55737  -0.54736
 Alpha  occ. eigenvalues --   -0.53566  -0.53323  -0.52568  -0.52251  -0.49496
 Alpha  occ. eigenvalues --   -0.49463  -0.48346  -0.48333  -0.45527  -0.44366
 Alpha  occ. eigenvalues --   -0.37818  -0.36868  -0.36802  -0.35799
 Alpha virt. eigenvalues --    0.04457   0.05543   0.10823   0.11839   0.15970
 Alpha virt. eigenvalues --    0.17042   0.20952   0.22075   0.26876   0.27702
 Alpha virt. eigenvalues --    0.28258   0.28825   0.30591   0.31608   0.32094

 Mulliken charges:
               1
     1  C   -0.170238
     2  C   -0.218316
     3  C   -0.169636
     4  C    0.159640
     5  C   -0.172220
     6  C   -0.218874
     7  H    0.227173
     8  H    0.226341
     9  H    0.278655
    10  H    0.271836
    11  H    0.223128
    12  N    0.488954
    13  O   -0.469200
    14  O   -0.455246
    15  C   -0.173494
    16  C   -0.225856
    17  C   -0.170918
    18  C    0.157432
    19  C   -0.173062
    20  C   -0.219011
    21  H    0.222252
    22  H    0.241400
    23  H    0.281646
    24  H    0.272740
    25  H    0.219180
    26  N    0.487836
    27  O   -0.463921
    28  O   -0.458219
 Sum of Mulliken charges =  -0.00000

 Dipole moment (field-independent basis, Debye):
    X=              5.8284    Y=              5.9356    Z=             -1.0019  Tot=              8.3789
 Quadrupole moment (field-independent basis, Debye-Ang):
   XX=           -111.0867   YY=           -103.4908   ZZ=           -100.8319
   XY=              3.1072   XZ=             16.9754   YZ=             -2.0432

 Normal termination of Gaussian 16 at Thu May  6 14:45:22 2021.
