 Gaussian 16, Revision A.03,
 Gaussian 16:  EM64L-G16RevA.03 25-Dec-2016

 -------------
 #p 6-31g* mp2
 -------------

 ------------------------------------------------------
 Input file generated by CHIRIPA (05-May-2021 14:51:12)
 ------------------------------------------------------
 Symbolic Z-matrix:
 Charge =  0 Multiplicity = 1

                         Standard orientation:
 ---------------------------------------------------------------------
 Center     Atomic      Atomic             Coordinates (Angstroms)
 Number     Number       Type             X           Y           Z
 ---------------------------------------------------------------------
      1          6           0       -4.741912   -0.425984   -0.331644
      2          6           0       -5.943581   -1.072633    0.358154
      3          6           0       -6.768678   -1.945958   -0.587527
      4          1           0       -5.094866    0.179309   -1.177806
      5          1           0       -4.103641   -1.213616   -0.755484
      6          1           0       -6.578676   -0.284074    0.781763
      7          1           0       -5.587741   -1.676303    1.202889
      8          1           0       -6.154872   -2.752852   -1.000763
      9          1           0       -7.151437   -1.352713   -1.424281
     10          1           0       -7.622631   -2.398364   -0.073763
     11          6           0       -3.907258    0.450144    0.600815
     12          6           0       -2.705589    1.096793   -0.088983
     13          6           0       -1.880492    1.970118    0.856698
     14          1           0       -4.545529    1.237776    1.024655
     15          1           0       -3.554305   -0.155149    1.446977
     16          1           0       -3.061429    1.700463   -0.933718
     17          1           0       -2.070494    0.308234   -0.512592
     18          1           0       -1.497734    1.376873    1.693452
     19          1           0       -2.494299    2.777012    1.269934
     20          1           0       -1.026539    2.422523    0.342934
     21          6           0        5.073170   -0.148413   -0.201413
     22          6           0        5.503243   -1.483058    0.408297
     23          6           0        7.003560   -1.741526    0.266740
     24          1           0        5.350908   -0.131621   -1.264204
     25          1           0        5.633351    0.664568    0.280927
     26          1           0        4.941412   -2.293162   -0.074086
     27          1           0        5.224276   -1.496752    1.469714
     28          1           0        7.578776   -0.953770    0.763899
     29          1           0        7.294305   -1.754706   -0.788673
     30          1           0        7.289178   -2.700901    0.709326
     31          6           0        3.576001    0.124254   -0.067758
     32          6           0        3.145927    1.458899   -0.677468
     33          6           0        1.645611    1.717367   -0.535910
     34          1           0        3.015819   -0.688727   -0.550098
     35          1           0        3.298261    0.107461    0.995033
     36          1           0        3.424895    1.472592   -1.738885
     37          1           0        3.707758    2.269002   -0.195086
     38          1           0        1.354865    1.730546    0.519502
     39          1           0        1.070395    0.929611   -1.033070
     40          1           0        1.359993    2.676741   -0.978497
 ---------------------------------------------------------------------

 SCF Done:  E(RHF) =  -470.732870834     A.U. after   11 cycles
 E2 =    -0.1582598917D+01 EUMP2 =    -0.47231546975140D+03

 The electronic state is 1-A.
 Alpha  occ. eigenvalues --  -11.21609 -11.21597 -11.21569 -11.21513 -11.21413
 Alpha  occ. eigenvalues --  -11.21354 -11.21353 -11.21290 -11.21077 -11.21068
 Alpha  occ. eigenvalues --  -11.21048 -11.20882  -1.08438  -1.08369  -1.03554
 Alpha  occ. eigenvalues --   -1.03445  -0.96045  -0.95859  -0.87101  -0.86844
 Alpha  occ. eigenvalues --   -0.79649  -0.79487  -0.78250  -0.78186  -0.65067
 Alpha  occ. eigenvalues --   -0.65002  -0.60940  -0.60859  -0.59447  -0.59222
 Alpha  occ. eigenvalues --   -0.57649  -0.57475  -0.55303  -0.55181  -0.52973
 Alpha  occ. eigenvalues --   -0.52542  -0.52390  -0.52107  -0.49976  -0.49800
 Alpha  occ. eigenvalues --   -0.47932  -0.47806  -0.46673  -0.46519  -0.45786
 Alpha  occ. eigenvalues --   -0.45730  -0.45718  -0.45645  -0.43885  -0.43586
 Alpha virt. eigenvalues --    0.22244   0.22963   0.23552   0.24766   0.26338
 Alpha virt. eigenvalues --    0.26607   0.27045   0.27510   0.27545   0.29210
 Alpha virt. eigenvalues --    0.30203   0.30539   0.31400   0.31960   0.32227

 Mulliken charges:
               1
     1  C   -0.298183
     2  C   -0.299584
     3  C   -0.475660
     4  H    0.149504
     5  H    0.149260
     6  H    0.151873
     7  H    0.151858
     8  H    0.155076
     9  H    0.155115
    10  H    0.160136
    11  C   -0.298258
    12  C   -0.299724
    13  C   -0.481891
    14  H    0.149390
    15  H    0.149435
    16  H    0.151391
    17  H    0.151932
    18  H    0.153397
    19  H    0.153517
    20  H    0.171673
    21  C   -0.298302
    22  C   -0.299624
    23  C   -0.475708
    24  H    0.149685
    25  H    0.149592
    26  H    0.151860
    27  H    0.151931
    28  H    0.155219
    29  H    0.155194
    30  H    0.160256
    31  C   -0.298410
    32  C   -0.300675
    33  C   -0.478301
    34  H    0.149315
    35  H    0.149711
    36  H    0.151763
    37  H    0.151994
    38  H    0.158626
    39  H    0.156322
    40  H    0.159295
 Sum of Mulliken charges =  -0.00000

 Dipole moment (field-independent basis, Debye):
    X=              0.0394    Y=              0.0152    Z=             -0.0047  Tot=              0.0425
 Quadrupole moment (field-independent basis, Debye-Ang):
   XX=            -86.2615   YY=            -84.4569   ZZ=            -84.2665
   XY=             -0.4938   XZ=             -0.0115   YZ=             -0.1723

 Normal termination of Gaussian 16 at Thu May  6 03:53:23 2021.
