 Gaussian 16, Revision A.03,
 Gaussian 16:  EM64L-G16RevA.03 25-Dec-2016

 -------------
 #p 6-31g* mp2
 -------------

 ------------------------------------------------------
 Input file generated by CHIRIPA (05-May-2021 14:57:23)
 ------------------------------------------------------
 Symbolic Z-matrix:
 Charge =  0 Multiplicity = 1

                         Standard orientation:
 ---------------------------------------------------------------------
 Center     Atomic      Atomic             Coordinates (Angstroms)
 Number     Number       Type             X           Y           Z
 ---------------------------------------------------------------------
      1          6           0       -1.727493    0.332403   -0.080538
      2          6           0       -2.604760    1.393570    0.166136
      3          6           0       -3.986821    1.183298    0.181657
      4          6           0       -4.459294   -0.106770   -0.054527
      5          6           0       -3.610788   -1.184473   -0.303289
      6          6           0       -2.232416   -0.950969   -0.314051
      7          1           0       -0.655307    0.504771   -0.090747
      8          1           0       -2.215459    2.391310    0.347811
      9          1           0       -4.688505    1.986786    0.369981
     10          1           0       -4.028679   -2.167947   -0.480953
     11          1           0       -1.553481   -1.776975   -0.505899
     12          7           0       -5.920467   -0.341673   -0.040614
     13          8           0       -6.311544   -1.487615   -0.251596
     14          8           0       -6.646991    0.624600    0.181008
     15          6           0        3.146189    2.351845    0.036080
     16          6           0        2.470673    1.266487    0.603704
     17          6           0        3.055168   -0.003404    0.620764
     18          6           0        4.322140   -0.152734    0.058825
     19          6           0        5.020472    0.909041   -0.514111
     20          6           0        4.416693    2.169979   -0.520035
     21          1           0        2.684648    3.334849    0.027154
     22          1           0        1.483877    1.404779    1.036318
     23          1           0        2.554529   -0.860941    1.053669
     24          1           0        6.003052    0.740127   -0.937696
     25          1           0        4.943648    3.011070   -0.961543
     26          7           0        4.951127   -1.492370    0.070991
     27          8           0        6.068266   -1.597709   -0.430550
     28          8           0        4.315078   -2.411672    0.581836
 ---------------------------------------------------------------------

 SCF Done:  E(RHF) =  -868.336889991     A.U. after   16 cycles
 E2 =    -0.2599696781D+01 EUMP2 =    -0.87093658677158D+03

 The electronic state is 1-A.
 Alpha  occ. eigenvalues --  -20.61495 -20.61482 -20.61089 -20.61081 -15.86553
 Alpha  occ. eigenvalues --  -15.86144 -11.32063 -11.31619 -11.28740 -11.28630
 Alpha  occ. eigenvalues --  -11.28457 -11.28213 -11.28162 -11.28040 -11.27821
 Alpha  occ. eigenvalues --  -11.27637 -11.27319 -11.27220  -1.60564  -1.60160
 Alpha  occ. eigenvalues --   -1.40114  -1.39710  -1.20271  -1.19809  -1.09634
 Alpha  occ. eigenvalues --   -1.09206  -1.05710  -1.05222  -0.96438  -0.96020
 Alpha  occ. eigenvalues --   -0.87098  -0.86628  -0.83284  -0.82838  -0.78303
 Alpha  occ. eigenvalues --   -0.77850  -0.72766  -0.72361  -0.71891  -0.71484
 Alpha  occ. eigenvalues --   -0.71369  -0.70988  -0.65926  -0.65736  -0.65469
 Alpha  occ. eigenvalues --   -0.65233  -0.63057  -0.62561  -0.56214  -0.55800
 Alpha  occ. eigenvalues --   -0.53999  -0.53781  -0.53549  -0.53322  -0.49537
 Alpha  occ. eigenvalues --   -0.49513  -0.49130  -0.49108  -0.45488  -0.45091
 Alpha  occ. eigenvalues --   -0.38246  -0.37828  -0.37315  -0.36816
 Alpha virt. eigenvalues --    0.04244   0.04668   0.10254   0.10824   0.15545
 Alpha virt. eigenvalues --    0.16082   0.18748   0.21869   0.25174   0.26545
 Alpha virt. eigenvalues --    0.27596   0.28839   0.29972   0.31410   0.31767

 Mulliken charges:
               1
     1  C   -0.175908
     2  C   -0.218921
     3  C   -0.170265
     4  C    0.159121
     5  C   -0.169985
     6  C   -0.219156
     7  H    0.221794
     8  H    0.219111
     9  H    0.276468
    10  H    0.278116
    11  H    0.227409
    12  N    0.487936
    13  O   -0.458453
    14  O   -0.459771
    15  C   -0.169956
    16  C   -0.223880
    17  C   -0.172032
    18  C    0.159240
    19  C   -0.168786
    20  C   -0.218266
    21  H    0.226677
    22  H    0.218071
    23  H    0.275067
    24  H    0.278812
    25  H    0.226878
    26  N    0.488088
    27  O   -0.457391
    28  O   -0.460019
 Sum of Mulliken charges =  -0.00000

 Dipole moment (field-independent basis, Debye):
    X=              3.0820    Y=              5.4828    Z=             -0.1698  Tot=              6.2920
 Quadrupole moment (field-independent basis, Debye-Ang):
   XX=           -165.3242   YY=           -101.3401   ZZ=           -105.1010
   XY=             17.8938   XZ=             -2.8588   YZ=              0.3055

 Normal termination of Gaussian 16 at Thu May  6 22:43:58 2021.
