 Gaussian 16, Revision A.03,
 Gaussian 16:  EM64L-G16RevA.03 25-Dec-2016

 -------------
 #p 6-31g* mp2
 -------------

 ------------------------------------------------------
 Input file generated by CHIRIPA (05-May-2021 14:57:20)
 ------------------------------------------------------
 Symbolic Z-matrix:
 Charge =  0 Multiplicity = 1

                         Standard orientation:
 ---------------------------------------------------------------------
 Center     Atomic      Atomic             Coordinates (Angstroms)
 Number     Number       Type             X           Y           Z
 ---------------------------------------------------------------------
      1          6           0       -3.558423   -1.957309    1.408062
      2          6           0       -4.559973   -1.483255    0.554428
      3          6           0       -4.378469   -0.297348   -0.163366
      4          6           0       -3.177648    0.392266   -0.002894
      5          6           0       -2.160952   -0.054272    0.839854
      6          6           0       -2.364214   -1.242564    1.547805
      7          1           0       -3.707871   -2.879476    1.961839
      8          1           0       -5.488428   -2.036253    0.443938
      9          1           0       -5.137224    0.092391   -0.831058
     10          1           0       -1.246144    0.518916    0.929294
     11          1           0       -1.584656   -1.608337    2.210032
     12          7           0       -2.973980    1.648995   -0.757580
     13          8           0       -1.907003    2.238030   -0.598726
     14          8           0       -3.885180    2.021189   -1.493667
     15          6           0        4.453780    1.555727    1.216919
     16          6           0        5.162341    0.573995    0.516442
     17          6           0        4.484290   -0.395536   -0.228410
     18          6           0        3.091087   -0.353443   -0.250880
     19          6           0        2.356823    0.611841    0.436415
     20          6           0        3.055748    1.571489    1.174744
     21          1           0        4.988614    2.305042    1.793004
     22          1           0        6.248099    0.559313    0.547388
     23          1           0        5.007855   -1.166888   -0.780056
     24          1           0        1.274786    0.600759    0.386513
     25          1           0        2.502854    2.332726    1.717763
     26          7           0        2.362217   -1.374610   -1.035968
     27          8           0        1.134550   -1.315812   -1.039678
     28          8           0        3.032396   -2.214462   -1.632746
 ---------------------------------------------------------------------

 SCF Done:  E(RHF) =  -868.338052579     A.U. after   16 cycles
 E2 =    -0.2599703702D+01 EUMP2 =    -0.87093775628145D+03

 The electronic state is 1-A.
 Alpha  occ. eigenvalues --  -20.60877 -20.60870 -20.60591 -20.60566 -15.85924
 Alpha  occ. eigenvalues --  -15.85629 -11.31245 -11.30865 -11.27831 -11.27793
 Alpha  occ. eigenvalues --  -11.27514 -11.27509 -11.27406 -11.27129 -11.26802
 Alpha  occ. eigenvalues --  -11.26780 -11.26416 -11.26405  -1.59949  -1.59644
 Alpha  occ. eigenvalues --   -1.39505  -1.39209  -1.19405  -1.19018  -1.08805
 Alpha  occ. eigenvalues --   -1.08435  -1.04801  -1.04418  -0.95653  -0.95302
 Alpha  occ. eigenvalues --   -0.86204  -0.85830  -0.82483  -0.82150  -0.77560
 Alpha  occ. eigenvalues --   -0.77209  -0.72147  -0.71864  -0.71269  -0.70946
 Alpha  occ. eigenvalues --   -0.70532  -0.70157  -0.65057  -0.64818  -0.64690
 Alpha  occ. eigenvalues --   -0.64435  -0.62215  -0.61744  -0.55302  -0.54931
 Alpha  occ. eigenvalues --   -0.53128  -0.52921  -0.52710  -0.52506  -0.48907
 Alpha  occ. eigenvalues --   -0.48895  -0.48626  -0.48594  -0.44920  -0.44643
 Alpha  occ. eigenvalues --   -0.37376  -0.36968  -0.36396  -0.35975
 Alpha virt. eigenvalues --    0.04985   0.05330   0.11251   0.11642   0.16499
 Alpha virt. eigenvalues --    0.16875   0.19702   0.22197   0.24981   0.27747
 Alpha virt. eigenvalues --    0.28092   0.29612   0.30831   0.31423   0.31890

 Mulliken charges:
               1
     1  C   -0.169771
     2  C   -0.218077
     3  C   -0.169903
     4  C    0.159232
     5  C   -0.162675
     6  C   -0.215492
     7  H    0.225375
     8  H    0.222799
     9  H    0.274880
    10  H    0.269363
    11  H    0.222474
    12  N    0.488825
    13  O   -0.467168
    14  O   -0.459404
    15  C   -0.170568
    16  C   -0.218746
    17  C   -0.170225
    18  C    0.157411
    19  C   -0.176180
    20  C   -0.220882
    21  H    0.226432
    22  H    0.223732
    23  H    0.275572
    24  H    0.281967
    25  H    0.226326
    26  N    0.487191
    27  O   -0.462699
    28  O   -0.459787
 Sum of Mulliken charges =  -0.00000

 Dipole moment (field-independent basis, Debye):
    X=              1.8702    Y=             -0.8934    Z=              5.3908  Tot=              5.7755
 Quadrupole moment (field-independent basis, Debye-Ang):
   XX=            -76.1837   YY=           -111.1867   ZZ=           -106.4324
   XY=             23.2348   XZ=              0.3958   YZ=              0.0472

 Normal termination of Gaussian 16 at Thu May  6 11:09:23 2021.
