 Gaussian 16, Revision A.03,
 Gaussian 16:  EM64L-G16RevA.03 25-Dec-2016

 -------------
 #p 6-31g* mp2
 -------------

 ------------------------------------------------------
 Input file generated by CHIRIPA (05-May-2021 14:57:26)
 ------------------------------------------------------
 Symbolic Z-matrix:
 Charge =  0 Multiplicity = 1

                         Standard orientation:
 ---------------------------------------------------------------------
 Center     Atomic      Atomic             Coordinates (Angstroms)
 Number     Number       Type             X           Y           Z
 ---------------------------------------------------------------------
      1          6           0       -0.761861   -1.966618    0.615341
      2          6           0       -1.426115   -1.336695    1.672926
      3          6           0       -2.517611   -0.498388    1.427113
      4          6           0       -2.919893   -0.311537    0.105543
      5          6           0       -2.278645   -0.925011   -0.969510
      6          6           0       -1.189493   -1.759132   -0.700182
      7          1           0        0.085129   -2.616210    0.815428
      8          1           0       -1.096210   -1.495994    2.695585
      9          1           0       -3.049999    0.001750    2.227016
     10          1           0       -2.630684   -0.746846   -1.978343
     11          1           0       -0.675527   -2.247031   -1.523492
     12          7           0       -4.074171    0.573725   -0.167135
     13          8           0       -4.409017    0.721990   -1.340392
     14          8           0       -4.622191    1.102567    0.797561
     15          6           0        3.754882   -1.846598   -0.229513
     16          6           0        4.372315   -0.830586    0.507384
     17          6           0        3.813189    0.449780    0.558257
     18          6           0        2.630539    0.680185   -0.142844
     19          6           0        1.991572   -0.311252   -0.885854
     20          6           0        2.568571   -1.584151   -0.922559
     21          1           0        4.196167   -2.838317   -0.263529
     22          1           0        5.293684   -1.031532    1.046593
     23          1           0        4.270183    1.254731    1.120953
     24          1           0        1.073789   -0.080652   -1.413031
     25          1           0        2.086863   -2.371272   -1.495658
     26          7           0        2.029155    2.031698   -0.096487
     27          8           0        0.986663    2.209114   -0.722881
     28          8           0        2.611671    2.888007    0.565365
 ---------------------------------------------------------------------

 SCF Done:  E(RHF) =  -868.334904264     A.U. after   16 cycles
 E2 =    -0.2603592696D+01 EUMP2 =    -0.87093849695980D+03

 The electronic state is 1-A.
 Alpha  occ. eigenvalues --  -20.61140 -20.61126 -20.60608 -20.60603 -15.86200
 Alpha  occ. eigenvalues --  -15.85675 -11.31742 -11.31212 -11.28379 -11.28371
 Alpha  occ. eigenvalues --  -11.28232 -11.27922 -11.27838 -11.27689 -11.27520
 Alpha  occ. eigenvalues --  -11.27389 -11.27029 -11.26854  -1.60209  -1.59675
 Alpha  occ. eigenvalues --   -1.39756  -1.39227  -1.20000  -1.19456  -1.09353
 Alpha  occ. eigenvalues --   -1.08833  -1.05458  -1.04909  -0.96143  -0.95614
 Alpha  occ. eigenvalues --   -0.86824  -0.86331  -0.82983  -0.82467  -0.78006
 Alpha  occ. eigenvalues --   -0.77449  -0.72415  -0.71901  -0.71541  -0.71103
 Alpha  occ. eigenvalues --   -0.70985  -0.70588  -0.65672  -0.65487  -0.65123
 Alpha  occ. eigenvalues --   -0.64979  -0.62823  -0.62198  -0.55943  -0.55466
 Alpha  occ. eigenvalues --   -0.53914  -0.53586  -0.53032  -0.52952  -0.49189
 Alpha  occ. eigenvalues --   -0.49153  -0.48671  -0.48634  -0.45120  -0.44597
 Alpha  occ. eigenvalues --   -0.38061  -0.37914  -0.36686  -0.36289
 Alpha virt. eigenvalues --    0.04464   0.05193   0.10439   0.11134   0.15903
 Alpha virt. eigenvalues --    0.16466   0.19186   0.22040   0.25027   0.27359
 Alpha virt. eigenvalues --    0.28215   0.28901   0.29791   0.31498   0.31898

 Mulliken charges:
               1
     1  C   -0.164241
     2  C   -0.219897
     3  C   -0.166013
     4  C    0.162444
     5  C   -0.166007
     6  C   -0.231642
     7  H    0.223341
     8  H    0.224021
     9  H    0.278091
    10  H    0.277068
    11  H    0.214085
    12  N    0.488936
    13  O   -0.459458
    14  O   -0.458874
    15  C   -0.172189
    16  C   -0.219942
    17  C   -0.169793
    18  C    0.156367
    19  C   -0.163102
    20  C   -0.229464
    21  H    0.226145
    22  H    0.225190
    23  H    0.277864
    24  H    0.278863
    25  H    0.216301
    26  N    0.488014
    27  O   -0.456825
    28  O   -0.459284
 Sum of Mulliken charges =  -0.00000

 Dipole moment (field-independent basis, Debye):
    X=              6.0516    Y=             -7.5706    Z=              0.9489  Tot=              9.7384
 Quadrupole moment (field-independent basis, Debye-Ang):
   XX=           -114.9741   YY=           -110.4868   ZZ=            -98.5658
   XY=             -2.0289   XZ=             -1.1065   YZ=              1.7453

 Normal termination of Gaussian 16 at Thu May  6 05:13:31 2021.
