 Gaussian 16, Revision A.03,
 Gaussian 16:  EM64L-G16RevA.03 25-Dec-2016

 -------------
 #p 6-31g* mp2
 -------------

 ------------------------------------------------------
 Input file generated by CHIRIPA (05-May-2021 14:55:21)
 ------------------------------------------------------
 Symbolic Z-matrix:
 Charge =  0 Multiplicity = 1

                         Standard orientation:
 ---------------------------------------------------------------------
 Center     Atomic      Atomic             Coordinates (Angstroms)
 Number     Number       Type             X           Y           Z
 ---------------------------------------------------------------------
      1          6           0        1.735553   -2.637334   -0.341911
      2          6           0        3.101021   -2.441695   -0.110085
      3          6           0        3.612674   -1.153605    0.073176
      4          6           0        2.726382   -0.079019    0.018049
      5          6           0        1.360968   -0.241521   -0.211139
      6          6           0        0.871408   -1.538560   -0.391611
      7          1           0        1.346669   -3.641428   -0.483190
      8          1           0        3.774469   -3.293153   -0.070969
      9          1           0        4.665393   -0.973544    0.254224
     10          1           0        0.714320    0.626892   -0.244665
     11          1           0       -0.189492   -1.687497   -0.571485
     12          7           0        3.256352    1.289361    0.210583
     13          8           0        2.454691    2.219494    0.157400
     14          8           0        4.463368    1.405853    0.411029
     15          6           0       -3.391740   -0.336262   -0.219239
     16          6           0       -4.246792   -1.245829    0.663687
     17          6           0       -4.264436   -2.695248    0.177203
     18          1           0       -3.771062   -0.374111   -1.249592
     19          1           0       -2.364938   -0.726323   -0.249650
     20          1           0       -5.271349   -0.853391    0.693538
     21          1           0       -3.865510   -1.205660    1.692097
     22          1           0       -3.251166   -3.109638    0.164312
     23          1           0       -4.664994   -2.755367   -0.839921
     24          1           0       -4.881525   -3.327924    0.822789
     25          6           0       -3.364192    1.115895    0.254268
     26          6           0       -2.509141    2.025462   -0.628659
     27          6           0       -2.491497    3.474881   -0.142175
     28          1           0       -4.390995    1.505957    0.284678
     29          1           0       -2.984871    1.153744    1.284620
     30          1           0       -2.890423    1.985293   -1.657069
     31          1           0       -1.484583    1.633024   -0.658511
     32          1           0       -2.090939    3.535000    0.874948
     33          1           0       -3.504767    3.889272   -0.129284
     34          1           0       -1.874408    4.107558   -0.787761
 ---------------------------------------------------------------------

 SCF Done:  E(RHF) =  -669.535153853     A.U. after   15 cycles
 E2 =    -0.2092433744D+01 EUMP2 =    -0.67162758759774D+03

 The electronic state is 1-A.
 Alpha  occ. eigenvalues --  -20.60753 -20.60748 -15.85805 -11.31163 -11.27734
 Alpha  occ. eigenvalues --  -11.27722 -11.27473 -11.26749 -11.26718 -11.22277
 Alpha  occ. eigenvalues --  -11.22193 -11.22050 -11.21882 -11.21814 -11.21118
 Alpha  occ. eigenvalues --   -1.59828  -1.39382  -1.19336  -1.09039  -1.08732
 Alpha  occ. eigenvalues --   -1.04740  -1.04035  -0.96473  -0.95569  -0.87484
 Alpha  occ. eigenvalues --   -0.86141  -0.82406  -0.80121  -0.78876  -0.77443
 Alpha  occ. eigenvalues --   -0.72024  -0.71151  -0.70455  -0.65713  -0.64984
 Alpha  occ. eigenvalues --   -0.64764  -0.62096  -0.61416  -0.59853  -0.58082
 Alpha  occ. eigenvalues --   -0.55779  -0.55246  -0.53120  -0.53068  -0.52994
 Alpha  occ. eigenvalues --   -0.52753  -0.50404  -0.48787  -0.48781  -0.48410
 Alpha  occ. eigenvalues --   -0.47159  -0.46389  -0.46293  -0.44789  -0.44307
 Alpha  occ. eigenvalues --   -0.37317  -0.36340
 Alpha virt. eigenvalues --    0.05082   0.11305   0.16559   0.18502   0.22718
 Alpha virt. eigenvalues --    0.23079   0.24580   0.26641   0.27270   0.27467
 Alpha virt. eigenvalues --    0.29090   0.31084   0.31374   0.31619   0.32119

 Mulliken charges:
               1
     1  C   -0.171599
     2  C   -0.218956
     3  C   -0.170033
     4  C    0.159199
     5  C   -0.183862
     6  C   -0.229187
     7  H    0.226202
     8  H    0.223376
     9  H    0.275563
    10  H    0.288745
    11  H    0.232915
    12  N    0.486969
    13  O   -0.460367
    14  O   -0.460476
    15  C   -0.303326
    16  C   -0.299952
    17  C   -0.475166
    18  H    0.152439
    19  H    0.140765
    20  H    0.155916
    21  H    0.154127
    22  H    0.147620
    23  H    0.156847
    24  H    0.163679
    25  C   -0.299011
    26  C   -0.304862
    27  C   -0.475460
    28  H    0.153187
    29  H    0.152265
    30  H    0.153665
    31  H    0.147572
    32  H    0.159592
    33  H    0.154798
    34  H    0.166815
 Sum of Mulliken charges =  -0.00000

 Dipole moment (field-independent basis, Debye):
    X=             -2.0496    Y=             -4.6751    Z=             -0.6397  Tot=              5.1446
 Quadrupole moment (field-independent basis, Debye-Ang):
   XX=            -99.2815   YY=            -94.4394   ZZ=            -95.2747
   XY=            -15.6416   XZ=             -0.9481   YZ=             -0.6570

 Normal termination of Gaussian 16 at Thu May  6 10:53:12 2021.
