 Gaussian 16, Revision A.03,
 Gaussian 16:  EM64L-G16RevA.03 25-Dec-2016

 -------------
 #p 6-31g* mp2
 -------------

 ------------------------------------------------------
 Input file generated by CHIRIPA (05-May-2021 14:55:19)
 ------------------------------------------------------
 Symbolic Z-matrix:
 Charge =  0 Multiplicity = 1

                         Standard orientation:
 ---------------------------------------------------------------------
 Center     Atomic      Atomic             Coordinates (Angstroms)
 Number     Number       Type             X           Y           Z
 ---------------------------------------------------------------------
      1          6           0       -3.384843   -2.224304    0.318821
      2          6           0       -2.189033   -1.643790   -0.116568
      3          6           0       -2.095060   -0.260349   -0.294916
      4          6           0       -3.221489    0.516091   -0.027354
      5          6           0       -4.426908   -0.032604    0.407603
      6          6           0       -4.498001   -1.418280    0.579058
      7          1           0       -3.448956   -3.299863    0.454689
      8          1           0       -1.322934   -2.267297   -0.319437
      9          1           0       -1.181662    0.215260   -0.630948
     10          1           0       -5.273359    0.614884    0.601762
     11          1           0       -5.427978   -1.866369    0.917294
     12          7           0       -3.134115    1.981861   -0.212515
     13          8           0       -4.140785    2.644001    0.030021
     14          8           0       -2.060616    2.440837   -0.596673
     15          6           0        3.570535   -0.779167    0.267848
     16          6           0        2.901132   -1.645922   -0.799214
     17          6           0        1.759934   -2.495996   -0.239895
     18          1           0        3.952079   -1.425672    1.069970
     19          1           0        2.815486   -0.125333    0.725883
     20          1           0        3.657485   -2.296948   -1.256062
     21          1           0        2.521305   -0.997294   -1.598983
     22          1           0        0.984688   -1.859501    0.198816
     23          1           0        2.127323   -3.166539    0.543686
     24          1           0        1.295547   -3.107713   -1.019642
     25          6           0        4.713341    0.076410   -0.275943
     26          6           0        5.382745    0.943165    0.791118
     27          6           0        6.523942    1.793239    0.231798
     28          1           0        5.468391   -0.577424   -0.733979
     29          1           0        4.331797    0.722915   -1.078067
     30          1           0        5.762570    0.294537    1.590887
     31          1           0        4.626391    1.594191    1.247965
     32          1           0        6.156553    2.463782   -0.551782
     33          1           0        7.299188    1.156744   -0.206913
     34          1           0        6.988329    2.404956    1.011547
 ---------------------------------------------------------------------

 SCF Done:  E(RHF) =  -669.535507885     A.U. after   15 cycles
 E2 =    -0.2091235702D+01 EUMP2 =    -0.67162674358661D+03

 The electronic state is 1-A.
 Alpha  occ. eigenvalues --  -20.60747 -20.60742 -15.85799 -11.31148 -11.27712
 Alpha  occ. eigenvalues --  -11.27701 -11.27431 -11.26727 -11.26639 -11.22220
 Alpha  occ. eigenvalues --  -11.22057 -11.21768 -11.21700 -11.21576 -11.21101
 Alpha  occ. eigenvalues --   -1.59822  -1.39377  -1.19311  -1.08783  -1.08706
 Alpha  occ. eigenvalues --   -1.04712  -1.03937  -0.96416  -0.95549  -0.87450
 Alpha  occ. eigenvalues --   -0.86102  -0.82383  -0.80017  -0.78537  -0.77431
 Alpha  occ. eigenvalues --   -0.72018  -0.71145  -0.70422  -0.65426  -0.64960
 Alpha  occ. eigenvalues --   -0.64714  -0.62138  -0.61273  -0.59817  -0.57986
 Alpha  occ. eigenvalues --   -0.55729  -0.55190  -0.53228  -0.53052  -0.52856
 Alpha  occ. eigenvalues --   -0.52664  -0.50328  -0.48775  -0.48772  -0.48317
 Alpha  occ. eigenvalues --   -0.47017  -0.46093  -0.45977  -0.44786  -0.44168
 Alpha  occ. eigenvalues --   -0.37289  -0.36307
 Alpha virt. eigenvalues --    0.05082   0.11333   0.16520   0.20264   0.22709
 Alpha virt. eigenvalues --    0.23876   0.25974   0.26349   0.27137   0.28086
 Alpha virt. eigenvalues --    0.29117   0.29990   0.31114   0.31401   0.32245

 Mulliken charges:
               1
     1  C   -0.172006
     2  C   -0.224097
     3  C   -0.173914
     4  C    0.158825
     5  C   -0.171307
     6  C   -0.218345
     7  H    0.225846
     8  H    0.233423
     9  H    0.274829
    10  H    0.275383
    11  H    0.223181
    12  N    0.488185
    13  O   -0.460505
    14  O   -0.460968
    15  C   -0.299492
    16  C   -0.299747
    17  C   -0.484053
    18  H    0.150150
    19  H    0.151664
    20  H    0.154967
    21  H    0.153658
    22  H    0.151648
    23  H    0.160273
    24  H    0.157424
    25  C   -0.299074
    26  C   -0.300380
    27  C   -0.476125
    28  H    0.149514
    29  H    0.152232
    30  H    0.151423
    31  H    0.154525
    32  H    0.156922
    33  H    0.154660
    34  H    0.161280
 Sum of Mulliken charges =  -0.00000

 Dipole moment (field-independent basis, Debye):
    X=             -0.1275    Y=             -5.1514    Z=              0.6640  Tot=              5.1956
 Quadrupole moment (field-independent basis, Debye-Ang):
   XX=            -87.9133   YY=           -100.5537   ZZ=            -95.2454
   XY=             15.1632   XZ=             -3.3972   YZ=              0.5968

 Normal termination of Gaussian 16 at Wed May  5 23:44:24 2021.
