 Gaussian 16, Revision A.03,
 Gaussian 16:  EM64L-G16RevA.03 25-Dec-2016

 -------------
 #p 6-31g* mp2
 -------------

 ------------------------------------------------------
 Input file generated by CHIRIPA (05-May-2021 14:53:12)
 ------------------------------------------------------
 Symbolic Z-matrix:
 Charge =  0 Multiplicity = 1

                         Standard orientation:
 ---------------------------------------------------------------------
 Center     Atomic      Atomic             Coordinates (Angstroms)
 Number     Number       Type             X           Y           Z
 ---------------------------------------------------------------------
      1          6           0        3.133166   -0.318514    0.592233
      2          6           0        2.511976   -1.706295    0.754008
      3          6           0        1.149243   -1.666949    1.446255
      4          1           0        3.236246    0.147693    1.581662
      5          1           0        2.446783    0.317978    0.016775
      6          1           0        3.199940   -2.340393    1.327804
      7          1           0        2.410539   -2.169329   -0.235904
      8          1           0        0.443503   -1.056945    0.873169
      9          1           0        1.237389   -1.228980    2.445762
     10          1           0        0.723347   -2.669635    1.551569
     11          6           0        4.495736   -0.341416   -0.098133
     12          6           0        5.116926    1.046365   -0.259909
     13          6           0        6.479658    1.007018   -0.952156
     14          1           0        5.182118   -0.977908    0.477325
     15          1           0        4.392656   -0.807623   -1.087563
     16          1           0        5.218362    1.509399    0.730004
     17          1           0        4.428962    1.680462   -0.833705
     18          1           0        6.391513    0.569050   -1.951663
     19          1           0        7.185398    0.397015   -0.379070
     20          1           0        6.905555    2.009705   -1.057469
     21          6           0       -3.266479   -2.181511   -0.770685
     22          6           0       -4.365476   -1.429982   -0.341812
     23          6           0       -4.218441   -0.077664   -0.019068
     24          6           0       -2.952348    0.493607   -0.137160
     25          6           0       -1.838154   -0.228692   -0.561597
     26          6           0       -2.008544   -1.579528   -0.879018
     27          1           0       -3.389770   -3.231448   -1.019334
     28          1           0       -5.343588   -1.894854   -0.256740
     29          1           0       -5.052275    0.527499    0.315475
     30          1           0       -0.875580    0.262490   -0.636503
     31          1           0       -1.153269   -2.160726   -1.211822
     32          7           0       -2.784327    1.924461    0.201697
     33          8           0       -1.658380    2.404303    0.089300
     34          8           0       -3.781760    2.539031    0.573274
 ---------------------------------------------------------------------

 SCF Done:  E(RHF) =  -669.534495185     A.U. after   15 cycles
 E2 =    -0.2092407230D+01 EUMP2 =    -0.67162690241530D+03

 The electronic state is 1-A.
 Alpha  occ. eigenvalues --  -20.60773 -20.60768 -15.85827 -11.31201 -11.27765
 Alpha  occ. eigenvalues --  -11.27759 -11.27500 -11.26785 -11.26771 -11.21992
 Alpha  occ. eigenvalues --  -11.21616 -11.21594 -11.21502 -11.21460 -11.21078
 Alpha  occ. eigenvalues --   -1.59848  -1.39401  -1.19376  -1.08764  -1.08628
 Alpha  occ. eigenvalues --   -1.04794  -1.03738  -0.96191  -0.95600  -0.87208
 Alpha  occ. eigenvalues --   -0.86177  -0.82439  -0.79805  -0.78412  -0.77482
 Alpha  occ. eigenvalues --   -0.72047  -0.71170  -0.70497  -0.65291  -0.65021
 Alpha  occ. eigenvalues --   -0.64786  -0.62221  -0.61089  -0.59562  -0.57786
 Alpha  occ. eigenvalues --   -0.55539  -0.55244  -0.53184  -0.52935  -0.52814
 Alpha  occ. eigenvalues --   -0.52530  -0.50121  -0.48804  -0.48799  -0.48106
 Alpha  occ. eigenvalues --   -0.46843  -0.45953  -0.45875  -0.44803  -0.43982
 Alpha  occ. eigenvalues --   -0.37351  -0.36317
 Alpha virt. eigenvalues --    0.05020   0.11225   0.16456   0.19895   0.22939
 Alpha virt. eigenvalues --    0.23988   0.25607   0.26686   0.27470   0.28215
 Alpha virt. eigenvalues --    0.29487   0.30062   0.31451   0.31487   0.31960

 Mulliken charges:
               1
     1  C   -0.298904
     2  C   -0.300742
     3  C   -0.479175
     4  H    0.153952
     5  H    0.149641
     6  H    0.154104
     7  H    0.145481
     8  H    0.152839
     9  H    0.161255
    10  H    0.157164
    11  C   -0.298343
    12  C   -0.300291
    13  C   -0.475890
    14  H    0.149713
    15  H    0.147734
    16  H    0.153763
    17  H    0.154453
    18  H    0.154392
    19  H    0.154769
    20  H    0.161677
    21  C   -0.171547
    22  C   -0.218199
    23  C   -0.171332
    24  C    0.157376
    25  C   -0.172079
    26  C   -0.214586
    27  H    0.225671
    28  H    0.223527
    29  H    0.275646
    30  H    0.275642
    31  H    0.225007
    32  N    0.488096
    33  O   -0.460524
    34  O   -0.460291
 Sum of Mulliken charges =  -0.00000

 Dipole moment (field-independent basis, Debye):
    X=             -0.5647    Y=             -4.9854    Z=             -1.1333  Tot=              5.1437
 Quadrupole moment (field-independent basis, Debye-Ang):
   XX=            -86.9136   YY=           -100.4972   ZZ=            -94.3067
   XY=             14.5490   XZ=              3.4863   YZ=              0.2027

 Normal termination of Gaussian 16 at Wed May  5 16:58:32 2021.
