 Gaussian 16, Revision A.03,
 Gaussian 16:  EM64L-G16RevA.03 25-Dec-2016

 -------------
 #p 6-31g* mp2
 -------------

 ------------------------------------------------------
 Input file generated by CHIRIPA (05-May-2021 14:53:16)
 ------------------------------------------------------
 Symbolic Z-matrix:
 Charge =  0 Multiplicity = 1

                         Standard orientation:
 ---------------------------------------------------------------------
 Center     Atomic      Atomic             Coordinates (Angstroms)
 Number     Number       Type             X           Y           Z
 ---------------------------------------------------------------------
      1          6           0        4.423837    0.158979   -0.030104
      2          6           0        5.917314   -0.027040   -0.300119
      3          6           0        6.715328    1.265239   -0.124101
      4          1           0        4.028917    0.930340   -0.705371
      5          1           0        4.287637    0.538796    0.991945
      6          1           0        6.050578   -0.407705   -1.320879
      7          1           0        6.308684   -0.798185    0.375737
      8          1           0        6.612008    1.645725    0.897249
      9          1           0        6.352435    2.038423   -0.809007
     10          1           0        7.780427    1.109468   -0.321985
     11          6           0        3.612706   -1.124082   -0.202006
     12          6           0        2.119229   -0.938062    0.068010
     13          6           0        1.321215   -2.230342   -0.108009
     14          1           0        3.748905   -1.503899   -1.224054
     15          1           0        4.007626   -1.895443    0.473261
     16          1           0        1.727859   -0.166918   -0.607847
     17          1           0        1.985965   -0.557397    1.088769
     18          1           0        1.684108   -3.003526    0.576897
     19          1           0        1.424535   -2.610828   -1.129359
     20          1           0        0.256115   -2.074571    0.089875
     21          6           0       -1.058726    1.716690    0.583066
     22          6           0       -2.123778    2.305754   -0.106272
     23          6           0       -3.281413    1.572968   -0.384580
     24          6           0       -3.340414    0.247476    0.043065
     25          6           0       -2.296091   -0.367569    0.731830
     26          6           0       -1.148124    0.384257    0.999184
     27          1           0       -0.163203    2.293331    0.795008
     28          1           0       -2.057132    3.340350   -0.430642
     29          1           0       -4.120778    2.004167   -0.916512
     30          1           0       -2.391830   -1.400896    1.042454
     31          1           0       -0.322545   -0.075821    1.534714
     32          7           0       -4.560833   -0.538369   -0.245769
     33          8           0       -4.588073   -1.704449    0.141729
     34          8           0       -5.467048    0.026643   -0.854186
 ---------------------------------------------------------------------

 SCF Done:  E(RHF) =  -669.534479866     A.U. after   15 cycles
 E2 =    -0.2093134067D+01 EUMP2 =    -0.67162761393279D+03

 The electronic state is 1-A.
 Alpha  occ. eigenvalues --  -20.60748 -20.60743 -15.85801 -11.31174 -11.27731
 Alpha  occ. eigenvalues --  -11.27718 -11.27451 -11.26759 -11.26679 -11.22553
 Alpha  occ. eigenvalues --  -11.22169 -11.22120 -11.22057 -11.21804 -11.21582
 Alpha  occ. eigenvalues --   -1.59823  -1.39377  -1.19342  -1.09164  -1.08727
 Alpha  occ. eigenvalues --   -1.04769  -1.04225  -0.96664  -0.95566  -0.87675
 Alpha  occ. eigenvalues --   -0.86142  -0.82404  -0.80335  -0.78985  -0.77450
 Alpha  occ. eigenvalues --   -0.72018  -0.71146  -0.70439  -0.65799  -0.64992
 Alpha  occ. eigenvalues --   -0.64779  -0.62236  -0.61602  -0.59977  -0.58269
 Alpha  occ. eigenvalues --   -0.55928  -0.55219  -0.53448  -0.53188  -0.52928
 Alpha  occ. eigenvalues --   -0.52716  -0.50587  -0.48801  -0.48774  -0.48616
 Alpha  occ. eigenvalues --   -0.47353  -0.46503  -0.46422  -0.44781  -0.44496
 Alpha  occ. eigenvalues --   -0.37302  -0.36305
 Alpha virt. eigenvalues --    0.05042   0.11251   0.16436   0.20216   0.22474
 Alpha virt. eigenvalues --    0.23998   0.25489   0.26153   0.26408   0.28152
 Alpha virt. eigenvalues --    0.28723   0.29870   0.31032   0.31241   0.31986

 Mulliken charges:
               1
     1  C   -0.298716
     2  C   -0.300133
     3  C   -0.476083
     4  H    0.148521
     5  H    0.147301
     6  H    0.153781
     7  H    0.153406
     8  H    0.154863
     9  H    0.155039
    10  H    0.162415
    11  C   -0.298118
    12  C   -0.304048
    13  C   -0.479924
    14  H    0.153309
    15  H    0.151913
    16  H    0.155145
    17  H    0.140854
    18  H    0.157289
    19  H    0.161973
    20  H    0.158386
    21  C   -0.174214
    22  C   -0.218591
    23  C   -0.171436
    24  C    0.158330
    25  C   -0.173986
    26  C   -0.215879
    27  H    0.226247
    28  H    0.223318
    29  H    0.275489
    30  H    0.275683
    31  H    0.230611
    32  N    0.488095
    33  O   -0.460328
    34  O   -0.460511
 Sum of Mulliken charges =  -0.00000

 Dipole moment (field-independent basis, Debye):
    X=              4.4460    Y=              2.7328    Z=              0.9318  Tot=              5.3012
 Quadrupole moment (field-independent basis, Debye-Ang):
   XX=           -123.2390   YY=            -91.0001   ZZ=            -93.3427
   XY=            -10.8920   XZ=             -2.3000   YZ=             -1.9153

 Normal termination of Gaussian 16 at Wed May  5 15:42:21 2021.
