 Gaussian 16, Revision A.03,
 Gaussian 16:  EM64L-G16RevA.03 25-Dec-2016

 -------------
 #p 6-31g* mp2
 -------------

 ------------------------------------------------------
 Input file generated by CHIRIPA (05-May-2021 14:51:08)
 ------------------------------------------------------
 Symbolic Z-matrix:
 Charge =  0 Multiplicity = 1

                         Standard orientation:
 ---------------------------------------------------------------------
 Center     Atomic      Atomic             Coordinates (Angstroms)
 Number     Number       Type             X           Y           Z
 ---------------------------------------------------------------------
      1          6           0        3.622335   -0.481151   -0.522714
      2          6           0        3.280614   -1.811578    0.148983
      3          6           0        4.216522   -2.944539   -0.273236
      4          1           0        3.579714   -0.606687   -1.613296
      5          1           0        4.659334   -0.211256   -0.279439
      6          1           0        2.244121   -2.078196   -0.094355
      7          1           0        3.323866   -1.682811    1.238094
      8          1           0        5.253071   -2.704204   -0.015540
      9          1           0        4.167191   -3.101836   -1.355560
     10          1           0        3.954246   -3.886348    0.218766
     11          6           0        2.695524    0.661195   -0.110652
     12          6           0        3.037244    1.991622   -0.782349
     13          6           0        2.101336    3.124583   -0.360130
     14          1           0        1.658524    0.391299   -0.353927
     15          1           0        2.738144    0.786731    0.979930
     16          1           0        2.993992    1.862854   -1.871461
     17          1           0        4.073737    2.258240   -0.539011
     18          1           0        2.150667    3.281880    0.722194
     19          1           0        1.064788    2.884248   -0.617826
     20          1           0        2.363612    4.066392   -0.852133
     21          6           0       -3.583526   -0.074208   -0.318060
     22          6           0       -5.003764   -0.601434   -0.110838
     23          6           0       -5.840911   -0.563433   -1.389718
     24          1           0       -3.633219    0.956524   -0.694978
     25          1           0       -3.089344   -0.669000   -1.098702
     26          1           0       -5.494650   -0.006709    0.670155
     27          1           0       -4.950683   -1.630965    0.265813
     28          1           0       -5.376515   -1.172034   -2.172367
     29          1           0       -5.923573    0.461451   -1.765728
     30          1           0       -6.852480   -0.944742   -1.218860
     31          6           0       -2.734332   -0.105836    0.951427
     32          6           0       -1.314094    0.421391    0.744203
     33          6           0       -0.476947    0.383388    2.023084
     34          1           0       -3.228514    0.488956    1.732067
     35          1           0       -2.684639   -1.136568    1.328344
     36          1           0       -1.367176    1.450921    0.367554
     37          1           0       -0.823208   -0.173335   -0.036789
     38          1           0       -0.394285   -0.641494    2.399094
     39          1           0       -0.941343    0.991990    2.805734
     40          1           0        0.534621    0.764698    1.852226
 ---------------------------------------------------------------------

 SCF Done:  E(RHF) =  -470.732144031     A.U. after   11 cycles
 E2 =    -0.1584425567D+01 EUMP2 =    -0.47231656959834D+03

 The electronic state is 1-A.
 Alpha  occ. eigenvalues --  -11.21615 -11.21610 -11.21598 -11.21581 -11.21402
 Alpha  occ. eigenvalues --  -11.21394 -11.21335 -11.21333 -11.21084 -11.21083
 Alpha  occ. eigenvalues --  -11.21071 -11.20867  -1.08476  -1.08388  -1.03567
 Alpha  occ. eigenvalues --   -1.03474  -0.96018  -0.95914  -0.87040  -0.86929
 Alpha  occ. eigenvalues --   -0.79612  -0.79569  -0.78350  -0.78181  -0.65122
 Alpha  occ. eigenvalues --   -0.65007  -0.60941  -0.60902  -0.59556  -0.59175
 Alpha  occ. eigenvalues --   -0.57721  -0.57440  -0.55312  -0.55191  -0.52806
 Alpha  occ. eigenvalues --   -0.52647  -0.52465  -0.52205  -0.49971  -0.49848
 Alpha  occ. eigenvalues --   -0.47959  -0.47857  -0.46641  -0.46624  -0.45937
 Alpha  occ. eigenvalues --   -0.45746  -0.45718  -0.45464  -0.43800  -0.43677
 Alpha virt. eigenvalues --    0.21140   0.23167   0.23397   0.24476   0.25374
 Alpha virt. eigenvalues --    0.26027   0.26743   0.27724   0.27981   0.29736
 Alpha virt. eigenvalues --    0.30244   0.31156   0.31639   0.31886   0.32250

 Mulliken charges:
               1
     1  C   -0.297176
     2  C   -0.299911
     3  C   -0.475679
     4  H    0.149423
     5  H    0.149419
     6  H    0.151458
     7  H    0.152398
     8  H    0.155315
     9  H    0.155108
    10  H    0.160249
    11  C   -0.308108
    12  C   -0.298715
    13  C   -0.478958
    14  H    0.159369
    15  H    0.150853
    16  H    0.151829
    17  H    0.151752
    18  H    0.155184
    19  H    0.157895
    20  H    0.160473
    21  C   -0.298290
    22  C   -0.299611
    23  C   -0.475692
    24  H    0.149512
    25  H    0.149047
    26  H    0.152027
    27  H    0.151946
    28  H    0.155060
    29  H    0.155170
    30  H    0.160270
    31  C   -0.298102
    32  C   -0.302211
    33  C   -0.482507
    34  H    0.149782
    35  H    0.149712
    36  H    0.152612
    37  H    0.151050
    38  H    0.154083
    39  H    0.153842
    40  H    0.170120
 Sum of Mulliken charges =  -0.00000

 Dipole moment (field-independent basis, Debye):
    X=              0.0356    Y=              0.0096    Z=             -0.0096  Tot=              0.0381
 Quadrupole moment (field-independent basis, Debye-Ang):
   XX=            -85.2310   YY=            -84.6950   ZZ=            -84.9376
   XY=              0.3598   XZ=             -0.0260   YZ=              0.1781

 Normal termination of Gaussian 16 at Wed May  5 19:40:27 2021.
