 Gaussian 16, Revision A.03,
 Gaussian 16:  EM64L-G16RevA.03 25-Dec-2016

 -------------
 #p 6-31g* mp2
 -------------

 ------------------------------------------------------
 Input file generated by CHIRIPA (05-May-2021 14:53:17)
 ------------------------------------------------------
 Symbolic Z-matrix:
 Charge =  0 Multiplicity = 1

                         Standard orientation:
 ---------------------------------------------------------------------
 Center     Atomic      Atomic             Coordinates (Angstroms)
 Number     Number       Type             X           Y           Z
 ---------------------------------------------------------------------
      1          6           0        4.761271   -0.143942   -0.265184
      2          6           0        4.874568   -1.432734    0.549779
      3          6           0        6.120534   -2.246485    0.198818
      4          1           0        4.748348   -0.393997   -1.334881
      5          1           0        5.658804    0.467497   -0.097941
      6          1           0        3.976458   -2.040933    0.382127
      7          1           0        4.887030   -1.179596    1.617666
      8          1           0        7.027338   -1.661456    0.383338
      9          1           0        6.111593   -2.527688   -0.859221
     10          1           0        6.181651   -3.163532    0.793081
     11          6           0        3.520771    0.680446    0.074333
     12          6           0        3.407474    1.969238   -0.740630
     13          6           0        2.161509    2.782989   -0.389669
     14          1           0        2.623238    0.069007   -0.092910
     15          1           0        3.533694    0.930500    1.144030
     16          1           0        3.395013    1.716099   -1.808517
     17          1           0        4.305585    2.577437   -0.572978
     18          1           0        2.170450    3.064191    0.668370
     19          1           0        1.254704    2.197960   -0.574190
     20          1           0        2.100392    3.700036   -0.983933
     21          6           0       -0.754925    0.132339    0.386626
     22          6           0       -1.227812   -1.016931   -0.255309
     23          6           0       -2.599947   -1.216826   -0.433728
     24          6           0       -3.474954   -0.242626    0.044381
     25          6           0       -3.034674    0.912890    0.687984
     26          6           0       -1.658273    1.091889    0.855398
     27          1           0        0.312639    0.279507    0.520951
     28          1           0       -0.528573   -1.763810   -0.620386
     29          1           0       -2.993277   -2.097312   -0.927138
     30          1           0       -3.756094    1.639704    1.041133
     31          1           0       -1.293878    1.985395    1.354305
     32          7           0       -4.929830   -0.443186   -0.138677
     33          8           0       -5.680126    0.430039    0.291637
     34          8           0       -5.292319   -1.469813   -0.709006
 ---------------------------------------------------------------------

 SCF Done:  E(RHF) =  -669.534986279     A.U. after   15 cycles
 E2 =    -0.2092330335D+01 EUMP2 =    -0.67162731661402D+03

 The electronic state is 1-A.
 Alpha  occ. eigenvalues --  -20.60727 -20.60722 -15.85781 -11.31142 -11.27711
 Alpha  occ. eigenvalues --  -11.27701 -11.27366 -11.26718 -11.26698 -11.22668
 Alpha  occ. eigenvalues --  -11.22608 -11.22451 -11.22313 -11.22193 -11.21748
 Alpha  occ. eigenvalues --   -1.59803  -1.39357  -1.19310  -1.09467  -1.08701
 Alpha  occ. eigenvalues --   -1.04711  -1.04489  -0.96955  -0.95541  -0.87969
 Alpha  occ. eigenvalues --   -0.86104  -0.82383  -0.80565  -0.79301  -0.77423
 Alpha  occ. eigenvalues --   -0.71998  -0.71126  -0.70448  -0.66087  -0.64958
 Alpha  occ. eigenvalues --   -0.64712  -0.62061  -0.61875  -0.60329  -0.58567
 Alpha  occ. eigenvalues --   -0.56266  -0.55229  -0.53594  -0.53418  -0.53015
 Alpha  occ. eigenvalues --   -0.52796  -0.50896  -0.48860  -0.48755  -0.48750
 Alpha  occ. eigenvalues --   -0.47574  -0.46790  -0.46724  -0.44764  -0.44759
 Alpha  occ. eigenvalues --   -0.37263  -0.36318
 Alpha virt. eigenvalues --    0.05074   0.11295   0.16472   0.19741   0.22385
 Alpha virt. eigenvalues --    0.23684   0.24970   0.26217   0.26322   0.28100
 Alpha virt. eigenvalues --    0.29472   0.30029   0.30724   0.31135   0.31304

 Mulliken charges:
               1
     1  C   -0.298291
     2  C   -0.299871
     3  C   -0.476335
     4  H    0.151881
     5  H    0.153483
     6  H    0.148676
     7  H    0.153252
     8  H    0.157125
     9  H    0.156346
    10  H    0.162496
    11  C   -0.303168
    12  C   -0.299647
    13  C   -0.484037
    14  H    0.140517
    15  H    0.151120
    16  H    0.155588
    17  H    0.156722
    18  H    0.153563
    19  H    0.153479
    20  H    0.167172
    21  C   -0.177987
    22  C   -0.222232
    23  C   -0.170858
    24  C    0.158326
    25  C   -0.170676
    26  C   -0.221153
    27  H    0.239137
    28  H    0.222380
    29  H    0.275365
    30  H    0.275456
    31  H    0.225245
    32  N    0.488011
    33  O   -0.460476
    34  O   -0.460610
 Sum of Mulliken charges =  -0.00000

 Dipole moment (field-independent basis, Debye):
    X=              5.3964    Y=              0.7565    Z=              0.6117  Tot=              5.4834
 Quadrupole moment (field-independent basis, Debye-Ang):
   XX=           -130.1031   YY=            -91.4344   ZZ=            -93.7806
   XY=             -3.6846   XZ=             -2.1503   YZ=              2.3702

 Normal termination of Gaussian 16 at Thu May  6 15:37:53 2021.
