 Gaussian 16, Revision A.03,
 Gaussian 16:  EM64L-G16RevA.03 25-Dec-2016

 -------------
 #p 6-31g* mp2
 -------------

 ------------------------------------------------------
 Input file generated by CHIRIPA (05-May-2021 14:51:11)
 ------------------------------------------------------
 Symbolic Z-matrix:
 Charge =  0 Multiplicity = 1

                         Standard orientation:
 ---------------------------------------------------------------------
 Center     Atomic      Atomic             Coordinates (Angstroms)
 Number     Number       Type             X           Y           Z
 ---------------------------------------------------------------------
      1          6           0        3.229425   -0.392915   -0.118454
      2          6           0        2.177497    0.353293    0.702891
      3          6           0        0.747859    0.019429    0.275731
      4          1           0        3.096358   -0.148942   -1.181334
      5          1           0        3.060146   -1.474357   -0.022419
      6          1           0        2.349557    1.432973    0.606447
      7          1           0        2.313205    0.107665    1.763959
      8          1           0        0.552274   -1.051827    0.388685
      9          1           0        0.588833    0.281012   -0.775404
     10          1           0        0.012063    0.563764    0.875867
     11          6           0        4.663573   -0.069598    0.296772
     12          6           0        5.715501   -0.815806   -0.524573
     13          6           0        7.145139   -0.481942   -0.097413
     14          1           0        4.832853    1.011844    0.200737
     15          1           0        4.796640   -0.313571    1.359653
     16          1           0        5.579794   -0.570177   -1.585641
     17          1           0        5.543442   -1.895486   -0.428129
     18          1           0        7.304166   -0.743525    0.953722
     19          1           0        7.340724    0.589314   -0.210367
     20          1           0        7.880935   -1.026277   -0.697549
     21          6           0       -4.215871   -0.416282   -0.391755
     22          6           0       -5.266673   -1.102557    0.481646
     23          6           0       -5.796011   -2.396662   -0.137134
     24          1           0       -4.650906   -0.201891   -1.377516
     25          1           0       -3.381255   -1.110258   -0.562668
     26          1           0       -6.098421   -0.407008    0.652005
     27          1           0       -4.829144   -1.315168    1.465506
     28          1           0       -4.981103   -3.111257   -0.291663
     29          1           0       -6.257591   -2.197938   -1.109786
     30          1           0       -6.545942   -2.870692    0.503771
     31          6           0       -3.677128    0.878795    0.213437
     32          6           0       -2.626326    1.565069   -0.659963
     33          6           0       -2.096988    2.859175   -0.041185
     34          1           0       -4.511743    1.572770    0.384349
     35          1           0       -3.242092    0.664403    1.199198
     36          1           0       -3.063855    1.777681   -1.643824
     37          1           0       -1.794578    0.869521   -0.830324
     38          1           0       -1.635407    2.660451    0.931467
     39          1           0       -2.911895    3.573770    0.113345
     40          1           0       -1.347056    3.333204   -0.682089
 ---------------------------------------------------------------------

 SCF Done:  E(RHF) =  -470.732477393     A.U. after   11 cycles
 E2 =    -0.1583350192D+01 EUMP2 =    -0.47231582758501D+03

 The electronic state is 1-A.
 Alpha  occ. eigenvalues --  -11.21640 -11.21621 -11.21553 -11.21434 -11.21415
 Alpha  occ. eigenvalues --  -11.21374 -11.21330 -11.21270 -11.21126 -11.21086
 Alpha  occ. eigenvalues --  -11.21035 -11.21017  -1.08466  -1.08350  -1.03594
 Alpha  occ. eigenvalues --   -1.03436  -0.96052  -0.95894  -0.87055  -0.86932
 Alpha  occ. eigenvalues --   -0.79694  -0.79474  -0.78283  -0.78153  -0.65116
 Alpha  occ. eigenvalues --   -0.64988  -0.61109  -0.60834  -0.59334  -0.59270
 Alpha  occ. eigenvalues --   -0.57635  -0.57525  -0.55395  -0.55132  -0.52700
 Alpha  occ. eigenvalues --   -0.52610  -0.52453  -0.52331  -0.50004  -0.49840
 Alpha  occ. eigenvalues --   -0.47970  -0.47827  -0.46764  -0.46446  -0.45859
 Alpha  occ. eigenvalues --   -0.45747  -0.45701  -0.45525  -0.43794  -0.43691
 Alpha virt. eigenvalues --    0.21272   0.22978   0.23692   0.25151   0.26036
 Alpha virt. eigenvalues --    0.26485   0.26694   0.27685   0.27935   0.29187
 Alpha virt. eigenvalues --    0.29913   0.30846   0.31636   0.31935   0.32329

 Mulliken charges:
               1
     1  C   -0.298728
     2  C   -0.299847
     3  C   -0.480545
     4  H    0.149832
     5  H    0.149472
     6  H    0.152641
     7  H    0.151834
     8  H    0.154715
     9  H    0.156346
    10  H    0.165175
    11  C   -0.298314
    12  C   -0.299658
    13  C   -0.475725
    14  H    0.149658
    15  H    0.149693
    16  H    0.151985
    17  H    0.151926
    18  H    0.155200
    19  H    0.155242
    20  H    0.160319
    21  C   -0.298293
    22  C   -0.299585
    23  C   -0.475655
    24  H    0.149415
    25  H    0.149925
    26  H    0.151768
    27  H    0.151800
    28  H    0.155099
    29  H    0.155085
    30  H    0.160042
    31  C   -0.297974
    32  C   -0.308474
    33  C   -0.475918
    34  H    0.149044
    35  H    0.148792
    36  H    0.151027
    37  H    0.163549
    38  H    0.154370
    39  H    0.155067
    40  H    0.159698
 Sum of Mulliken charges =  -0.00000

 Dipole moment (field-independent basis, Debye):
    X=              0.0527    Y=             -0.0140    Z=             -0.0071  Tot=              0.0550
 Quadrupole moment (field-independent basis, Debye-Ang):
   XX=            -85.8661   YY=            -84.9379   ZZ=            -84.2616
   XY=             -0.9132   XZ=             -0.0213   YZ=             -1.1123

 Normal termination of Gaussian 16 at Thu May  6 02:17:15 2021.
