 Gaussian 16, Revision A.03,
 Gaussian 16:  EM64L-G16RevA.03 25-Dec-2016

 -------------
 #p 6-31g* mp2
 -------------

 ------------------------------------------------------
 Input file generated by CHIRIPA (05-May-2021 14:51:08)
 ------------------------------------------------------
 Symbolic Z-matrix:
 Charge =  0 Multiplicity = 1

                         Standard orientation:
 ---------------------------------------------------------------------
 Center     Atomic      Atomic             Coordinates (Angstroms)
 Number     Number       Type             X           Y           Z
 ---------------------------------------------------------------------
      1          6           0       -2.157647   -1.023995    0.778872
      2          6           0       -0.865461   -1.790325    0.494306
      3          6           0       -0.151851   -2.240099    1.769555
      4          1           0       -1.927541   -0.147845    1.400450
      5          1           0       -2.829874   -1.659824    1.371517
      6          1           0       -0.196431   -1.153743   -0.098803
      7          1           0       -1.098643   -2.664647   -0.126826
      8          1           0       -0.798095   -2.896094    2.361704
      9          1           0        0.109243   -1.376606    2.389886
     10          1           0        0.769310   -2.785952    1.542912
     11          6           0       -2.882481   -0.567711   -0.486098
     12          6           0       -4.174667    0.198620   -0.201531
     13          6           0       -4.888277    0.648393   -1.476780
     14          1           0       -2.210254    0.068119   -1.078742
     15          1           0       -3.112587   -1.443860   -1.107675
     16          1           0       -3.941485    1.072941    0.419601
     17          1           0       -4.843697   -0.437962    0.391578
     18          1           0       -5.149371   -0.215100   -2.097111
     19          1           0       -4.242033    1.304388   -2.068929
     20          1           0       -5.809438    1.194246   -1.250137
     21          6           0        1.968387    1.312233   -0.257903
     22          6           0        1.655430    2.143583    0.986645
     23          6           0        0.549710    3.172229    0.747757
     24          1           0        2.261483    1.984445   -1.075932
     25          1           0        1.054092    0.799354   -0.587168
     26          1           0        2.570366    2.653650    1.314274
     27          1           0        1.363230    1.469301    1.801862
     28          1           0       -0.377856    2.676976    0.442888
     29          1           0        0.836137    3.868054   -0.047471
     30          1           0        0.342103    3.755417    1.650337
     31          6           0        3.071741    0.279472   -0.034872
     32          6           0        3.384698   -0.551878   -1.279421
     33          6           0        4.490417   -1.580523   -1.040532
     34          1           0        3.986036    0.792352    0.294393
     35          1           0        2.778645   -0.392739    0.783157
     36          1           0        3.676898    0.122404   -2.094637
     37          1           0        2.469762   -1.061944   -1.607049
     38          1           0        4.203991   -2.276349   -0.245304
     39          1           0        5.417984   -1.085271   -0.735663
     40          1           0        4.698025   -2.163711   -1.943112
 ---------------------------------------------------------------------

 SCF Done:  E(RHF) =  -470.733322943     A.U. after   11 cycles
 E2 =    -0.1584292768D+01 EUMP2 =    -0.47231761571076D+03

 The electronic state is 1-A.
 Alpha  occ. eigenvalues --  -11.21666 -11.21662 -11.21637 -11.21611 -11.21470
 Alpha  occ. eigenvalues --  -11.21429 -11.21410 -11.21362 -11.21170 -11.21144
 Alpha  occ. eigenvalues --  -11.21089 -11.21079  -1.08522  -1.08437  -1.03590
 Alpha  occ. eigenvalues --   -1.03563  -0.96052  -0.96001  -0.87061  -0.87024
 Alpha  occ. eigenvalues --   -0.79667  -0.79619  -0.78367  -0.78214  -0.65449
 Alpha  occ. eigenvalues --   -0.64824  -0.61033  -0.60899  -0.59407  -0.59377
 Alpha  occ. eigenvalues --   -0.57647  -0.57624  -0.55449  -0.55179  -0.52734
 Alpha  occ. eigenvalues --   -0.52709  -0.52466  -0.52433  -0.50039  -0.49917
 Alpha  occ. eigenvalues --   -0.48006  -0.47925  -0.46854  -0.46619  -0.46094
 Alpha  occ. eigenvalues --   -0.45842  -0.45746  -0.45296  -0.43842  -0.43815
 Alpha virt. eigenvalues --    0.18378   0.21841   0.23876   0.24586   0.25083
 Alpha virt. eigenvalues --    0.26162   0.26734   0.28112   0.29146   0.29675
 Alpha virt. eigenvalues --    0.30002   0.31638   0.31809   0.32245   0.32460

 Mulliken charges:
               1
     1  C   -0.299038
     2  C   -0.307900
     3  C   -0.476767
     4  H    0.150263
     5  H    0.150076
     6  H    0.159368
     7  H    0.152456
     8  H    0.155808
     9  H    0.155759
    10  H    0.160149
    11  C   -0.299281
    12  C   -0.299844
    13  C   -0.475786
    14  H    0.149444
    15  H    0.150044
    16  H    0.152205
    17  H    0.152138
    18  H    0.155196
    19  H    0.155472
    20  H    0.160472
    21  C   -0.303517
    22  C   -0.300743
    23  C   -0.476663
    24  H    0.150108
    25  H    0.153574
    26  H    0.152545
    27  H    0.152497
    28  H    0.154913
    29  H    0.155653
    30  H    0.160583
    31  C   -0.300660
    32  C   -0.301037
    33  C   -0.475632
    34  H    0.149727
    35  H    0.152885
    36  H    0.151954
    37  H    0.152936
    38  H    0.155057
    39  H    0.155246
    40  H    0.160342
 Sum of Mulliken charges =  -0.00000

 Dipole moment (field-independent basis, Debye):
    X=             -0.0050    Y=             -0.0052    Z=              0.0020  Tot=              0.0075
 Quadrupole moment (field-independent basis, Debye-Ang):
   XX=            -84.9271   YY=            -84.2740   ZZ=            -85.3884
   XY=              1.8594   XZ=             -0.7201   YZ=              0.1497

 Normal termination of Gaussian 16 at Thu May  6 02:06:00 2021.
