 Gaussian 16, Revision A.03,
 Gaussian 16:  EM64L-G16RevA.03 25-Dec-2016

 -------------
 #p 6-31g* mp2
 -------------

 ------------------------------------------------------
 Input file generated by CHIRIPA (05-May-2021 14:55:21)
 ------------------------------------------------------
 Symbolic Z-matrix:
 Charge =  0 Multiplicity = 1

                         Standard orientation:
 ---------------------------------------------------------------------
 Center     Atomic      Atomic             Coordinates (Angstroms)
 Number     Number       Type             X           Y           Z
 ---------------------------------------------------------------------
      1          6           0        1.024058   -2.208621    0.292051
      2          6           0        1.674610   -1.919494   -0.911987
      3          6           0        2.449299   -0.762822   -1.040497
      4          6           0        2.552187    0.086446    0.060160
      5          6           0        1.916139   -0.174080    1.272950
      6          6           0        1.146682   -1.336529    1.378761
      7          1           0        0.424293   -3.109396    0.383064
      8          1           0        1.581162   -2.594959   -1.757600
      9          1           0        2.963623   -0.514691   -1.960997
     10          1           0        2.028088    0.518377    2.098413
     11          1           0        0.642575   -1.558521    2.315052
     12          7           0        3.369546    1.314021   -0.063873
     13          8           0        3.444323    2.046085    0.920570
     14          8           0        3.919938    1.520886   -1.143184
     15          6           0       -3.106455   -0.535284    0.237381
     16          6           0       -2.479574   -1.644822   -0.607564
     17          6           0       -2.511247   -3.006468    0.087209
     18          1           0       -2.576894   -0.470889    1.197779
     19          1           0       -4.145805   -0.804676    0.470988
     20          1           0       -1.442142   -1.372771   -0.840671
     21          1           0       -3.010566   -1.706454   -1.566138
     22          1           0       -3.542078   -3.303692    0.305492
     23          1           0       -1.964743   -2.968113    1.035082
     24          1           0       -2.058089   -3.784990   -0.534411
     25          6           0       -3.082286    0.831918   -0.443723
     26          6           0       -3.709166    1.941456    0.401221
     27          6           0       -3.677493    3.303103   -0.293550
     28          1           0       -2.042934    1.101310   -0.677330
     29          1           0       -3.611846    0.767524   -1.404121
     30          1           0       -3.178175    2.003089    1.359796
     31          1           0       -4.746598    1.669406    0.634329
     32          1           0       -4.223997    3.264747   -1.241424
     33          1           0       -2.646663    3.600326   -0.511834
     34          1           0       -4.130651    4.081624    0.328069
 ---------------------------------------------------------------------

 SCF Done:  E(RHF) =  -669.534435516     A.U. after   15 cycles
 E2 =    -0.2093792163D+01 EUMP2 =    -0.67162822767813D+03

 The electronic state is 1-A.
 Alpha  occ. eigenvalues --  -20.60813 -20.60808 -15.85870 -11.31241 -11.27847
 Alpha  occ. eigenvalues --  -11.27838 -11.27505 -11.26827 -11.26809 -11.22192
 Alpha  occ. eigenvalues --  -11.22129 -11.21892 -11.21826 -11.21677 -11.21167
 Alpha  occ. eigenvalues --   -1.59890  -1.39443  -1.19438  -1.08937  -1.08767
 Alpha  occ. eigenvalues --   -1.04839  -1.04026  -0.96521  -0.95637  -0.87520
 Alpha  occ. eigenvalues --   -0.86233  -0.82481  -0.80093  -0.78645  -0.77528
 Alpha  occ. eigenvalues --   -0.72086  -0.71216  -0.70575  -0.65531  -0.65081
 Alpha  occ. eigenvalues --   -0.64824  -0.62185  -0.61449  -0.59922  -0.58087
 Alpha  occ. eigenvalues --   -0.56039  -0.55061  -0.53220  -0.53148  -0.52922
 Alpha  occ. eigenvalues --   -0.52908  -0.50415  -0.48844  -0.48840  -0.48398
 Alpha  occ. eigenvalues --   -0.47112  -0.46200  -0.46085  -0.44847  -0.44255
 Alpha  occ. eigenvalues --   -0.37310  -0.36453
 Alpha virt. eigenvalues --    0.05001   0.11089   0.16442   0.20051   0.22859
 Alpha virt. eigenvalues --    0.24271   0.25472   0.26583   0.26647   0.27815
 Alpha virt. eigenvalues --    0.29734   0.30278   0.31127   0.31204   0.31997

 Mulliken charges:
               1
     1  C   -0.170971
     2  C   -0.220498
     3  C   -0.170515
     4  C    0.157676
     5  C   -0.170896
     6  C   -0.220462
     7  H    0.233599
     8  H    0.224230
     9  H    0.276020
    10  H    0.275842
    11  H    0.223501
    12  N    0.488118
    13  O   -0.460473
    14  O   -0.460272
    15  C   -0.296819
    16  C   -0.306859
    17  C   -0.479771
    18  H    0.146163
    19  H    0.150115
    20  H    0.160152
    21  H    0.153776
    22  H    0.162191
    23  H    0.146040
    24  H    0.154894
    25  C   -0.299427
    26  C   -0.299812
    27  C   -0.476381
    28  H    0.152791
    29  H    0.150244
    30  H    0.151511
    31  H    0.151565
    32  H    0.155227
    33  H    0.158200
    34  H    0.161302
 Sum of Mulliken charges =  -0.00000

 Dipole moment (field-independent basis, Debye):
    X=             -2.9001    Y=             -4.2462    Z=              0.3860  Tot=              5.1566
 Quadrupole moment (field-independent basis, Debye-Ang):
   XX=           -109.0770   YY=            -96.9792   ZZ=            -90.3237
   XY=            -11.6424   XZ=              0.1989   YZ=              1.6010

 Normal termination of Gaussian 16 at Thu May  6 09:22:07 2021.
