 Gaussian 16, Revision A.03,
 Gaussian 16:  EM64L-G16RevA.03 25-Dec-2016

 -------------
 #p 6-31g* mp2
 -------------

 ------------------------------------------------------
 Input file generated by CHIRIPA (05-May-2021 14:57:21)
 ------------------------------------------------------
 Symbolic Z-matrix:
 Charge =  0 Multiplicity = 1

                         Standard orientation:
 ---------------------------------------------------------------------
 Center     Atomic      Atomic             Coordinates (Angstroms)
 Number     Number       Type             X           Y           Z
 ---------------------------------------------------------------------
      1          6           0        6.160583    0.254670   -0.509634
      2          6           0        5.432315    1.330781    0.008182
      3          6           0        4.079450    1.183881    0.328690
      4          6           0        3.483919   -0.058742    0.117689
      5          6           0        4.182706   -1.149813   -0.396657
      6          6           0        5.534558   -0.980015   -0.710048
      7          1           0        7.211127    0.377680   -0.755847
      8          1           0        5.915886    2.290807    0.164873
      9          1           0        3.491997    2.000279    0.730948
     10          1           0        3.673181   -2.094657   -0.541820
     11          1           0        6.097662   -1.817486   -1.112046
     12          7           0        2.052238   -0.226379    0.453229
     13          8           0        1.550773   -1.331396    0.258020
     14          8           0        1.458661    0.750419    0.905079
     15          6           0       -3.602803   -2.481707    0.132410
     16          6           0       -2.459640   -1.708054    0.358598
     17          6           0       -2.512860   -0.314979    0.253440
     18          6           0       -3.731196    0.274044   -0.081220
     19          6           0       -4.887447   -0.469493   -0.312578
     20          6           0       -4.810927   -1.861052   -0.201867
     21          1           0       -3.552410   -3.563293    0.216257
     22          1           0       -1.520039   -2.187349    0.618350
     23          1           0       -1.643117    0.308022    0.423251
     24          1           0       -5.809809    0.036896   -0.569942
     25          1           0       -5.700322   -2.459359   -0.378082
     26          7           0       -3.799871    1.748027   -0.195486
     27          8           0       -4.885282    2.242808   -0.491648
     28          8           0       -2.766987    2.380645    0.013278
 ---------------------------------------------------------------------

 SCF Done:  E(RHF) =  -868.341499473     A.U. after   16 cycles
 E2 =    -0.2599073539D+01 EUMP2 =    -0.87094057301204D+03

 The electronic state is 1-A.
 Alpha  occ. eigenvalues --  -20.61688 -20.61619 -20.59622 -20.59592 -15.86619
 Alpha  occ. eigenvalues --  -15.84651 -11.31657 -11.29820 -11.28207 -11.28149
 Alpha  occ. eigenvalues --  -11.27875 -11.27141 -11.27101 -11.26488 -11.26157
 Alpha  occ. eigenvalues --  -11.26129 -11.25512 -11.25149  -1.60683  -1.58693
 Alpha  occ. eigenvalues --   -1.40241  -1.38246  -1.19797  -1.17990  -1.09260
 Alpha  occ. eigenvalues --   -1.07448  -1.05147  -1.03321  -0.96147  -0.94300
 Alpha  occ. eigenvalues --   -0.86562  -0.84750  -0.82989  -0.81105  -0.78070
 Alpha  occ. eigenvalues --   -0.76154  -0.72851  -0.71955  -0.70903  -0.70876
 Alpha  occ. eigenvalues --   -0.70016  -0.69118  -0.65454  -0.65150  -0.63630
 Alpha  occ. eigenvalues --   -0.63302  -0.62494  -0.60627  -0.55670  -0.53915
 Alpha  occ. eigenvalues --   -0.53495  -0.53235  -0.51734  -0.51380  -0.49629
 Alpha  occ. eigenvalues --   -0.49588  -0.47641  -0.47613  -0.45706  -0.43694
 Alpha  occ. eigenvalues --   -0.37760  -0.36732  -0.36037  -0.34932
 Alpha virt. eigenvalues --    0.04438   0.06307   0.10928   0.12696   0.15998
 Alpha virt. eigenvalues --    0.17823   0.21076   0.22907   0.27029   0.27910
 Alpha virt. eigenvalues --    0.28974   0.29758   0.30735   0.32053   0.32428

 Mulliken charges:
               1
     1  C   -0.169538
     2  C   -0.218714
     3  C   -0.169515
     4  C    0.157825
     5  C   -0.170318
     6  C   -0.218686
     7  H    0.227530
     8  H    0.226178
     9  H    0.279385
    10  H    0.274190
    11  H    0.224461
    12  N    0.490893
    13  O   -0.470533
    14  O   -0.456008
    15  C   -0.172456
    16  C   -0.225675
    17  C   -0.179172
    18  C    0.156477
    19  C   -0.173294
    20  C   -0.219662
    21  H    0.220618
    22  H    0.240760
    23  H    0.294590
    24  H    0.270575
    25  H    0.217523
    26  N    0.487354
    27  O   -0.466833
    28  O   -0.457955
 Sum of Mulliken charges =  -0.00000

 Dipole moment (field-independent basis, Debye):
    X=              6.0501    Y=             -4.4735    Z=             -0.6969  Tot=              7.5565
 Quadrupole moment (field-independent basis, Debye-Ang):
   XX=            -68.5703   YY=           -104.1468   ZZ=           -106.1056
   XY=             21.6631   XZ=             -4.2366   YZ=              2.4735

 Normal termination of Gaussian 16 at Thu May  6 08:05:51 2021.
