 Gaussian 16, Revision A.03,
 Gaussian 16:  EM64L-G16RevA.03 25-Dec-2016

 -------------
 #p 6-31g* mp2
 -------------

 ------------------------------------------------------
 Input file generated by CHIRIPA (05-May-2021 14:57:25)
 ------------------------------------------------------
 Symbolic Z-matrix:
 Charge =  0 Multiplicity = 1

                         Standard orientation:
 ---------------------------------------------------------------------
 Center     Atomic      Atomic             Coordinates (Angstroms)
 Number     Number       Type             X           Y           Z
 ---------------------------------------------------------------------
      1          6           0       -5.370900    0.363105    0.929604
      2          6           0       -5.183298   -0.945887    0.473681
      3          6           0       -3.990410   -1.314538   -0.155335
      4          6           0       -3.001793   -0.344386   -0.312602
      5          6           0       -3.158773    0.967877    0.130807
      6          6           0       -4.359821    1.314133    0.757016
      7          1           0       -6.300734    0.640784    1.417148
      8          1           0       -5.966781   -1.686560    0.606357
      9          1           0       -3.818763   -2.320785   -0.517858
     10          1           0       -2.359488    1.684173   -0.015764
     11          1           0       -4.502747    2.331461    1.110089
     12          7           0       -1.734616   -0.722806   -0.977028
     13          8           0       -0.879068    0.150509   -1.103496
     14          8           0       -1.620945   -1.885562   -1.358755
     15          6           0        1.693291    2.242644   -0.265439
     16          6           0        2.665226    1.870674   -1.200053
     17          6           0        3.511425    0.786025   -0.950994
     18          6           0        3.357330    0.092472    0.248394
     19          6           0        2.398580    0.438648    1.199313
     20          6           0        1.563300    1.526706    0.929156
     21          1           0        1.040185    3.086550   -0.467110
     22          1           0        2.768453    2.424855   -2.128641
     23          1           0        4.272345    0.476506   -1.657121
     24          1           0        2.319633   -0.133037    2.116026
     25          1           0        0.809372    1.813323    1.656815
     26          7           0        4.247384   -1.057602    0.523230
     27          8           0        4.091401   -1.652370    1.587447
     28          8           0        5.084136   -1.342485   -0.330776
 ---------------------------------------------------------------------

 SCF Done:  E(RHF) =  -868.336887289     A.U. after   16 cycles
 E2 =    -0.2600770312D+01 EUMP2 =    -0.87093765760123D+03

 The electronic state is 1-A.
 Alpha  occ. eigenvalues --  -20.61211 -20.61202 -20.59869 -20.59862 -15.86246
 Alpha  occ. eigenvalues --  -15.84919 -11.31690 -11.30118 -11.28329 -11.28206
 Alpha  occ. eigenvalues --  -11.27974 -11.27310 -11.27231 -11.26727 -11.26692
 Alpha  occ. eigenvalues --  -11.26480 -11.25764 -11.25682  -1.60278  -1.58944
 Alpha  occ. eigenvalues --   -1.39834  -1.38505  -1.19857  -1.18279  -1.09232
 Alpha  occ. eigenvalues --   -1.07722  -1.05273  -1.03701  -0.96062  -0.94592
 Alpha  occ. eigenvalues --   -0.86664  -0.85134  -0.82897  -0.81455  -0.77948
 Alpha  occ. eigenvalues --   -0.76511  -0.72482  -0.71605  -0.71155  -0.70960
 Alpha  occ. eigenvalues --   -0.70252  -0.69482  -0.65509  -0.65271  -0.63985
 Alpha  occ. eigenvalues --   -0.63782  -0.62629  -0.61101  -0.55748  -0.54278
 Alpha  occ. eigenvalues --   -0.53593  -0.53365  -0.51954  -0.51862  -0.49248
 Alpha  occ. eigenvalues --   -0.49208  -0.47910  -0.47896  -0.45220  -0.43950
 Alpha  occ. eigenvalues --   -0.37826  -0.36880  -0.36162  -0.35237
 Alpha virt. eigenvalues --    0.04586   0.06061   0.10766   0.12380   0.16101
 Alpha virt. eigenvalues --    0.17585   0.20555   0.22111   0.26419   0.27385
 Alpha virt. eigenvalues --    0.28314   0.29056   0.30821   0.31656   0.32230

 Mulliken charges:
               1
     1  C   -0.170770
     2  C   -0.218000
     3  C   -0.170430
     4  C    0.159271
     5  C   -0.172019
     6  C   -0.217957
     7  H    0.227101
     8  H    0.225690
     9  H    0.278011
    10  H    0.267077
    11  H    0.222593
    12  N    0.490537
    13  O   -0.464616
    14  O   -0.456293
    15  C   -0.154845
    16  C   -0.214262
    17  C   -0.168339
    18  C    0.160720
    19  C   -0.169930
    20  C   -0.208566
    21  H    0.216876
    22  H    0.219792
    23  H    0.272968
    24  H    0.270921
    25  H    0.212243
    26  N    0.488511
    27  O   -0.463859
    28  O   -0.462425
 Sum of Mulliken charges =  -0.00000

 Dipole moment (field-independent basis, Debye):
    X=             -7.8384    Y=              5.2567    Z=              1.2239  Tot=              9.5169
 Quadrupole moment (field-independent basis, Debye-Ang):
   XX=            -98.7113   YY=           -101.5216   ZZ=           -104.0078
   XY=             13.3954   XZ=            -12.2792   YZ=             -0.4391

 Normal termination of Gaussian 16 at Fri May  7 09:37:28 2021.
