 Gaussian 16, Revision A.03,
 Gaussian 16:  EM64L-G16RevA.03 25-Dec-2016

 -------------
 #p 6-31g* mp2
 -------------

 ------------------------------------------------------
 Input file generated by CHIRIPA (05-May-2021 14:53:16)
 ------------------------------------------------------
 Symbolic Z-matrix:
 Charge =  0 Multiplicity = 1

                         Standard orientation:
 ---------------------------------------------------------------------
 Center     Atomic      Atomic             Coordinates (Angstroms)
 Number     Number       Type             X           Y           Z
 ---------------------------------------------------------------------
      1          6           0       -3.515078    0.356666   -0.076857
      2          6           0       -3.961386   -0.938046   -0.756944
      3          6           0       -5.279100   -1.475584   -0.197950
      4          1           0       -3.412128    0.179750    1.002516
      5          1           0       -4.301361    1.114972   -0.195710
      6          1           0       -3.173903   -1.693260   -0.638036
      7          1           0       -4.063100   -0.758077   -1.834850
      8          1           0       -6.081381   -0.742529   -0.330530
      9          1           0       -5.187132   -1.683026    0.873083
     10          1           0       -5.579473   -2.401492   -0.698281
     11          6           0       -2.199325    0.906416   -0.624851
     12          6           0       -1.753018    2.201128    0.055236
     13          6           0       -0.435303    2.738666   -0.503758
     14          1           0       -1.413042    0.148110   -0.505998
     15          1           0       -2.302276    1.083332   -1.704224
     16          1           0       -1.651303    2.021159    1.133142
     17          1           0       -2.540500    2.956342   -0.063672
     18          1           0       -0.527272    2.946108   -1.574791
     19          1           0        0.366977    2.005611   -0.371178
     20          1           0       -0.134931    3.664574   -0.003427
     21          6           0        0.133384   -0.844485    1.629713
     22          6           0        0.959431    0.253830    1.890236
     23          6           0        2.124762    0.458284    1.145422
     24          6           0        2.435093   -0.459449    0.143050
     25          6           0        1.632419   -1.563368   -0.140437
     26          6           0        0.471918   -1.747986    0.616994
     27          1           0       -0.769998   -0.995605    2.213203
     28          1           0        0.699013    0.957126    2.676114
     29          1           0        2.782202    1.300057    1.326001
     30          1           0        1.918288   -2.247342   -0.930296
     31          1           0       -0.167719   -2.601844    0.412456
     32          7           0        3.666221   -0.253502   -0.652131
     33          8           0        3.917443   -1.076469   -1.529770
     34          8           0        4.356646    0.726985   -0.382696
 ---------------------------------------------------------------------

 SCF Done:  E(RHF) =  -669.532927540     A.U. after   15 cycles
 E2 =    -0.2096941099D+01 EUMP2 =    -0.67162986863901D+03

 The electronic state is 1-A.
 Alpha  occ. eigenvalues --  -20.60873 -20.60868 -15.85931 -11.31365 -11.27943
 Alpha  occ. eigenvalues --  -11.27919 -11.27673 -11.26947 -11.26920 -11.22266
 Alpha  occ. eigenvalues --  -11.21980 -11.21969 -11.21683 -11.21600 -11.21139
 Alpha  occ. eigenvalues --   -1.59949  -1.39500  -1.19573  -1.09034  -1.08817
 Alpha  occ. eigenvalues --   -1.04981  -1.03974  -0.96413  -0.95752  -0.87420
 Alpha  occ. eigenvalues --   -0.86356  -0.82578  -0.80070  -0.78716  -0.77615
 Alpha  occ. eigenvalues --   -0.72146  -0.71277  -0.70656  -0.65648  -0.65198
 Alpha  occ. eigenvalues --   -0.64916  -0.62311  -0.61460  -0.59788  -0.58028
 Alpha  occ. eigenvalues --   -0.55795  -0.55412  -0.53337  -0.53095  -0.53038
 Alpha  occ. eigenvalues --   -0.52812  -0.50394  -0.48913  -0.48897  -0.48345
 Alpha  occ. eigenvalues --   -0.47119  -0.46253  -0.46065  -0.44889  -0.44223
 Alpha  occ. eigenvalues --   -0.37443  -0.36465
 Alpha virt. eigenvalues --    0.04896   0.10894   0.16305   0.19487   0.23146
 Alpha virt. eigenvalues --    0.23636   0.25387   0.26077   0.27201   0.28363
 Alpha virt. eigenvalues --    0.29408   0.30171   0.30947   0.31323   0.31876

 Mulliken charges:
               1
     1  C   -0.297847
     2  C   -0.298547
     3  C   -0.475515
     4  H    0.140199
     5  H    0.152395
     6  H    0.143707
     7  H    0.156017
     8  H    0.157964
     9  H    0.152182
    10  H    0.161582
    11  C   -0.307607
    12  C   -0.296170
    13  C   -0.482704
    14  H    0.159380
    15  H    0.151507
    16  H    0.140127
    17  H    0.152834
    18  H    0.157449
    19  H    0.163895
    20  H    0.157175
    21  C   -0.170732
    22  C   -0.212343
    23  C   -0.177655
    24  C    0.161874
    25  C   -0.170177
    26  C   -0.220507
    27  H    0.227939
    28  H    0.225336
    29  H    0.277305
    30  H    0.276801
    31  H    0.225502
    32  N    0.488196
    33  O   -0.459833
    34  O   -0.459728
 Sum of Mulliken charges =  -0.00000

 Dipole moment (field-independent basis, Debye):
    X=             -4.1972    Y=             -0.7820    Z=              2.7561  Tot=              5.0817
 Quadrupole moment (field-independent basis, Debye-Ang):
   XX=           -116.9586   YY=            -91.1135   ZZ=            -92.6400
   XY=              0.4838   XZ=              7.7949   YZ=              0.8238

 Normal termination of Gaussian 16 at Thu May  6 05:57:30 2021.
