 Gaussian 16, Revision A.03,
 Gaussian 16:  EM64L-G16RevA.03 25-Dec-2016

 -------------
 #p 6-31g* mp2
 -------------

 ------------------------------------------------------
 Input file generated by CHIRIPA (05-May-2021 14:55:22)
 ------------------------------------------------------
 Symbolic Z-matrix:
 Charge =  0 Multiplicity = 1

                         Standard orientation:
 ---------------------------------------------------------------------
 Center     Atomic      Atomic             Coordinates (Angstroms)
 Number     Number       Type             X           Y           Z
 ---------------------------------------------------------------------
      1          6           0       -0.795660   -1.544623    0.725926
      2          6           0       -1.231395   -1.513769   -0.602872
      3          6           0       -2.335043   -0.738225   -0.970351
      4          6           0       -2.982366   -0.002578    0.021155
      5          6           0       -2.572293   -0.012596    1.353458
      6          6           0       -1.466317   -0.795259    1.698136
      7          1           0        0.062585   -2.149849    1.002536
      8          1           0       -0.712483   -2.094721   -1.360019
      9          1           0       -2.693605   -0.696054   -1.991661
     10          1           0       -3.109909    0.577210    2.085931
     11          1           0       -1.130145   -0.817304    2.730874
     12          7           0       -4.151981    0.822225   -0.355809
     13          8           0       -4.705102    1.461311    0.536527
     14          8           0       -4.493458    0.814000   -1.536471
     15          6           0        3.813590   -0.529665   -0.263551
     16          6           0        2.761810   -1.606139    0.006534
     17          6           0        3.262647   -3.015155   -0.312259
     18          1           0        4.120140   -0.581731   -1.317241
     19          1           0        4.710321   -0.744976    0.333868
     20          1           0        1.866814   -1.388094   -0.590169
     21          1           0        2.457589   -1.551378    1.059656
     22          1           0        4.142239   -3.257457    0.292893
     23          1           0        3.548107   -3.093244   -1.366306
     24          1           0        2.494904   -3.769017   -0.111953
     25          6           0        3.327784    0.884263    0.050345
     26          6           0        4.379563    1.960737   -0.219740
     27          6           0        3.878726    3.369754    0.099052
     28          1           0        2.431052    1.099574   -0.547074
     29          1           0        3.021234    0.936330    1.104034
     30          1           0        4.683784    1.905976   -1.272862
     31          1           0        5.274559    1.742692    0.376962
     32          1           0        3.593266    3.447842    1.153099
     33          1           0        2.999134    3.612055   -0.506100
     34          1           0        4.646469    4.123615   -0.101253
 ---------------------------------------------------------------------

 SCF Done:  E(RHF) =  -669.534415364     A.U. after   15 cycles
 E2 =    -0.2092628629D+01 EUMP2 =    -0.67162704399281D+03

 The electronic state is 1-A.
 Alpha  occ. eigenvalues --  -20.60725 -20.60719 -15.85780 -11.31125 -11.27722
 Alpha  occ. eigenvalues --  -11.27718 -11.27373 -11.26700 -11.26685 -11.22721
 Alpha  occ. eigenvalues --  -11.22184 -11.22175 -11.22065 -11.21964 -11.21410
 Alpha  occ. eigenvalues --   -1.59802  -1.39356  -1.19309  -1.09197  -1.08692
 Alpha  occ. eigenvalues --   -1.04717  -1.04300  -0.96715  -0.95536  -0.87727
 Alpha  occ. eigenvalues --   -0.86114  -0.82388  -0.80428  -0.78962  -0.77424
 Alpha  occ. eigenvalues --   -0.71998  -0.71126  -0.70405  -0.65829  -0.64956
 Alpha  occ. eigenvalues --   -0.64727  -0.62087  -0.61669  -0.60156  -0.58345
 Alpha  occ. eigenvalues --   -0.55974  -0.55169  -0.53439  -0.53174  -0.53003
 Alpha  occ. eigenvalues --   -0.52805  -0.50646  -0.48769  -0.48755  -0.48654
 Alpha  occ. eigenvalues --   -0.47446  -0.46482  -0.46382  -0.44766  -0.44525
 Alpha  occ. eigenvalues --   -0.37218  -0.36324
 Alpha virt. eigenvalues --    0.05114   0.11198   0.16586   0.19899   0.22488
 Alpha virt. eigenvalues --    0.23938   0.25171   0.26133   0.26935   0.27437
 Alpha virt. eigenvalues --    0.29291   0.29909   0.30660   0.31493   0.31771

 Mulliken charges:
               1
     1  C   -0.168298
     2  C   -0.222792
     3  C   -0.171252
     4  C    0.157691
     5  C   -0.170342
     6  C   -0.221323
     7  H    0.234252
     8  H    0.223030
     9  H    0.275282
    10  H    0.275383
    11  H    0.222844
    12  N    0.488163
    13  O   -0.460664
    14  O   -0.460810
    15  C   -0.297643
    16  C   -0.308020
    17  C   -0.477667
    18  H    0.152083
    19  H    0.151634
    20  H    0.153235
    21  H    0.145677
    22  H    0.160397
    23  H    0.159518
    24  H    0.154536
    25  C   -0.299051
    26  C   -0.300360
    27  C   -0.476167
    28  H    0.152478
    29  H    0.148483
    30  H    0.152986
    31  H    0.152269
    32  H    0.155223
    33  H    0.157277
    34  H    0.161947
 Sum of Mulliken charges =  -0.00000

 Dipole moment (field-independent basis, Debye):
    X=              4.3049    Y=             -2.8282    Z=              1.3014  Tot=              5.3127
 Quadrupole moment (field-independent basis, Debye-Ang):
   XX=           -119.5600   YY=            -96.1172   ZZ=            -89.3491
   XY=              8.8147   XZ=             -4.2094   YZ=              1.2870

 Normal termination of Gaussian 16 at Thu May  6 03:02:44 2021.
