 Gaussian 16, Revision A.03,
 Gaussian 16:  EM64L-G16RevA.03 25-Dec-2016

 -------------
 #p 6-31g* mp2
 -------------

 ------------------------------------------------------
 Input file generated by CHIRIPA (05-May-2021 14:57:23)
 ------------------------------------------------------
 Symbolic Z-matrix:
 Charge =  0 Multiplicity = 1

                         Standard orientation:
 ---------------------------------------------------------------------
 Center     Atomic      Atomic             Coordinates (Angstroms)
 Number     Number       Type             X           Y           Z
 ---------------------------------------------------------------------
      1          6           0       -2.135389    2.460858    0.626968
      2          6           0       -1.977539    1.514145    1.644484
      3          6           0       -2.130481    0.150726    1.375700
      4          6           0       -2.442720   -0.232494    0.072267
      5          6           0       -2.606348    0.686673   -0.962938
      6          6           0       -2.448737    2.044833   -0.671207
      7          1           0       -2.014767    3.517952    0.844678
      8          1           0       -1.734185    1.834342    2.653591
      9          1           0       -2.013889   -0.603423    2.144520
     10          1           0       -2.848894    0.337004   -1.959091
     11          1           0       -2.571914    2.777837   -1.463406
     12          7           0       -2.607104   -1.673102   -0.224429
     13          8           0       -2.882223   -1.984986   -1.381008
     14          8           0       -2.457717   -2.463087    0.705217
     15          6           0        2.788232   -2.475842    0.227702
     16          6           0        1.520637   -2.002208   -0.126411
     17          6           0        1.302647   -0.635215   -0.322262
     18          6           0        2.379606    0.233943   -0.154893
     19          6           0        3.654159   -0.207233    0.197483
     20          6           0        3.849077   -1.578425    0.388235
     21          1           0        2.948611   -3.539387    0.377863
     22          1           0        0.694920   -2.696845   -0.251770
     23          1           0        0.331568   -0.241439   -0.596788
     24          1           0        4.457770    0.509543    0.315209
     25          1           0        4.834582   -1.943414    0.663203
     26          7           0        2.161042    1.683340   -0.359533
     27          8           0        3.126312    2.428532   -0.205970
     28          8           0        1.028600    2.046741   -0.669619
 ---------------------------------------------------------------------

 SCF Done:  E(RHF) =  -868.339168671     A.U. after   16 cycles
 E2 =    -0.2603286268D+01 EUMP2 =    -0.87094245493924D+03

 The electronic state is 1-A.
 Alpha  occ. eigenvalues --  -20.61194 -20.61182 -20.60916 -20.60908 -15.86212
 Alpha  occ. eigenvalues --  -15.85938 -11.31112 -11.31035 -11.27660 -11.27607
 Alpha  occ. eigenvalues --  -11.27599 -11.27461 -11.27220 -11.27159 -11.26562
 Alpha  occ. eigenvalues --  -11.26504 -11.26415 -11.26376  -1.60293  -1.59994
 Alpha  occ. eigenvalues --   -1.39843  -1.39553  -1.19266  -1.19167  -1.08698
 Alpha  occ. eigenvalues --   -1.08608  -1.04563  -1.04523  -0.95607  -0.95504
 Alpha  occ. eigenvalues --   -0.85975  -0.85927  -0.82456  -0.82342  -0.77582
 Alpha  occ. eigenvalues --   -0.77439  -0.72418  -0.72209  -0.71673  -0.71310
 Alpha  occ. eigenvalues --   -0.70291  -0.70245  -0.64871  -0.64816  -0.64542
 Alpha  occ. eigenvalues --   -0.64501  -0.61925  -0.61887  -0.55053  -0.54993
 Alpha  occ. eigenvalues --   -0.53192  -0.52879  -0.52632  -0.52236  -0.49208
 Alpha  occ. eigenvalues --   -0.49145  -0.48940  -0.48919  -0.45325  -0.45023
 Alpha  occ. eigenvalues --   -0.37217  -0.37001  -0.36330  -0.35887
 Alpha virt. eigenvalues --    0.04809   0.05112   0.11284   0.11744   0.16437
 Alpha virt. eigenvalues --    0.16727   0.21669   0.21810   0.27334   0.27630
 Alpha virt. eigenvalues --    0.28491   0.28656   0.31271   0.31557   0.32505

 Mulliken charges:
               1
     1  C   -0.153594
     2  C   -0.217324
     3  C   -0.174767
     4  C    0.141726
     5  C   -0.178405
     6  C   -0.202027
     7  H    0.230917
     8  H    0.223775
     9  H    0.272745
    10  H    0.274413
    11  H    0.227392
    12  N    0.486206
    13  O   -0.460237
    14  O   -0.465365
    15  C   -0.170803
    16  C   -0.225623
    17  C   -0.177885
    18  C    0.154429
    19  C   -0.171788
    20  C   -0.219337
    21  H    0.227953
    22  H    0.239010
    23  H    0.282831
    24  H    0.273468
    25  H    0.222534
    26  N    0.489182
    27  O   -0.462333
    28  O   -0.467094
 Sum of Mulliken charges =  -0.00000

 Dipole moment (field-independent basis, Debye):
    X=              1.2246    Y=              0.2934    Z=              1.7588  Tot=              2.1631
 Quadrupole moment (field-independent basis, Debye-Ang):
   XX=           -100.3702   YY=           -109.2917   ZZ=           -100.9765
   XY=            -25.2630   XZ=              1.4505   YZ=              0.1869

 Normal termination of Gaussian 16 at Wed May  5 21:02:19 2021.
