 Gaussian 16, Revision A.03,
 Gaussian 16:  EM64L-G16RevA.03 25-Dec-2016

 -------------
 #p 6-31g* mp2
 -------------

 ------------------------------------------------------
 Input file generated by CHIRIPA (05-May-2021 14:55:22)
 ------------------------------------------------------
 Symbolic Z-matrix:
 Charge =  0 Multiplicity = 1

                         Standard orientation:
 ---------------------------------------------------------------------
 Center     Atomic      Atomic             Coordinates (Angstroms)
 Number     Number       Type             X           Y           Z
 ---------------------------------------------------------------------
      1          6           0        1.695568    2.485553    1.041090
      2          6           0        2.500197    2.579724   -0.099184
      3          6           0        3.043815    1.430803   -0.681427
      4          6           0        2.761032    0.198348   -0.094590
      5          6           0        1.963038    0.071885    1.041412
      6          6           0        1.430025    1.234140    1.606752
      7          1           0        1.277392    3.383241    1.486825
      8          1           0        2.708107    3.550260   -0.540635
      9          1           0        3.669977    1.474909   -1.564260
     10          1           0        1.773535   -0.909587    1.458809
     11          1           0        0.805479    1.157986    2.492296
     12          7           0        3.330923   -1.025022   -0.702038
     13          8           0        3.066803   -2.099002   -0.165899
     14          8           0        4.030931   -0.886754   -1.702791
     15          6           0       -3.137682   -1.164693    0.277685
     16          6           0       -1.612415   -1.182600    0.383626
     17          6           0       -1.074894   -2.494996    0.955014
     18          1           0       -3.570049   -1.337379    1.272765
     19          1           0       -3.464211   -2.001959   -0.354581
     20          1           0       -1.288774   -0.344729    1.014376
     21          1           0       -1.183630   -1.009660   -0.611788
     22          1           0       -1.369316   -3.339383    0.323406
     23          1           0       -1.475057   -2.670674    1.958810
     24          1           0        0.017485   -2.486135    1.022020
     25          6           0       -3.690113    0.140760   -0.291828
     26          6           0       -5.215379    0.158667   -0.397770
     27          6           0       -5.752901    1.471063   -0.969156
     28          1           0       -3.363584    0.978026    0.340439
     29          1           0       -3.257747    0.313446   -1.286907
     30          1           0       -5.644165   -0.014272    0.597645
     31          1           0       -5.539021   -0.679203   -1.028519
     32          1           0       -5.352738    1.646741   -1.972953
     33          1           0       -5.458479    2.315450   -0.337549
     34          1           0       -6.845279    1.462201   -1.036163
 ---------------------------------------------------------------------

 SCF Done:  E(RHF) =  -669.535237889     A.U. after   15 cycles
 E2 =    -0.2092736728D+01 EUMP2 =    -0.67162797461684D+03

 The electronic state is 1-A.
 Alpha  occ. eigenvalues --  -20.60823 -20.60818 -15.85866 -11.31207 -11.27783
 Alpha  occ. eigenvalues --  -11.27771 -11.27525 -11.26794 -11.26784 -11.21797
 Alpha  occ. eigenvalues --  -11.21758 -11.21609 -11.21531 -11.21284 -11.21125
 Alpha  occ. eigenvalues --   -1.59891  -1.39446  -1.19387  -1.08785  -1.08619
 Alpha  occ. eigenvalues --   -1.04795  -1.03702  -0.96154  -0.95619  -0.87162
 Alpha  occ. eigenvalues --   -0.86188  -0.82459  -0.79763  -0.78438  -0.77509
 Alpha  occ. eigenvalues --   -0.72087  -0.71209  -0.70509  -0.65263  -0.65037
 Alpha  occ. eigenvalues --   -0.64808  -0.62210  -0.61094  -0.59494  -0.57763
 Alpha  occ. eigenvalues --   -0.55435  -0.55288  -0.53121  -0.53044  -0.52729
 Alpha  occ. eigenvalues --   -0.52467  -0.50082  -0.48846  -0.48842  -0.48071
 Alpha  occ. eigenvalues --   -0.46807  -0.45972  -0.45908  -0.44852  -0.43948
 Alpha  occ. eigenvalues --   -0.37363  -0.36337
 Alpha virt. eigenvalues --    0.04992   0.11178   0.16424   0.20543   0.22822
 Alpha virt. eigenvalues --    0.24001   0.26167   0.26549   0.27043   0.28015
 Alpha virt. eigenvalues --    0.29030   0.29613   0.31399   0.31575   0.31952

 Mulliken charges:
               1
     1  C   -0.171063
     2  C   -0.218569
     3  C   -0.170683
     4  C    0.156353
     5  C   -0.168022
     6  C   -0.219368
     7  H    0.225698
     8  H    0.223530
     9  H    0.275614
    10  H    0.280262
    11  H    0.223563
    12  N    0.488343
    13  O   -0.462047
    14  O   -0.459816
    15  C   -0.298568
    16  C   -0.300800
    17  C   -0.483837
    18  H    0.148278
    19  H    0.152085
    20  H    0.144246
    21  H    0.155781
    22  H    0.161405
    23  H    0.151783
    24  H    0.167028
    25  C   -0.297431
    26  C   -0.299760
    27  C   -0.475596
    28  H    0.145487
    29  H    0.150989
    30  H    0.151555
    31  H    0.153526
    32  H    0.155707
    33  H    0.153334
    34  H    0.160993
 Sum of Mulliken charges =  -0.00000

 Dipole moment (field-independent basis, Debye):
    X=             -1.9788    Y=              4.2712    Z=              2.0606  Tot=              5.1386
 Quadrupole moment (field-independent basis, Debye-Ang):
   XX=           -105.8627   YY=            -92.3497   ZZ=            -92.4090
   XY=             13.6108   XZ=              4.2159   YZ=             -1.3691

 Normal termination of Gaussian 16 at Thu May  6 14:15:02 2021.
