 Gaussian 16, Revision A.03,
 Gaussian 16:  EM64L-G16RevA.03 25-Dec-2016

 -------------
 #p 6-31g* mp2
 -------------

 ------------------------------------------------------
 Input file generated by CHIRIPA (05-May-2021 14:53:16)
 ------------------------------------------------------
 Symbolic Z-matrix:
 Charge =  0 Multiplicity = 1

                         Standard orientation:
 ---------------------------------------------------------------------
 Center     Atomic      Atomic             Coordinates (Angstroms)
 Number     Number       Type             X           Y           Z
 ---------------------------------------------------------------------
      1          6           0       -3.168550    0.377672    0.217987
      2          6           0       -4.154631   -0.223981   -0.783833
      3          6           0       -5.098701   -1.242947   -0.144902
      4          1           0       -2.582240   -0.430538    0.676225
      5          1           0       -3.730052    0.856737    1.031993
      6          1           0       -3.591443   -0.700568   -1.596422
      7          1           0       -4.738529    0.585772   -1.239880
      8          1           0       -5.685804   -0.776763    0.652960
      9          1           0       -4.532200   -2.070412    0.294393
     10          1           0       -5.795016   -1.660445   -0.878865
     11          6           0       -2.218092    1.398120   -0.405746
     12          6           0       -1.232011    1.999773    0.596074
     13          6           0       -0.287941    3.018739   -0.042857
     14          1           0       -1.656590    0.919055   -1.219752
     15          1           0       -2.804402    2.206330   -0.863984
     16          1           0       -0.648113    1.190020    1.052121
     17          1           0       -1.795200    2.476360    1.408663
     18          1           0       -0.854442    3.846203   -0.482152
     19          1           0        0.299162    2.552555   -0.840719
     20          1           0        0.408373    3.436237    0.691106
     21          6           0        0.651778   -2.711058    0.505379
     22          6           0        0.717973   -1.681072    1.449449
     23          6           0        1.519379   -0.558606    1.220606
     24          6           0        2.244568   -0.498635    0.031576
     25          6           0        2.199553   -1.508494   -0.928345
     26          6           0        1.391474   -2.621641   -0.678417
     27          1           0        0.026634   -3.579396    0.691340
     28          1           0        0.144606   -1.747822    2.369687
     29          1           0        1.589102    0.253194    1.934425
     30          1           0        2.782604   -1.413577   -1.836343
     31          1           0        1.342002   -3.420030   -1.413381
     32          7           0        3.096512    0.684736   -0.221850
     33          8           0        3.725704    0.713612   -1.277274
     34          8           0        3.118942    1.560978    0.639737
 ---------------------------------------------------------------------

 SCF Done:  E(RHF) =  -669.535094830     A.U. after   15 cycles
 E2 =    -0.2094200756D+01 EUMP2 =    -0.67162929558547D+03

 The electronic state is 1-A.
 Alpha  occ. eigenvalues --  -20.60879 -20.60863 -15.85916 -11.31303 -11.27884
 Alpha  occ. eigenvalues --  -11.27878 -11.27633 -11.26899 -11.26881 -11.21849
 Alpha  occ. eigenvalues --  -11.21579 -11.21450 -11.21421 -11.21363 -11.20592
 Alpha  occ. eigenvalues --   -1.59938  -1.39491  -1.19494  -1.08874  -1.08510
 Alpha  occ. eigenvalues --   -1.04905  -1.03555  -0.95986  -0.95704  -0.86990
 Alpha  occ. eigenvalues --   -0.86290  -0.82539  -0.79641  -0.78337  -0.77574
 Alpha  occ. eigenvalues --   -0.72137  -0.71268  -0.70597  -0.65170  -0.65139
 Alpha  occ. eigenvalues --   -0.64887  -0.62259  -0.60964  -0.59370  -0.57589
 Alpha  occ. eigenvalues --   -0.55400  -0.55275  -0.53238  -0.52978  -0.52631
 Alpha  occ. eigenvalues --   -0.52406  -0.49938  -0.48897  -0.48890  -0.47942
 Alpha  occ. eigenvalues --   -0.46705  -0.45869  -0.45788  -0.44872  -0.43779
 Alpha  occ. eigenvalues --   -0.37460  -0.36406
 Alpha virt. eigenvalues --    0.04914   0.11057   0.16348   0.20949   0.22811
 Alpha virt. eigenvalues --    0.24102   0.26023   0.26897   0.27339   0.28259
 Alpha virt. eigenvalues --    0.28449   0.30980   0.31348   0.31545   0.31903

 Mulliken charges:
               1
     1  C   -0.298083
     2  C   -0.299550
     3  C   -0.474874
     4  H    0.144106
     5  H    0.149081
     6  H    0.151148
     7  H    0.153835
     8  H    0.156040
     9  H    0.150196
    10  H    0.160846
    11  C   -0.296607
    12  C   -0.305488
    13  C   -0.475434
    14  H    0.149740
    15  H    0.150683
    16  H    0.148372
    17  H    0.149600
    18  H    0.153226
    19  H    0.154825
    20  H    0.171214
    21  C   -0.170980
    22  C   -0.217833
    23  C   -0.171523
    24  C    0.158600
    25  C   -0.171293
    26  C   -0.218596
    27  H    0.226396
    28  H    0.225080
    29  H    0.277476
    30  H    0.276154
    31  H    0.224033
    32  N    0.488684
    33  O   -0.459956
    34  O   -0.459118
 Sum of Mulliken charges =  -0.00000

 Dipole moment (field-independent basis, Debye):
    X=             -2.8409    Y=             -4.1232    Z=              0.8694  Tot=              5.0821
 Quadrupole moment (field-independent basis, Debye-Ang):
   XX=           -108.8676   YY=            -90.1112   ZZ=            -91.0824
   XY=             -9.5543   XZ=              0.7399   YZ=              1.7892

 Normal termination of Gaussian 16 at Thu May  6 12:14:35 2021.
