 Gaussian 16, Revision A.03,
 Gaussian 16:  EM64L-G16RevA.03 25-Dec-2016

 -------------
 #p 6-31g* mp2
 -------------

 ------------------------------------------------------
 Input file generated by CHIRIPA (05-May-2021 14:51:13)
 ------------------------------------------------------
 Symbolic Z-matrix:
 Charge =  0 Multiplicity = 1

                         Standard orientation:
 ---------------------------------------------------------------------
 Center     Atomic      Atomic             Coordinates (Angstroms)
 Number     Number       Type             X           Y           Z
 ---------------------------------------------------------------------
      1          6           0       -3.803409    0.403005   -0.072057
      2          6           0       -3.801094   -1.112810   -0.272770
      3          6           0       -5.209085   -1.708579   -0.293117
      4          1           0       -4.317460    0.641055    0.869234
      5          1           0       -4.389140    0.871316   -0.875175
      6          1           0       -3.214386   -1.578017    0.529709
      7          1           0       -3.286820   -1.347292   -1.213598
      8          1           0       -5.800579   -1.271661   -1.104189
      9          1           0       -5.727733   -1.503697    0.649023
     10          1           0       -5.184034   -2.793166   -0.437702
     11          6           0       -2.403119    1.013255   -0.049473
     12          6           0       -2.405435    2.529069    0.151239
     13          6           0       -0.997444    3.124839    0.171587
     14          1           0       -1.817388    0.544944    0.753645
     15          1           0       -1.889068    0.775204   -0.990764
     16          1           0       -2.919708    2.763551    1.092067
     17          1           0       -2.992143    2.994276   -0.651240
     18          1           0       -0.478795    2.919956   -0.770554
     19          1           0       -0.405949    2.687921    0.982659
     20          1           0       -1.022494    4.209425    0.316171
     21          6           0        2.500320   -0.880119    0.497011
     22          6           0        1.486438   -1.787665   -0.200406
     23          6           0        0.285864   -2.122857    0.685066
     24          1           0        2.847152   -1.368297    1.418062
     25          1           0        1.999920    0.048464    0.804786
     26          1           0        1.988929   -2.713680   -0.508003
     27          1           0        1.142124   -1.297355   -1.120004
     28          1           0       -0.241024   -1.210078    0.981414
     29          1           0        0.610591   -2.634450    1.596892
     30          1           0       -0.426264   -2.772576    0.166801
     31          6           0        3.706208   -0.536139   -0.375480
     32          6           0        4.720090    0.371406    0.321936
     33          6           0        5.920664    0.706598   -0.563536
     34          1           0        4.206609   -1.464724   -0.683256
     35          1           0        3.359377   -0.047963   -1.296531
     36          1           0        5.064404   -0.118905    1.241534
     37          1           0        4.217600    1.297420    0.629534
     38          1           0        5.595937    1.218190   -1.475362
     39          1           0        6.447553   -0.206181   -0.859883
     40          1           0        6.632793    1.356317   -0.045270
 ---------------------------------------------------------------------

 SCF Done:  E(RHF) =  -470.733153833     A.U. after   11 cycles
 E2 =    -0.1583342309D+01 EUMP2 =    -0.47231649614139D+03

 The electronic state is 1-A.
 Alpha  occ. eigenvalues --  -11.21645 -11.21572 -11.21568 -11.21554 -11.21428
 Alpha  occ. eigenvalues --  -11.21371 -11.21365 -11.21311 -11.21143 -11.21055
 Alpha  occ. eigenvalues --  -11.21048 -11.20974  -1.08458  -1.08387  -1.03548
 Alpha  occ. eigenvalues --   -1.03487  -0.96012  -0.95930  -0.87021  -0.86956
 Alpha  occ. eigenvalues --   -0.79610  -0.79563  -0.78297  -0.78175  -0.65124
 Alpha  occ. eigenvalues --   -0.64989  -0.60949  -0.60886  -0.59407  -0.59268
 Alpha  occ. eigenvalues --   -0.57665  -0.57508  -0.55366  -0.55167  -0.52718
 Alpha  occ. eigenvalues --   -0.52616  -0.52481  -0.52308  -0.50012  -0.49841
 Alpha  occ. eigenvalues --   -0.47999  -0.47818  -0.46723  -0.46613  -0.45887
 Alpha  occ. eigenvalues --   -0.45769  -0.45713  -0.45372  -0.43807  -0.43730
 Alpha virt. eigenvalues --    0.21014   0.23131   0.23937   0.24135   0.25324
 Alpha virt. eigenvalues --    0.26502   0.26795   0.27693   0.28297   0.29620
 Alpha virt. eigenvalues --    0.30301   0.31261   0.31768   0.31792   0.32255

 Mulliken charges:
               1
     1  C   -0.298060
     2  C   -0.301885
     3  C   -0.475743
     4  H    0.149535
     5  H    0.149465
     6  H    0.155694
     7  H    0.151676
     8  H    0.154972
     9  H    0.155109
    10  H    0.160201
    11  C   -0.303663
    12  C   -0.299065
    13  C   -0.476202
    14  H    0.154625
    15  H    0.149586
    16  H    0.152131
    17  H    0.152202
    18  H    0.154935
    19  H    0.154696
    20  H    0.160778
    21  C   -0.298858
    22  C   -0.299234
    23  C   -0.482034
    24  H    0.149359
    25  H    0.149914
    26  H    0.151546
    27  H    0.151883
    28  H    0.161165
    29  H    0.153998
    30  H    0.161421
    31  C   -0.298162
    32  C   -0.299734
    33  C   -0.475673
    34  H    0.149382
    35  H    0.149595
    36  H    0.151772
    37  H    0.152251
    38  H    0.155166
    39  H    0.155067
    40  H    0.160188
 Sum of Mulliken charges =  -0.00000

 Dipole moment (field-independent basis, Debye):
    X=             -0.0286    Y=              0.0120    Z=              0.0030  Tot=              0.0311
 Quadrupole moment (field-independent basis, Debye-Ang):
   XX=            -86.3727   YY=            -84.5660   ZZ=            -83.8985
   XY=             -1.2596   XZ=              0.6256   YZ=             -0.2753

 Normal termination of Gaussian 16 at Wed May  5 19:59:08 2021.
