 Gaussian 16, Revision A.03,
 Gaussian 16:  EM64L-G16RevA.03 25-Dec-2016

 -------------
 #p 6-31g* mp2
 -------------

 ------------------------------------------------------
 Input file generated by CHIRIPA (05-May-2021 14:53:14)
 ------------------------------------------------------
 Symbolic Z-matrix:
 Charge =  0 Multiplicity = 1

                         Standard orientation:
 ---------------------------------------------------------------------
 Center     Atomic      Atomic             Coordinates (Angstroms)
 Number     Number       Type             X           Y           Z
 ---------------------------------------------------------------------
      1          6           0       -4.215289   -0.257162   -0.063373
      2          6           0       -3.305032    0.511364    0.895160
      3          6           0       -1.822429    0.214213    0.668477
      4          1           0       -4.033772   -1.334390    0.053149
      5          1           0       -3.943701   -0.004505   -1.097684
      6          1           0       -3.579170    0.258389    1.927375
      7          1           0       -3.488874    1.586879    0.776479
      8          1           0       -1.526960    0.483669   -0.350686
      9          1           0       -1.617769   -0.852369    0.806749
     10          1           0       -1.189804    0.774053    1.364339
     11          6           0       -5.700457    0.029381    0.150864
     12          6           0       -6.610714   -0.739145   -0.807668
     13          6           0       -8.093317   -0.441995   -0.580985
     14          1           0       -5.972044   -0.223276    1.185176
     15          1           0       -5.881974    1.106608    0.034343
     16          1           0       -6.426872   -1.814660   -0.688987
     17          1           0       -6.336576   -0.486171   -1.839883
     18          1           0       -8.297976    0.624587   -0.719258
     19          1           0       -8.388785   -0.711451    0.438177
     20          1           0       -8.725941   -1.001835   -1.276848
     21          6           0        2.152594    1.919430    0.199074
     22          6           0        3.232033    2.080775   -0.675741
     23          6           0        4.191437    1.073179   -0.813009
     24          6           0        4.039693   -0.087984   -0.056726
     25          6           0        2.975431   -0.278450    0.823251
     26          6           0        2.027958    0.742408    0.944463
     27          1           0        1.411940    2.707306    0.299471
     28          1           0        3.331376    2.993799   -1.255881
     29          1           0        5.036993    1.171868   -1.482870
     30          1           0        2.903265   -1.199838    1.388277
     31          1           0        1.190688    0.614357    1.624630
     32          7           0        5.049056   -1.161701   -0.193547
     33          8           0        4.892689   -2.175198    0.483955
     34          8           0        5.977449   -0.969451   -0.975700
 ---------------------------------------------------------------------

 SCF Done:  E(RHF) =  -669.535356911     A.U. after   15 cycles
 E2 =    -0.2090969489D+01 EUMP2 =    -0.67162632640016D+03

 The electronic state is 1-A.
 Alpha  occ. eigenvalues --  -20.60711 -20.60706 -15.85763 -11.31116 -11.27684
 Alpha  occ. eigenvalues --  -11.27665 -11.27416 -11.26703 -11.26647 -11.22353
 Alpha  occ. eigenvalues --  -11.22086 -11.21971 -11.21953 -11.21827 -11.21380
 Alpha  occ. eigenvalues --   -1.59787  -1.39341  -1.19284  -1.08982  -1.08682
 Alpha  occ. eigenvalues --   -1.04685  -1.04120  -0.96590  -0.95519  -0.87622
 Alpha  occ. eigenvalues --   -0.86078  -0.82351  -0.80191  -0.78758  -0.77401
 Alpha  occ. eigenvalues --   -0.71983  -0.71110  -0.70394  -0.65605  -0.64936
 Alpha  occ. eigenvalues --   -0.64721  -0.62073  -0.61509  -0.59970  -0.58179
 Alpha  occ. eigenvalues --   -0.55861  -0.55188  -0.53464  -0.53051  -0.52956
 Alpha  occ. eigenvalues --   -0.52623  -0.50512  -0.48740  -0.48738  -0.48499
 Alpha  occ. eigenvalues --   -0.47201  -0.46309  -0.46210  -0.44749  -0.44369
 Alpha  occ. eigenvalues --   -0.37258  -0.36276
 Alpha virt. eigenvalues --    0.05129   0.11320   0.16619   0.20338   0.22483
 Alpha virt. eigenvalues --    0.23860   0.25949   0.26144   0.26978   0.28013
 Alpha virt. eigenvalues --    0.28568   0.30259   0.30864   0.31462   0.31873

 Mulliken charges:
               1
     1  C   -0.299314
     2  C   -0.299622
     3  C   -0.477813
     4  H    0.151635
     5  H    0.150476
     6  H    0.153650
     7  H    0.151685
     8  H    0.158967
     9  H    0.159142
    10  H    0.148487
    11  C   -0.298678
    12  C   -0.300093
    13  C   -0.475989
    14  H    0.150302
    15  H    0.149659
    16  H    0.153035
    17  H    0.152447
    18  H    0.155244
    19  H    0.155668
    20  H    0.161566
    21  C   -0.172224
    22  C   -0.218684
    23  C   -0.171371
    24  C    0.158724
    25  C   -0.172463
    26  C   -0.218437
    27  H    0.225238
    28  H    0.222968
    29  H    0.275263
    30  H    0.275483
    31  H    0.228309
    32  N    0.488023
    33  O   -0.460586
    34  O   -0.460694
 Sum of Mulliken charges =  -0.00000

 Dipole moment (field-independent basis, Debye):
    X=             -3.7562    Y=              3.7421    Z=              0.4406  Tot=              5.3204
 Quadrupole moment (field-independent basis, Debye-Ang):
   XX=           -123.5464   YY=            -93.8211   ZZ=            -92.6803
   XY=             17.5569   XZ=              0.3109   YZ=             -3.0136

 Normal termination of Gaussian 16 at Thu May  6 20:21:26 2021.
