 Gaussian 16, Revision A.03,
 Gaussian 16:  EM64L-G16RevA.03 25-Dec-2016

 -------------
 #p 6-31g* mp2
 -------------

 ------------------------------------------------------
 Input file generated by CHIRIPA (05-May-2021 14:51:10)
 ------------------------------------------------------
 Symbolic Z-matrix:
 Charge =  0 Multiplicity = 1

                         Standard orientation:
 ---------------------------------------------------------------------
 Center     Atomic      Atomic             Coordinates (Angstroms)
 Number     Number       Type             X           Y           Z
 ---------------------------------------------------------------------
      1          6           0       -4.202988    0.028092    0.049053
      2          6           0       -5.550500   -0.591941   -0.322102
      3          6           0       -6.669033    0.445019   -0.428828
      4          1           0       -4.302692    0.561597    1.004237
      5          1           0       -3.934493    0.782246   -0.703647
      6          1           0       -5.815716   -1.345683    0.430327
      7          1           0       -5.447528   -1.124194   -1.276418
      8          1           0       -6.430435    1.191755   -1.193065
      9          1           0       -6.800715    0.969008    0.523378
     10          1           0       -7.623418   -0.019887   -0.695045
     11          6           0       -3.074792   -0.995966    0.159538
     12          6           0       -1.727280   -0.375933    0.530693
     13          6           0       -0.608747   -1.412893    0.637420
     14          1           0       -3.343287   -1.750120    0.912238
     15          1           0       -2.975088   -1.529471   -0.795645
     16          1           0       -1.830252    0.156320    1.485010
     17          1           0       -1.462064    0.377809   -0.221736
     18          1           0       -0.477065   -1.936882   -0.314787
     19          1           0       -0.847344   -2.159629    1.401657
     20          1           0        0.345638   -0.947987    0.903636
     21          6           0        3.404861    1.145057    0.198330
     22          6           0        2.088093    1.649982   -0.392567
     23          6           0        1.632953    2.973530    0.222952
     24          1           0        3.290159    1.025757    1.284404
     25          1           0        4.182218    1.906958    0.047943
     26          1           0        1.313779    0.886775   -0.242337
     27          1           0        2.205884    1.767911   -1.477386
     28          1           0        2.384862    3.752576    0.060713
     29          1           0        1.487688    2.866433    1.302780
     30          1           0        0.689752    3.316130   -0.213920
     31          6           0        3.872919   -0.177183   -0.406922
     32          6           0        5.189687   -0.682108    0.183975
     33          6           0        5.644827   -2.005657   -0.431543
     34          1           0        3.095561   -0.939084   -0.256534
     35          1           0        3.987620   -0.057883   -1.492995
     36          1           0        5.071896   -0.800037    1.268795
     37          1           0        5.964001    0.081099    0.033745
     38          1           0        5.790091   -1.898559   -1.511370
     39          1           0        4.892918   -2.784702   -0.269304
     40          1           0        6.588029   -2.348256    0.005329
 ---------------------------------------------------------------------

 SCF Done:  E(RHF) =  -470.733119111     A.U. after   11 cycles
 E2 =    -0.1583135336D+01 EUMP2 =    -0.47231625444635D+03

 The electronic state is 1-A.
 Alpha  occ. eigenvalues --  -11.21653 -11.21619 -11.21578 -11.21533 -11.21437
 Alpha  occ. eigenvalues --  -11.21380 -11.21375 -11.21321 -11.21139 -11.21084
 Alpha  occ. eigenvalues --  -11.21046 -11.21042  -1.08470  -1.08400  -1.03587
 Alpha  occ. eigenvalues --   -1.03486  -0.96026  -0.95950  -0.87048  -0.86960
 Alpha  occ. eigenvalues --   -0.79630  -0.79566  -0.78280  -0.78214  -0.65135
 Alpha  occ. eigenvalues --   -0.65027  -0.61049  -0.60874  -0.59451  -0.59241
 Alpha  occ. eigenvalues --   -0.57660  -0.57526  -0.55308  -0.55236  -0.52766
 Alpha  occ. eigenvalues --   -0.52619  -0.52470  -0.52358  -0.49958  -0.49888
 Alpha  occ. eigenvalues --   -0.47976  -0.47855  -0.46693  -0.46549  -0.45823
 Alpha  occ. eigenvalues --   -0.45768  -0.45735  -0.45631  -0.43803  -0.43751
 Alpha virt. eigenvalues --    0.20632   0.22989   0.23685   0.24910   0.26137
 Alpha virt. eigenvalues --    0.26387   0.27042   0.27238   0.28195   0.29122
 Alpha virt. eigenvalues --    0.30823   0.31139   0.31605   0.31863   0.32297

 Mulliken charges:
               1
     1  C   -0.298344
     2  C   -0.299699
     3  C   -0.475734
     4  H    0.149769
     5  H    0.149644
     6  H    0.151953
     7  H    0.152004
     8  H    0.155238
     9  H    0.155227
    10  H    0.160319
    11  C   -0.298333
    12  C   -0.301881
    13  C   -0.480559
    14  H    0.149674
    15  H    0.149866
    16  H    0.152286
    17  H    0.154035
    18  H    0.155808
    19  H    0.155860
    20  H    0.163183
    21  C   -0.297863
    22  C   -0.309522
    23  C   -0.474966
    24  H    0.148997
    25  H    0.149598
    26  H    0.162311
    27  H    0.151521
    28  H    0.154982
    29  H    0.154906
    30  H    0.160063
    31  C   -0.300581
    32  C   -0.299497
    33  C   -0.475762
    34  H    0.151492
    35  H    0.149597
    36  H    0.151873
    37  H    0.151853
    38  H    0.155059
    39  H    0.155477
    40  H    0.160145
 Sum of Mulliken charges =  -0.00000

 Dipole moment (field-independent basis, Debye):
    X=             -0.0362    Y=             -0.0160    Z=             -0.0018  Tot=              0.0397
 Quadrupole moment (field-independent basis, Debye-Ang):
   XX=            -85.5664   YY=            -85.8711   ZZ=            -83.3968
   XY=              1.2684   XZ=             -0.5444   YZ=             -0.7568

 Normal termination of Gaussian 16 at Wed May  5 16:41:53 2021.
