 Gaussian 16, Revision A.03,
 Gaussian 16:  EM64L-G16RevA.03 25-Dec-2016

 -------------
 #p 6-31g* mp2
 -------------

 ------------------------------------------------------
 Input file generated by CHIRIPA (05-May-2021 14:57:25)
 ------------------------------------------------------
 Symbolic Z-matrix:
 Charge =  0 Multiplicity = 1

                         Standard orientation:
 ---------------------------------------------------------------------
 Center     Atomic      Atomic             Coordinates (Angstroms)
 Number     Number       Type             X           Y           Z
 ---------------------------------------------------------------------
      1          6           0        0.730692   -1.457677    1.562560
      2          6           0        1.458480   -0.377154    2.071793
      3          6           0        2.445133    0.241829    1.298538
      4          6           0        2.678924   -0.247740    0.014422
      5          6           0        1.970636   -1.322380   -0.521082
      6          6           0        0.988638   -1.926015    0.270027
      7          1           0       -0.033955   -1.932556    2.170178
      8          1           0        1.260302   -0.011314    3.075253
      9          1           0        3.023407    1.080018    1.667936
     10          1           0        2.190806   -1.664701   -1.524955
     11          1           0        0.424985   -2.764986   -0.128053
     12          7           0        3.720985    0.399426   -0.813639
     13          8           0        3.907861   -0.050768   -1.941930
     14          8           0        4.331145    1.344614   -0.318703
     15          6           0       -1.953388    2.762253    0.360457
     16          6           0       -2.356695    2.395052   -0.927575
     17          6           0       -2.666017    1.063878   -1.222266
     18          6           0       -2.560718    0.121618   -0.200332
     19          6           0       -2.161742    0.456254    1.092775
     20          6           0       -1.857367    1.793390    1.364750
     21          1           0       -1.715020    3.798658    0.580557
     22          1           0       -2.432156    3.145352   -1.709496
     23          1           0       -2.980757    0.752058   -2.210763
     24          1           0       -2.095903   -0.314139    1.851443
     25          1           0       -1.544416    2.075676    2.365960
     26          7           0       -2.885565   -1.290793   -0.500284
     27          8           0       -2.784873   -2.101966    0.417592
     28          8           0       -3.234721   -1.559923   -1.647583
 ---------------------------------------------------------------------

 SCF Done:  E(RHF) =  -868.338245859     A.U. after   16 cycles
 E2 =    -0.2602764039D+01 EUMP2 =    -0.87094100989785D+03

 The electronic state is 1-A.
 Alpha  occ. eigenvalues --  -20.61627 -20.61574 -20.60824 -20.60807 -15.86623
 Alpha  occ. eigenvalues --  -15.85869 -11.31703 -11.31176 -11.28355 -11.28226
 Alpha  occ. eigenvalues --  -11.27943 -11.27811 -11.27680 -11.27405 -11.27253
 Alpha  occ. eigenvalues --  -11.27155 -11.26825 -11.26555  -1.60665  -1.59896
 Alpha  occ. eigenvalues --   -1.40232  -1.39451  -1.19872  -1.19340  -1.09307
 Alpha  occ. eigenvalues --   -1.08744  -1.05251  -1.04731  -0.96201  -0.95584
 Alpha  occ. eigenvalues --   -0.86666  -0.86127  -0.83049  -0.82420  -0.78147
 Alpha  occ. eigenvalues --   -0.77477  -0.72863  -0.72096  -0.71976  -0.71221
 Alpha  occ. eigenvalues --   -0.71045  -0.70390  -0.65538  -0.65266  -0.64983
 Alpha  occ. eigenvalues --   -0.64711  -0.62635  -0.62066  -0.55769  -0.55195
 Alpha  occ. eigenvalues --   -0.53819  -0.53349  -0.52822  -0.52796  -0.49635
 Alpha  occ. eigenvalues --   -0.49576  -0.48848  -0.48838  -0.45698  -0.44871
 Alpha  occ. eigenvalues --   -0.38002  -0.37605  -0.36469  -0.36154
 Alpha virt. eigenvalues --    0.04266   0.05100   0.10784   0.11283   0.15952
 Alpha virt. eigenvalues --    0.16582   0.19826   0.22136   0.26034   0.26562
 Alpha virt. eigenvalues --    0.27883   0.29296   0.30126   0.31288   0.32679

 Mulliken charges:
               1
     1  C   -0.175925
     2  C   -0.219220
     3  C   -0.171286
     4  C    0.158509
     5  C   -0.171197
     6  C   -0.224710
     7  H    0.233382
     8  H    0.216695
     9  H    0.272848
    10  H    0.277222
    11  H    0.238102
    12  N    0.487933
    13  O   -0.459543
    14  O   -0.462767
    15  C   -0.169059
    16  C   -0.218185
    17  C   -0.169843
    18  C    0.158582
    19  C   -0.162600
    20  C   -0.217211
    21  H    0.228378
    22  H    0.226737
    23  H    0.276931
    24  H    0.264943
    25  H    0.219916
    26  N    0.488569
    27  O   -0.471336
    28  O   -0.455866
 Sum of Mulliken charges =  -0.00000

 Dipole moment (field-independent basis, Debye):
    X=             -2.6392    Y=              2.7065    Z=              3.7433  Tot=              5.3200
 Quadrupole moment (field-independent basis, Debye-Ang):
   XX=           -131.9022   YY=           -100.5304   ZZ=            -98.4755
   XY=            -17.9654   XZ=              6.9951   YZ=             -0.2744

 Normal termination of Gaussian 16 at Thu May  6 22:51:36 2021.
