 Gaussian 16, Revision A.03,
 Gaussian 16:  EM64L-G16RevA.03 25-Dec-2016

 -------------
 #p 6-31g* mp2
 -------------

 ------------------------------------------------------
 Input file generated by CHIRIPA (05-May-2021 14:51:11)
 ------------------------------------------------------
 Symbolic Z-matrix:
 Charge =  0 Multiplicity = 1

                         Standard orientation:
 ---------------------------------------------------------------------
 Center     Atomic      Atomic             Coordinates (Angstroms)
 Number     Number       Type             X           Y           Z
 ---------------------------------------------------------------------
      1          6           0       -4.201550   -0.386020   -0.354404
      2          6           0       -5.676414   -0.253319    0.026581
      3          6           0       -6.618208   -0.582914   -1.131947
      4          1           0       -3.987480    0.277926   -1.203106
      5          1           0       -4.010861   -1.410440   -0.703111
      6          1           0       -5.863960    0.770159    0.375773
      7          1           0       -5.886953   -0.917516    0.874598
      8          1           0       -6.460079   -1.609905   -1.476742
      9          1           0       -6.436955    0.087358   -1.978400
     10          1           0       -7.667482   -0.481626   -0.837624
     11          6           0       -3.247640   -0.059774    0.793354
     12          6           0       -1.772775   -0.192475    0.412368
     13          6           0       -0.830982    0.137119    1.570896
     14          1           0       -3.438328    0.964646    1.142060
     15          1           0       -3.461709   -0.723720    1.642056
     16          1           0       -1.562237    0.471721   -0.435648
     17          1           0       -1.585230   -1.215953    0.063176
     18          1           0       -1.012234   -0.533153    2.417350
     19          1           0       -0.989111    1.164111    1.915691
     20          1           0        0.218292    0.035831    1.276573
     21          6           0        3.706302    0.972461   -0.365250
     22          6           0        2.352427    1.615964   -0.063731
     23          6           0        2.331562    3.115740   -0.360426
     24          1           0        4.483935    1.475447    0.225713
     25          1           0        3.957829    1.141776   -1.421405
     26          1           0        2.102886    1.444293    0.991198
     27          1           0        1.577899    1.111262   -0.655338
     28          1           0        2.555438    3.302845   -1.415637
     29          1           0        3.083408    3.637768    0.240253
     30          1           0        1.354356    3.555471   -0.137791
     31          6           0        3.742888   -0.526667   -0.073699
     32          6           0        5.096762   -1.170169   -0.375218
     33          6           0        5.117628   -2.669945   -0.078524
     34          1           0        3.491361   -0.695981    0.982456
     35          1           0        2.965255   -1.029652   -0.664663
     36          1           0        5.871291   -0.665467    0.216388
     37          1           0        5.346303   -0.998498   -1.430146
     38          1           0        4.365782   -3.191973   -0.679202
     39          1           0        4.893752   -2.857050    0.976689
     40          1           0        6.094834   -3.109677   -0.301159
 ---------------------------------------------------------------------

 SCF Done:  E(RHF) =  -470.732656266     A.U. after   11 cycles
 E2 =    -0.1583107626D+01 EUMP2 =    -0.47231576389273D+03

 The electronic state is 1-A.
 Alpha  occ. eigenvalues --  -11.21621 -11.21584 -11.21581 -11.21552 -11.21426
 Alpha  occ. eigenvalues --  -11.21375 -11.21363 -11.21314 -11.21082 -11.21080
 Alpha  occ. eigenvalues --  -11.21059 -11.20897  -1.08457  -1.08389  -1.03567
 Alpha  occ. eigenvalues --   -1.03461  -0.96000  -0.95922  -0.87036  -0.86926
 Alpha  occ. eigenvalues --   -0.79677  -0.79501  -0.78274  -0.78210  -0.65080
 Alpha  occ. eigenvalues --   -0.65025  -0.60942  -0.60886  -0.59568  -0.59141
 Alpha  occ. eigenvalues --   -0.57669  -0.57469  -0.55279  -0.55211  -0.52803
 Alpha  occ. eigenvalues --   -0.52592  -0.52428  -0.52296  -0.49943  -0.49866
 Alpha  occ. eigenvalues --   -0.48036  -0.47729  -0.46694  -0.46541  -0.45781
 Alpha  occ. eigenvalues --   -0.45768  -0.45726  -0.45658  -0.43819  -0.43637
 Alpha virt. eigenvalues --    0.21793   0.23068   0.23639   0.24801   0.26018
 Alpha virt. eigenvalues --    0.26349   0.26705   0.27619   0.27700   0.29108
 Alpha virt. eigenvalues --    0.30689   0.31261   0.31521   0.32002   0.32142

 Mulliken charges:
               1
     1  C   -0.298229
     2  C   -0.299603
     3  C   -0.475678
     4  H    0.149437
     5  H    0.149381
     6  H    0.151885
     7  H    0.151925
     8  H    0.155129
     9  H    0.155111
    10  H    0.160197
    11  C   -0.298235
    12  C   -0.300108
    13  C   -0.481595
    14  H    0.149365
    15  H    0.149672
    16  H    0.151597
    17  H    0.151421
    18  H    0.153621
    19  H    0.153613
    20  H    0.169637
    21  C   -0.297869
    22  C   -0.304615
    23  C   -0.475308
    24  H    0.149615
    25  H    0.149395
    26  H    0.156190
    27  H    0.154119
    28  H    0.154978
    29  H    0.155165
    30  H    0.160214
    31  C   -0.299637
    32  C   -0.299493
    33  C   -0.475760
    34  H    0.149723
    35  H    0.149754
    36  H    0.152086
    37  H    0.152083
    38  H    0.155204
    39  H    0.155292
    40  H    0.160322
 Sum of Mulliken charges =  -0.00000

 Dipole moment (field-independent basis, Debye):
    X=              0.0513    Y=              0.0085    Z=             -0.0038  Tot=              0.0521
 Quadrupole moment (field-independent basis, Debye-Ang):
   XX=            -85.4325   YY=            -85.0069   ZZ=            -84.3970
   XY=              0.0951   XZ=             -0.2780   YZ=             -0.0582

 Normal termination of Gaussian 16 at Thu May  6 05:27:40 2021.
