 Gaussian 16, Revision A.03,
 Gaussian 16:  EM64L-G16RevA.03 25-Dec-2016

 -------------
 #p 6-31g* mp2
 -------------

 ------------------------------------------------------
 Input file generated by CHIRIPA (05-May-2021 14:55:20)
 ------------------------------------------------------
 Symbolic Z-matrix:
 Charge =  0 Multiplicity = 1

                         Standard orientation:
 ---------------------------------------------------------------------
 Center     Atomic      Atomic             Coordinates (Angstroms)
 Number     Number       Type             X           Y           Z
 ---------------------------------------------------------------------
      1          6           0        2.619158    2.561221   -0.060565
      2          6           0        3.960529    2.293498    0.231959
      3          6           0        4.438940    0.979850    0.230974
      4          6           0        3.544338   -0.046512   -0.068289
      5          6           0        2.202360    0.188111   -0.363817
      6          6           0        1.745894    1.509527   -0.356996
      7          1           0        2.256041    3.584711   -0.057533
      8          1           0        4.640987    3.108271    0.462534
      9          1           0        5.472498    0.744249    0.453837
     10          1           0        1.547968   -0.645016   -0.589845
     11          1           0        0.703656    1.714474   -0.584552
     12          7           0        4.039193   -1.441324   -0.072420
     13          8           0        3.230851   -2.327889   -0.339297
     14          8           0        5.226034   -1.621603    0.191298
     15          6           0       -3.704178   -0.005173    0.108832
     16          6           0       -2.710026   -1.156368    0.265027
     17          6           0       -1.257376   -0.681234    0.308023
     18          1           0       -3.471134    0.549998   -0.810091
     19          1           0       -3.572383    0.699431    0.941633
     20          1           0       -2.844599   -1.859302   -0.567072
     21          1           0       -2.945584   -1.708979    1.183586
     22          1           0       -1.100620    0.003190    1.148019
     23          1           0       -0.999062   -0.147987   -0.612586
     24          1           0       -0.563678   -1.520333    0.420089
     25          6           0       -5.160538   -0.464253    0.064243
     26          6           0       -6.154690    0.686942   -0.091952
     27          6           0       -7.607340    0.211809   -0.134947
     28          1           0       -5.292333   -1.168858   -0.768557
     29          1           0       -5.393583   -1.019424    0.983168
     30          1           0       -5.919132    1.239553   -1.010510
     31          1           0       -6.020117    1.389876    0.740148
     32          1           0       -7.865653   -0.321438    0.785662
     33          1           0       -7.764095   -0.472615   -0.974943
     34          1           0       -8.301037    1.050907   -0.247013
 ---------------------------------------------------------------------

 SCF Done:  E(RHF) =  -669.534951767     A.U. after   15 cycles
 E2 =    -0.2092033616D+01 EUMP2 =    -0.67162698538333D+03

 The electronic state is 1-A.
 Alpha  occ. eigenvalues --  -20.60689 -20.60684 -15.85738 -11.31048 -11.27642
 Alpha  occ. eigenvalues --  -11.27548 -11.27376 -11.26654 -11.26586 -11.22137
 Alpha  occ. eigenvalues --  -11.21944 -11.21922 -11.21901 -11.21747 -11.21337
 Alpha  occ. eigenvalues --   -1.59763  -1.39318  -1.19230  -1.08893  -1.08639
 Alpha  occ. eigenvalues --   -1.04638  -1.04012  -0.96511  -0.95476  -0.87549
 Alpha  occ. eigenvalues --   -0.86028  -0.82318  -0.80111  -0.78694  -0.77342
 Alpha  occ. eigenvalues --   -0.71960  -0.71085  -0.70351  -0.65520  -0.64884
 Alpha  occ. eigenvalues --   -0.64655  -0.62061  -0.61370  -0.59845  -0.58087
 Alpha  occ. eigenvalues --   -0.55806  -0.55144  -0.53289  -0.53075  -0.52847
 Alpha  occ. eigenvalues --   -0.52539  -0.50445  -0.48717  -0.48713  -0.48392
 Alpha  occ. eigenvalues --   -0.47104  -0.46239  -0.46142  -0.44735  -0.44252
 Alpha  occ. eigenvalues --   -0.37224  -0.36209
 Alpha virt. eigenvalues --    0.05148   0.11409   0.16616   0.20607   0.22566
 Alpha virt. eigenvalues --    0.23890   0.25652   0.26381   0.26952   0.28138
 Alpha virt. eigenvalues --    0.29228   0.29526   0.31198   0.31588   0.32311

 Mulliken charges:
               1
     1  C   -0.171163
     2  C   -0.218944
     3  C   -0.170968
     4  C    0.158026
     5  C   -0.172956
     6  C   -0.221874
     7  H    0.224976
     8  H    0.222788
     9  H    0.275002
    10  H    0.281010
    11  H    0.225997
    12  N    0.488372
    13  O   -0.461617
    14  O   -0.460772
    15  C   -0.299102
    16  C   -0.299817
    17  C   -0.486652
    18  H    0.147156
    19  H    0.148805
    20  H    0.155989
    21  H    0.156582
    22  H    0.158158
    23  H    0.145136
    24  H    0.171803
    25  C   -0.298758
    26  C   -0.299868
    27  C   -0.475984
    28  H    0.151220
    29  H    0.151434
    30  H    0.151385
    31  H    0.151646
    32  H    0.156091
    33  H    0.156086
    34  H    0.160813
 Sum of Mulliken charges =  -0.00000

 Dipole moment (field-independent basis, Debye):
    X=             -1.9503    Y=              4.8154    Z=              0.0738  Tot=              5.1959
 Quadrupole moment (field-independent basis, Debye-Ang):
   XX=           -103.9022   YY=            -95.2211   ZZ=            -94.2709
   XY=             19.3551   XZ=              1.2683   YZ=              0.1584

 Normal termination of Gaussian 16 at Thu May  6 12:28:37 2021.
