 Gaussian 16, Revision A.03,
 Gaussian 16:  EM64L-G16RevA.03 25-Dec-2016

 -------------
 #p 6-31g* mp2
 -------------

 ------------------------------------------------------
 Input file generated by CHIRIPA (05-May-2021 14:51:12)
 ------------------------------------------------------
 Symbolic Z-matrix:
 Charge =  0 Multiplicity = 1

                         Standard orientation:
 ---------------------------------------------------------------------
 Center     Atomic      Atomic             Coordinates (Angstroms)
 Number     Number       Type             X           Y           Z
 ---------------------------------------------------------------------
      1          6           0       -3.442180    1.100781    0.202039
      2          6           0       -2.070707    1.420696   -0.393528
      3          6           0       -1.447341    2.683246    0.202440
      4          1           0       -4.113753    1.954885    0.039430
      5          1           0       -3.343392    0.983562    1.290108
      6          1           0       -2.171809    1.535912   -1.480321
      7          1           0       -1.402376    0.565655   -0.229651
      8          1           0       -1.317588    2.575114    1.284139
      9          1           0       -2.091393    3.550883    0.026363
     10          1           0       -0.467433    2.893273   -0.237479
     11          6           0       -4.078188   -0.158629   -0.383716
     12          6           0       -5.449662   -0.478544    0.211851
     13          6           0       -6.073027   -1.741093   -0.384117
     14          1           0       -4.176976   -0.041409   -1.471785
     15          1           0       -3.406615   -1.012732   -0.221107
     16          1           0       -6.117992    0.376497    0.047974
     17          1           0       -5.348559   -0.593759    1.298644
     18          1           0       -5.428976   -2.608731   -0.208040
     19          1           0       -6.202780   -1.632962   -1.465816
     20          1           0       -7.052935   -1.951121    0.055802
     21          6           0        3.160085   -0.522679    0.560574
     22          6           0        1.893140   -1.031473   -0.127876
     23          6           0        0.701266   -1.129262    0.824838
     24          1           0        3.410041   -1.191737    1.395337
     25          1           0        2.959036    0.464053    1.000271
     26          1           0        2.096922   -2.016341   -0.567335
     27          1           0        1.646280   -0.361234   -0.961217
     28          1           0        0.469733   -0.149072    1.254048
     29          1           0        0.922935   -1.813583    1.650168
     30          1           0       -0.193730   -1.495007    0.311931
     31          6           0        4.360282   -0.419473   -0.378897
     32          6           0        5.627228    0.089321    0.309553
     33          6           0        6.819103    0.187110   -0.643161
     34          1           0        4.561332   -1.406205   -0.818594
     35          1           0        4.110328    0.249584   -1.213660
     36          1           0        5.874087   -0.580918    1.142893
     37          1           0        5.423446    1.074189    0.749011
     38          1           0        6.597434    0.871430   -1.468491
     39          1           0        7.050636   -0.793081   -1.072371
     40          1           0        7.714098    0.552855   -0.130254
 ---------------------------------------------------------------------

 SCF Done:  E(RHF) =  -470.732790381     A.U. after   11 cycles
 E2 =    -0.1583200716D+01 EUMP2 =    -0.47231599109659D+03

 The electronic state is 1-A.
 Alpha  occ. eigenvalues --  -11.21654 -11.21617 -11.21577 -11.21452 -11.21433
 Alpha  occ. eigenvalues --  -11.21373 -11.21367 -11.21298 -11.21141 -11.21083
 Alpha  occ. eigenvalues --  -11.21059 -11.21053  -1.08467  -1.08380  -1.03592
 Alpha  occ. eigenvalues --   -1.03469  -0.96039  -0.95938  -0.87060  -0.86954
 Alpha  occ. eigenvalues --   -0.79672  -0.79518  -0.78273  -0.78196  -0.65165
 Alpha  occ. eigenvalues --   -0.64968  -0.61174  -0.60725  -0.59437  -0.59267
 Alpha  occ. eigenvalues --   -0.57638  -0.57555  -0.55420  -0.55125  -0.52768
 Alpha  occ. eigenvalues --   -0.52627  -0.52450  -0.52363  -0.50026  -0.49843
 Alpha  occ. eigenvalues --   -0.47954  -0.47852  -0.46745  -0.46477  -0.45819
 Alpha  occ. eigenvalues --   -0.45753  -0.45716  -0.45612  -0.43796  -0.43734
 Alpha virt. eigenvalues --    0.20946   0.23016   0.23690   0.24577   0.26041
 Alpha virt. eigenvalues --    0.26579   0.26874   0.27633   0.27784   0.29298
 Alpha virt. eigenvalues --    0.30991   0.31363   0.31782   0.32048   0.32108

 Mulliken charges:
               1
     1  C   -0.297420
     2  C   -0.310311
     3  C   -0.475777
     4  H    0.149214
     5  H    0.149347
     6  H    0.150749
     7  H    0.165499
     8  H    0.154530
     9  H    0.155260
    10  H    0.159062
    11  C   -0.298983
    12  C   -0.299618
    13  C   -0.475705
    14  H    0.149436
    15  H    0.149520
    16  H    0.151964
    17  H    0.152058
    18  H    0.155112
    19  H    0.155092
    20  H    0.160195
    21  C   -0.298665
    22  C   -0.300944
    23  C   -0.481056
    24  H    0.149762
    25  H    0.150051
    26  H    0.152368
    27  H    0.153274
    28  H    0.158227
    29  H    0.156354
    30  H    0.161087
    31  C   -0.298341
    32  C   -0.299711
    33  C   -0.475730
    34  H    0.149597
    35  H    0.149740
    36  H    0.151959
    37  H    0.152046
    38  H    0.155230
    39  H    0.155199
    40  H    0.160327
 Sum of Mulliken charges =  -0.00000

 Dipole moment (field-independent basis, Debye):
    X=              0.0409    Y=             -0.0276    Z=              0.0105  Tot=              0.0504
 Quadrupole moment (field-independent basis, Debye-Ang):
   XX=            -85.8362   YY=            -84.4302   ZZ=            -84.6545
   XY=             -1.1117   XZ=              0.7055   YZ=             -0.8610

 Normal termination of Gaussian 16 at Wed May  5 19:53:38 2021.
