 Gaussian 16, Revision A.03,
 Gaussian 16:  EM64L-G16RevA.03 25-Dec-2016

 -------------
 #p 6-31g* mp2
 -------------

 ------------------------------------------------------
 Input file generated by CHIRIPA (05-May-2021 14:57:24)
 ------------------------------------------------------
 Symbolic Z-matrix:
 Charge =  0 Multiplicity = 1

                         Standard orientation:
 ---------------------------------------------------------------------
 Center     Atomic      Atomic             Coordinates (Angstroms)
 Number     Number       Type             X           Y           Z
 ---------------------------------------------------------------------
      1          6           0        3.925759   -2.204221    0.008715
      2          6           0        4.783772   -1.294766    0.635791
      3          6           0        4.500973    0.074304    0.620912
      4          6           0        3.346323    0.501104   -0.033240
      5          6           0        2.471863   -0.380273   -0.667106
      6          6           0        2.774572   -1.744882   -0.639589
      7          1           0        4.153178   -3.266015    0.025181
      8          1           0        5.678511   -1.648641    1.140033
      9          1           0        5.147924    0.800201    1.098350
     10          1           0        1.587442    0.002554   -1.161737
     11          1           0        2.106415   -2.448889   -1.127426
     12          7           0        3.036397    1.948115   -0.055681
     13          8           0        2.012819    2.298742   -0.638763
     14          8           0        3.822924    2.704256    0.510237
     15          6           0       -5.643071    0.847702    0.329687
     16          6           0       -5.061433    0.776757   -0.940425
     17          6           0       -3.817552    0.163895   -1.118493
     18          6           0       -3.180299   -0.369960    0.000525
     19          6           0       -3.733936   -0.315008    1.278710
     20          6           0       -4.978637    0.302554    1.433256
     21          1           0       -6.609665    1.325613    0.458877
     22          1           0       -5.575152    1.199267   -1.799276
     23          1           0       -3.344445    0.095092   -2.090528
     24          1           0       -3.197725   -0.745239    2.115846
     25          1           0       -5.427953    0.356196    2.420819
     26          7           0       -1.863024   -1.021258   -0.175536
     27          8           0       -1.321960   -1.483942    0.826368
     28          8           0       -1.396551   -1.056728   -1.312101
 ---------------------------------------------------------------------

 SCF Done:  E(RHF) =  -868.340747940     A.U. after   16 cycles
 E2 =    -0.2598459480D+01 EUMP2 =    -0.87093920742011D+03

 The electronic state is 1-A.
 Alpha  occ. eigenvalues --  -20.61309 -20.61294 -20.59859 -20.59852 -15.86309
 Alpha  occ. eigenvalues --  -15.84899 -11.31367 -11.29983 -11.27908 -11.27900
 Alpha  occ. eigenvalues --  -11.27609 -11.26864 -11.26851 -11.26624 -11.26359
 Alpha  occ. eigenvalues --  -11.26282 -11.25624 -11.25356  -1.60356  -1.58938
 Alpha  occ. eigenvalues --   -1.39916  -1.38497  -1.19515  -1.18144  -1.08973
 Alpha  occ. eigenvalues --   -1.07614  -1.04876  -1.03477  -0.95859  -0.94483
 Alpha  occ. eigenvalues --   -0.86291  -0.84915  -0.82704  -0.81306  -0.77779
 Alpha  occ. eigenvalues --   -0.76370  -0.72550  -0.71638  -0.71131  -0.70632
 Alpha  occ. eigenvalues --   -0.70253  -0.69277  -0.65178  -0.64886  -0.63797
 Alpha  occ. eigenvalues --   -0.63485  -0.62230  -0.60812  -0.55403  -0.54064
 Alpha  occ. eigenvalues --   -0.53214  -0.52971  -0.51863  -0.51562  -0.49321
 Alpha  occ. eigenvalues --   -0.49287  -0.47891  -0.47862  -0.45380  -0.43965
 Alpha  occ. eigenvalues --   -0.37478  -0.36459  -0.36163  -0.35055
 Alpha virt. eigenvalues --    0.04719   0.06117   0.11200   0.12570   0.16267
 Alpha virt. eigenvalues --    0.17657   0.21331   0.22694   0.27263   0.28160
 Alpha virt. eigenvalues --    0.28711   0.29527   0.30934   0.32197   0.32427

 Mulliken charges:
               1
     1  C   -0.171675
     2  C   -0.219480
     3  C   -0.172841
     4  C    0.156649
     5  C   -0.169950
     6  C   -0.215937
     7  H    0.221974
     8  H    0.218360
     9  H    0.270823
    10  H    0.285622
    11  H    0.232555
    12  N    0.488158
    13  O   -0.462414
    14  O   -0.465270
    15  C   -0.169490
    16  C   -0.218323
    17  C   -0.168830
    18  C    0.159111
    19  C   -0.169650
    20  C   -0.218451
    21  H    0.226835
    22  H    0.224775
    23  H    0.275894
    24  H    0.275600
    25  H    0.224371
    26  N    0.490112
    27  O   -0.459625
    28  O   -0.468904
 Sum of Mulliken charges =  -0.00000

 Dipole moment (field-independent basis, Debye):
    X=             -4.0573    Y=             -2.8983    Z=              0.6479  Tot=              5.0281
 Quadrupole moment (field-independent basis, Debye-Ang):
   XX=            -66.1988   YY=           -112.9454   ZZ=            -99.2267
   XY=            -22.0856   XZ=              0.5513   YZ=             -0.5468

 Normal termination of Gaussian 16 at Thu May  6 22:47:25 2021.
