 Gaussian 16, Revision A.03,
 Gaussian 16:  EM64L-G16RevA.03 25-Dec-2016

 -------------
 #p 6-31g* mp2
 -------------

 ------------------------------------------------------
 Input file generated by CHIRIPA (05-May-2021 14:53:17)
 ------------------------------------------------------
 Symbolic Z-matrix:
 Charge =  0 Multiplicity = 1

                         Standard orientation:
 ---------------------------------------------------------------------
 Center     Atomic      Atomic             Coordinates (Angstroms)
 Number     Number       Type             X           Y           Z
 ---------------------------------------------------------------------
      1          6           0        4.133134    0.048045    0.064734
      2          6           0        4.257934   -1.353976   -0.532547
      3          6           0        5.446000   -2.133442    0.032010
      4          1           0        5.061536    0.604184   -0.124280
      5          1           0        4.034210   -0.033364    1.156055
      6          1           0        4.355204   -1.270013   -1.622550
      7          1           0        3.329054   -1.906777   -0.342257
      8          1           0        5.351938   -2.246736    1.116868
      9          1           0        6.383917   -1.606354   -0.170699
     10          1           0        5.516384   -3.132816   -0.408625
     11          6           0        2.950083    0.839660   -0.489761
     12          6           0        2.825284    2.241682    0.107520
     13          6           0        1.637217    3.021148   -0.457037
     14          1           0        3.049008    0.921070   -1.581082
     15          1           0        2.021682    0.283522   -0.300747
     16          1           0        3.754163    2.794482   -0.082770
     17          1           0        2.728014    2.157718    1.197523
     18          1           0        0.699300    2.494059   -0.254328
     19          1           0        1.731280    3.134442   -1.541895
     20          1           0        1.566834    4.020521   -0.016402
     21          6           0       -0.523287   -0.564178    1.299576
     22          6           0       -1.632056   -0.112287    2.022725
     23          6           0       -2.880018    0.012062    1.404925
     24          6           0       -2.983784   -0.325740    0.056439
     25          6           0       -1.897761   -0.778841   -0.690920
     26          6           0       -0.659438   -0.895429   -0.052555
     27          1           0        0.442416   -0.657760    1.787485
     28          1           0       -1.529268    0.145686    3.072929
     29          1           0       -3.754867    0.359369    1.941054
     30          1           0       -2.031300   -1.028429   -1.736525
     31          1           0        0.199920   -1.246639   -0.616647
     32          7           0       -4.299844   -0.198207   -0.608485
     33          8           0       -4.365027   -0.502204   -1.797591
     34          8           0       -5.241268    0.203336    0.072046
 ---------------------------------------------------------------------

 SCF Done:  E(RHF) =  -669.535119486     A.U. after   15 cycles
 E2 =    -0.2092918940D+01 EUMP2 =    -0.67162803842620D+03

 The electronic state is 1-A.
 Alpha  occ. eigenvalues --  -20.60796 -20.60791 -15.85850 -11.31244 -11.27811
 Alpha  occ. eigenvalues --  -11.27804 -11.27575 -11.26837 -11.26819 -11.22540
 Alpha  occ. eigenvalues --  -11.22323 -11.22283 -11.22229 -11.21823 -11.21532
 Alpha  occ. eigenvalues --   -1.59870  -1.39423  -1.19423  -1.09292  -1.08813
 Alpha  occ. eigenvalues --   -1.04827  -1.04279  -0.96710  -0.95644  -0.87722
 Alpha  occ. eigenvalues --   -0.86232  -0.82469  -0.80355  -0.79130  -0.77506
 Alpha  occ. eigenvalues --   -0.72069  -0.71193  -0.70541  -0.66008  -0.65068
 Alpha  occ. eigenvalues --   -0.64787  -0.62177  -0.61678  -0.60081  -0.58323
 Alpha  occ. eigenvalues --   -0.55997  -0.55328  -0.53375  -0.53177  -0.53141
 Alpha  occ. eigenvalues --   -0.52891  -0.50650  -0.48834  -0.48821  -0.48655
 Alpha  occ. eigenvalues --   -0.47408  -0.46620  -0.46577  -0.44822  -0.44559
 Alpha  occ. eigenvalues --   -0.37376  -0.36406
 Alpha virt. eigenvalues --    0.05008   0.11083   0.16464   0.18988   0.22823
 Alpha virt. eigenvalues --    0.23502   0.24855   0.25774   0.27040   0.28198
 Alpha virt. eigenvalues --    0.30089   0.30640   0.30924   0.31233   0.31873

 Mulliken charges:
               1
     1  C   -0.298521
     2  C   -0.299774
     3  C   -0.475826
     4  H    0.154259
     5  H    0.146230
     6  H    0.155113
     7  H    0.143283
     8  H    0.154994
     9  H    0.158255
    10  H    0.162604
    11  C   -0.305053
    12  C   -0.298732
    13  C   -0.479124
    14  H    0.152774
    15  H    0.144827
    16  H    0.154863
    17  H    0.148251
    18  H    0.159213
    19  H    0.156758
    20  H    0.162130
    21  C   -0.171128
    22  C   -0.218937
    23  C   -0.170839
    24  C    0.158574
    25  C   -0.172073
    26  C   -0.219688
    27  H    0.226418
    28  H    0.223839
    29  H    0.275950
    30  H    0.276309
    31  H    0.227229
    32  N    0.488084
    33  O   -0.460052
    34  O   -0.460210
 Sum of Mulliken charges =  -0.00000

 Dipole moment (field-independent basis, Debye):
    X=              4.7096    Y=             -0.3998    Z=              2.2967  Tot=              5.2550
 Quadrupole moment (field-independent basis, Debye-Ang):
   XX=           -121.7893   YY=            -94.8480   ZZ=            -90.4633
   XY=             -0.1173   XZ=             -9.6570   YZ=              0.7163

 Normal termination of Gaussian 16 at Thu May  6 01:13:52 2021.
