 Gaussian 16, Revision A.03,
 Gaussian 16:  EM64L-G16RevA.03 25-Dec-2016

 -------------
 #p 6-31g* mp2
 -------------

 ------------------------------------------------------
 Input file generated by CHIRIPA (05-May-2021 14:53:16)
 ------------------------------------------------------
 Symbolic Z-matrix:
 Charge =  0 Multiplicity = 1

                         Standard orientation:
 ---------------------------------------------------------------------
 Center     Atomic      Atomic             Coordinates (Angstroms)
 Number     Number       Type             X           Y           Z
 ---------------------------------------------------------------------
      1          6           0        3.846640    0.608625   -0.705694
      2          6           0        2.894022    1.704539   -0.226657
      3          6           0        2.651612    2.781184   -1.284894
      4          1           0        4.804095    1.063983   -0.993570
      5          1           0        3.435175    0.145833   -1.613392
      6          1           0        3.306482    2.164192    0.680654
      7          1           0        1.938787    1.246497    0.060293
      8          1           0        2.217509    2.341971   -2.188912
      9          1           0        3.592975    3.264880   -1.565027
     10          1           0        1.967808    3.554601   -0.921439
     11          6           0        4.098870   -0.474969    0.341173
     12          6           0        5.051488   -1.570883   -0.137864
     13          6           0        5.293898   -2.647528    0.920373
     14          1           0        4.510335   -0.012177    1.248871
     15          1           0        3.141414   -0.930327    0.629049
     16          1           0        6.006722   -1.112840   -0.424814
     17          1           0        4.639027   -2.030535   -1.045175
     18          1           0        4.352534   -3.131224    1.200506
     19          1           0        5.728000   -2.208315    1.824391
     20          1           0        5.977701   -3.420945    0.556918
     21          6           0       -4.773077   -1.408507   -1.176551
     22          6           0       -5.093559   -0.963037    0.110060
     23          6           0       -4.176355   -0.210847    0.849990
     24          6           0       -2.942326    0.078912    0.269902
     25          6           0       -2.593569   -0.350579   -1.009628
     26          6           0       -3.526303   -1.101398   -1.731311
     27          1           0       -5.491615   -1.992293   -1.744258
     28          1           0       -6.061066   -1.200042    0.543426
     29          1           0       -4.398473    0.146675    1.848118
     30          1           0       -1.621155   -0.098512   -1.414956
     31          1           0       -3.274689   -1.446029   -2.730292
     32          7           0       -1.963103    0.874496    1.043573
     33          8           0       -0.882640    1.116428    0.509996
     34          8           0       -2.294593    1.241078    2.168904
 ---------------------------------------------------------------------

 SCF Done:  E(RHF) =  -669.536033516     A.U. after   15 cycles
 E2 =    -0.2090855453D+01 EUMP2 =    -0.67162688896905D+03

 The electronic state is 1-A.
 Alpha  occ. eigenvalues --  -20.60948 -20.60936 -15.85991 -11.31308 -11.27874
 Alpha  occ. eigenvalues --  -11.27867 -11.27608 -11.26879 -11.26869 -11.21086
 Alpha  occ. eigenvalues --  -11.20665 -11.20644 -11.20540 -11.20295 -11.20060
 Alpha  occ. eigenvalues --   -1.60010  -1.39567  -1.19476  -1.08880  -1.07633
 Alpha  occ. eigenvalues --   -1.04873  -1.02711  -0.95723  -0.95210  -0.86274
 Alpha  occ. eigenvalues --   -0.86235  -0.82560  -0.78794  -0.77621  -0.77382
 Alpha  occ. eigenvalues --   -0.72215  -0.71327  -0.70586  -0.65135  -0.64876
 Alpha  occ. eigenvalues --   -0.64268  -0.62221  -0.60107  -0.58586  -0.56782
 Alpha  occ. eigenvalues --   -0.55376  -0.54522  -0.53205  -0.52965  -0.51906
 Alpha  occ. eigenvalues --   -0.51631  -0.49194  -0.48969  -0.48960  -0.47102
 Alpha  occ. eigenvalues --   -0.45826  -0.45045  -0.44948  -0.44744  -0.42978
 Alpha  occ. eigenvalues --   -0.37455  -0.36475
 Alpha virt. eigenvalues --    0.04914   0.11180   0.16406   0.21258   0.23574
 Alpha virt. eigenvalues --    0.25007   0.27154   0.27395   0.28025   0.28578
 Alpha virt. eigenvalues --    0.28741   0.30835   0.31972   0.32372   0.32783

 Mulliken charges:
               1
     1  C   -0.297155
     2  C   -0.309817
     3  C   -0.473380
     4  H    0.145778
     5  H    0.143754
     6  H    0.149953
     7  H    0.178844
     8  H    0.148258
     9  H    0.149188
    10  H    0.164684
    11  C   -0.297842
    12  C   -0.298748
    13  C   -0.475107
    14  H    0.149903
    15  H    0.151519
    16  H    0.150726
    17  H    0.148889
    18  H    0.154370
    19  H    0.155456
    20  H    0.157783
    21  C   -0.170613
    22  C   -0.218558
    23  C   -0.170590
    24  C    0.157463
    25  C   -0.170637
    26  C   -0.218491
    27  H    0.226060
    28  H    0.223879
    29  H    0.275932
    30  H    0.275314
    31  H    0.223871
    32  N    0.495306
    33  O   -0.467225
    34  O   -0.458766
 Sum of Mulliken charges =  -0.00000

 Dipole moment (field-independent basis, Debye):
    X=             -3.7499    Y=             -2.7750    Z=             -2.6027  Tot=              5.3419
 Quadrupole moment (field-independent basis, Debye-Ang):
   XX=            -73.1163   YY=            -96.7293   ZZ=            -94.1331
   XY=              8.7169   XZ=              4.8795   YZ=              0.3674

 Normal termination of Gaussian 16 at Wed May  5 18:44:27 2021.
