 Gaussian 16, Revision A.03,
 Gaussian 16:  EM64L-G16RevA.03 25-Dec-2016

 -------------
 #p 6-31g* mp2
 -------------

 ------------------------------------------------------
 Input file generated by CHIRIPA (05-May-2021 14:51:09)
 ------------------------------------------------------
 Symbolic Z-matrix:
 Charge =  0 Multiplicity = 1

                         Standard orientation:
 ---------------------------------------------------------------------
 Center     Atomic      Atomic             Coordinates (Angstroms)
 Number     Number       Type             X           Y           Z
 ---------------------------------------------------------------------
      1          6           0        3.949821    0.809551   -0.393272
      2          6           0        2.538547    1.231496    0.016915
      3          6           0        2.175781    2.634476   -0.470774
      4          1           0        4.672612    1.535531    0.003555
      5          1           0        4.033847    0.851319   -1.488073
      6          1           0        2.456788    1.187614    1.110535
      7          1           0        1.819048    0.504322   -0.380773
      8          1           0        2.229411    2.688535   -1.562929
      9          1           0        2.870774    3.375709   -0.063148
     10          1           0        1.162808    2.915842   -0.166505
     11          6           0        4.327116   -0.590718    0.086962
     12          6           0        5.738390   -1.012662   -0.323225
     13          6           0        6.101156   -2.415643    0.164464
     14          1           0        4.243090   -0.632485    1.181763
     15          1           0        3.604324   -1.316697   -0.309865
     16          1           0        6.457889   -0.285489    0.074462
     17          1           0        5.820149   -0.968781   -1.416846
     18          1           0        5.406163   -3.156875   -0.243163
     19          1           0        6.047526   -2.469701    1.256619
     20          1           0        7.114129   -2.697008   -0.139805
     21          6           0       -3.453002   -0.211752    0.474241
     22          6           0       -2.543261    1.012322    0.364696
     23          6           0       -1.175514    0.792135    1.011674
     24          1           0       -3.584340   -0.469397    1.534106
     25          1           0       -2.957421   -1.071623    0.002630
     26          1           0       -3.041003    1.869958    0.835151
     27          1           0       -2.414229    1.267197   -0.695023
     28          1           0       -0.655303   -0.046143    0.537046
     29          1           0       -1.285639    0.560043    2.075914
     30          1           0       -0.541355    1.679621    0.921837
     31          6           0       -4.823935   -0.007082   -0.167930
     32          6           0       -5.733676   -1.231155   -0.058386
     33          6           0       -7.101423   -1.010969   -0.705364
     34          1           0       -5.319515    0.852790    0.303680
     35          1           0       -4.692597    0.250563   -1.227796
     36          1           0       -5.862708   -1.486031    1.001334
     37          1           0       -5.235933   -2.088791   -0.528841
     38          1           0       -6.991298   -0.778876   -1.769604
     39          1           0       -7.621634   -0.172691   -0.230735
     40          1           0       -7.735582   -1.898455   -0.615526
 ---------------------------------------------------------------------

 SCF Done:  E(RHF) =  -470.732726407     A.U. after   11 cycles
 E2 =    -0.1582979220D+01 EUMP2 =    -0.47231570562674D+03

 The electronic state is 1-A.
 Alpha  occ. eigenvalues --  -11.21599 -11.21583 -11.21582 -11.21519 -11.21399
 Alpha  occ. eigenvalues --  -11.21371 -11.21339 -11.21310 -11.21069 -11.21057
 Alpha  occ. eigenvalues --  -11.21042 -11.21006  -1.08428  -1.08390  -1.03557
 Alpha  occ. eigenvalues --   -1.03461  -0.96032  -0.95893  -0.87005  -0.86953
 Alpha  occ. eigenvalues --   -0.79649  -0.79496  -0.78254  -0.78181  -0.65071
 Alpha  occ. eigenvalues --   -0.65010  -0.60983  -0.60836  -0.59713  -0.59071
 Alpha  occ. eigenvalues --   -0.57766  -0.57351  -0.55293  -0.55193  -0.52898
 Alpha  occ. eigenvalues --   -0.52525  -0.52468  -0.52138  -0.49961  -0.49850
 Alpha  occ. eigenvalues --   -0.48019  -0.47752  -0.46700  -0.46505  -0.45819
 Alpha  occ. eigenvalues --   -0.45737  -0.45692  -0.45612  -0.43804  -0.43701
 Alpha virt. eigenvalues --    0.21683   0.23071   0.23405   0.25130   0.25983
 Alpha virt. eigenvalues --    0.26725   0.26884   0.27057   0.27816   0.29066
 Alpha virt. eigenvalues --    0.29905   0.30998   0.31489   0.31816   0.32341

 Mulliken charges:
               1
     1  C   -0.298572
     2  C   -0.300285
     3  C   -0.479912
     4  H    0.149368
     5  H    0.149121
     6  H    0.152545
     7  H    0.154877
     8  H    0.155067
     9  H    0.155155
    10  H    0.162570
    11  C   -0.298095
    12  C   -0.299601
    13  C   -0.475674
    14  H    0.149679
    15  H    0.149227
    16  H    0.151933
    17  H    0.151808
    18  H    0.155072
    19  H    0.155205
    20  H    0.160172
    21  C   -0.298449
    22  C   -0.299951
    23  C   -0.481353
    24  H    0.149685
    25  H    0.149343
    26  H    0.151601
    27  H    0.151804
    28  H    0.156616
    29  H    0.154665
    30  H    0.166408
    31  C   -0.298217
    32  C   -0.299625
    33  C   -0.475695
    34  H    0.149532
    35  H    0.149590
    36  H    0.151945
    37  H    0.151860
    38  H    0.155155
    39  H    0.155191
    40  H    0.160233
 Sum of Mulliken charges =  -0.00000

 Dipole moment (field-independent basis, Debye):
    X=             -0.0015    Y=             -0.0016    Z=              0.0098  Tot=              0.0100
 Quadrupole moment (field-independent basis, Debye-Ang):
   XX=            -85.9184   YY=            -85.5524   ZZ=            -83.4816
   XY=              0.4263   XZ=             -0.5194   YZ=              0.9766

 Normal termination of Gaussian 16 at Wed May  5 18:09:21 2021.
