 Gaussian 16, Revision A.03,
 Gaussian 16:  EM64L-G16RevA.03 25-Dec-2016

 -------------
 #p 6-31g* mp2
 -------------

 ------------------------------------------------------
 Input file generated by CHIRIPA (05-May-2021 14:55:20)
 ------------------------------------------------------
 Symbolic Z-matrix:
 Charge =  0 Multiplicity = 1

                         Standard orientation:
 ---------------------------------------------------------------------
 Center     Atomic      Atomic             Coordinates (Angstroms)
 Number     Number       Type             X           Y           Z
 ---------------------------------------------------------------------
      1          6           0        2.273118    2.276016    0.546097
      2          6           0        1.723421    1.022011    0.832150
      3          6           0        2.396176   -0.148034    0.467536
      4          6           0        3.622147   -0.026633   -0.184804
      5          6           0        4.195786    1.208228   -0.483713
      6          6           0        3.505373    2.364965   -0.109766
      7          1           0        1.743647    3.179767    0.832962
      8          1           0        0.766597    0.949901    1.341398
      9          1           0        1.993528   -1.131668    0.676718
     10          1           0        5.151307    1.248167   -0.992440
     11          1           0        3.934676    3.337498   -0.333205
     12          7           0        4.343709   -1.258263   -0.575745
     13          8           0        5.422346   -1.124340   -1.149543
     14          8           0        3.816970   -2.334218   -0.300963
     15          6           0       -4.082210   -0.663856    0.633601
     16          6           0       -2.697464   -0.100076    0.953937
     17          6           0       -1.905507   -0.987751    1.914473
     18          1           0       -4.645499   -0.788782    1.568503
     19          1           0       -3.970545   -1.667101    0.199520
     20          1           0       -2.811643    0.902369    1.386006
     21          1           0       -2.137475    0.023703    0.018144
     22          1           0       -1.762160   -1.985569    1.487376
     23          1           0       -2.440157   -1.101910    2.863008
     24          1           0       -0.918816   -0.565941    2.129820
     25          6           0       -4.886045    0.212388   -0.325447
     26          6           0       -6.270791   -0.351392   -0.645784
     27          6           0       -7.062747    0.536284   -1.606321
     28          1           0       -4.997710    1.215633    0.108633
     29          1           0       -4.322756    0.337315   -1.260350
     30          1           0       -6.830779   -0.475171    0.290008
     31          1           0       -6.156612   -1.353837   -1.077853
     32          1           0       -6.528098    0.650443   -2.554856
     33          1           0       -7.206096    1.534101   -1.179222
     34          1           0       -8.049439    0.114473   -1.821667
 ---------------------------------------------------------------------

 SCF Done:  E(RHF) =  -669.535521051     A.U. after   15 cycles
 E2 =    -0.2090945510D+01 EUMP2 =    -0.67162646656068D+03

 The electronic state is 1-A.
 Alpha  occ. eigenvalues --  -20.60733 -20.60728 -15.85786 -11.31146 -11.27720
 Alpha  occ. eigenvalues --  -11.27704 -11.27459 -11.26735 -11.26702 -11.22396
 Alpha  occ. eigenvalues --  -11.22010 -11.21963 -11.21949 -11.21827 -11.21372
 Alpha  occ. eigenvalues --   -1.59809  -1.39362  -1.19319  -1.08983  -1.08715
 Alpha  occ. eigenvalues --   -1.04724  -1.04115  -0.96566  -0.95551  -0.87582
 Alpha  occ. eigenvalues --   -0.86120  -0.82385  -0.80184  -0.78764  -0.77434
 Alpha  occ. eigenvalues --   -0.72005  -0.71132  -0.70428  -0.65602  -0.64973
 Alpha  occ. eigenvalues --   -0.64756  -0.62135  -0.61493  -0.59947  -0.58171
 Alpha  occ. eigenvalues --   -0.55822  -0.55224  -0.53348  -0.53062  -0.53051
 Alpha  occ. eigenvalues --   -0.52658  -0.50480  -0.48763  -0.48759  -0.48499
 Alpha  occ. eigenvalues --   -0.47200  -0.46312  -0.46210  -0.44769  -0.44365
 Alpha  occ. eigenvalues --   -0.37302  -0.36324
 Alpha virt. eigenvalues --    0.05101   0.11320   0.16581   0.19478   0.22580
 Alpha virt. eigenvalues --    0.23687   0.25888   0.26143   0.26919   0.28254
 Alpha virt. eigenvalues --    0.28973   0.29943   0.30901   0.31456   0.32294

 Mulliken charges:
               1
     1  C   -0.171498
     2  C   -0.224956
     3  C   -0.173067
     4  C    0.158596
     5  C   -0.171098
     6  C   -0.218527
     7  H    0.226005
     8  H    0.232126
     9  H    0.275914
    10  H    0.275457
    11  H    0.223210
    12  N    0.488114
    13  O   -0.460687
    14  O   -0.460403
    15  C   -0.298766
    16  C   -0.302157
    17  C   -0.479638
    18  H    0.151246
    19  H    0.152691
    20  H    0.149692
    21  H    0.152918
    22  H    0.161803
    23  H    0.160647
    24  H    0.149546
    25  C   -0.298839
    26  C   -0.300222
    27  C   -0.476035
    28  H    0.148885
    29  H    0.150616
    30  H    0.152517
    31  H    0.153486
    32  H    0.155810
    33  H    0.154942
    34  H    0.161672
 Sum of Mulliken charges =  -0.00000

 Dipole moment (field-independent basis, Debye):
    X=             -2.7456    Y=              4.2861    Z=              1.3508  Tot=              5.2663
 Quadrupole moment (field-independent basis, Debye-Ang):
   XX=           -110.4593   YY=            -93.7956   ZZ=            -95.0958
   XY=             18.6648   XZ=              3.0126   YZ=             -1.3724

 Normal termination of Gaussian 16 at Thu May  6 07:42:06 2021.
