 Gaussian 16, Revision A.03,
 Gaussian 16:  EM64L-G16RevA.03 25-Dec-2016

 -------------
 #p 6-31g* mp2
 -------------

 ------------------------------------------------------
 Input file generated by CHIRIPA (05-May-2021 14:57:21)
 ------------------------------------------------------
 Symbolic Z-matrix:
 Charge =  0 Multiplicity = 1

                         Standard orientation:
 ---------------------------------------------------------------------
 Center     Atomic      Atomic             Coordinates (Angstroms)
 Number     Number       Type             X           Y           Z
 ---------------------------------------------------------------------
      1          6           0        1.524902    0.319857   -0.260373
      2          6           0        1.988761   -0.590212    0.695205
      3          6           0        3.359591   -0.809936    0.859813
      4          6           0        4.242511   -0.099264    0.048218
      5          6           0        3.811314    0.814076   -0.912599
      6          6           0        2.436053    1.017866   -1.059816
      7          1           0        0.458287    0.484355   -0.381490
      8          1           0        1.283451   -1.133704    1.317459
      9          1           0        3.746011   -1.508643    1.591869
     10          1           0        4.538652    1.341015   -1.518185
     11          1           0        2.078677    1.725250   -1.802740
     12          7           0        5.696093   -0.323442    0.213275
     13          8           0        6.453474    0.315191   -0.514158
     14          8           0        6.050505   -1.133540    1.066955
     15          6           0       -3.191448    2.415869    0.389101
     16          6           0       -4.344913    1.951523    1.029744
     17          6           0       -4.803749    0.649324    0.809981
     18          6           0       -4.081395   -0.165216   -0.060662
     19          6           0       -2.928702    0.268344   -0.713820
     20          6           0       -2.488264    1.574281   -0.479106
     21          1           0       -2.842159    3.428900    0.565626
     22          1           0       -4.893027    2.602896    1.704526
     23          1           0       -5.693663    0.264184    1.292825
     24          1           0       -2.403515   -0.404322   -1.380991
     25          1           0       -1.592147    1.932209   -0.978012
     26          7           0       -4.557406   -1.545774   -0.301230
     27          8           0       -3.903113   -2.243674   -1.072898
     28          8           0       -5.575784   -1.903814    0.286437
 ---------------------------------------------------------------------

 SCF Done:  E(RHF) =  -868.336851818     A.U. after   16 cycles
 E2 =    -0.2600072915D+01 EUMP2 =    -0.87093692473315D+03

 The electronic state is 1-A.
 Alpha  occ. eigenvalues --  -20.61547 -20.61536 -20.61011 -20.61004 -15.86607
 Alpha  occ. eigenvalues --  -15.86067 -11.32133 -11.31520 -11.28814 -11.28692
 Alpha  occ. eigenvalues --  -11.28490 -11.28114 -11.28063 -11.27921 -11.27886
 Alpha  occ. eigenvalues --  -11.27693 -11.27211 -11.27106  -1.60619  -1.60084
 Alpha  occ. eigenvalues --   -1.40168  -1.39634  -1.20339  -1.19707  -1.09688
 Alpha  occ. eigenvalues --   -1.09106  -1.05784  -1.05118  -0.96492  -0.95924
 Alpha  occ. eigenvalues --   -0.87156  -0.86524  -0.83346  -0.82743  -0.78367
 Alpha  occ. eigenvalues --   -0.77762  -0.72817  -0.72284  -0.71949  -0.71416
 Alpha  occ. eigenvalues --   -0.71407  -0.70882  -0.65988  -0.65793  -0.65367
 Alpha  occ. eigenvalues --   -0.65132  -0.63126  -0.62459  -0.56245  -0.55706
 Alpha  occ. eigenvalues --   -0.54052  -0.53851  -0.53446  -0.53218  -0.49591
 Alpha  occ. eigenvalues --   -0.49565  -0.49051  -0.49032  -0.45538  -0.45020
 Alpha  occ. eigenvalues --   -0.38297  -0.37720  -0.37390  -0.36713
 Alpha virt. eigenvalues --    0.04158   0.04763   0.10241   0.10930   0.15404
 Alpha virt. eigenvalues --    0.16221   0.18684   0.21892   0.25105   0.26591
 Alpha virt. eigenvalues --    0.27502   0.29002   0.30345   0.31106   0.32017

 Mulliken charges:
               1
     1  C   -0.174668
     2  C   -0.219335
     3  C   -0.170103
     4  C    0.158906
     5  C   -0.170184
     6  C   -0.219696
     7  H    0.221521
     8  H    0.227512
     9  H    0.277568
    10  H    0.276347
    11  H    0.219179
    12  N    0.487949
    13  O   -0.459914
    14  O   -0.458850
    15  C   -0.170124
    16  C   -0.218437
    17  C   -0.168999
    18  C    0.158817
    19  C   -0.174094
    20  C   -0.222238
    21  H    0.228914
    22  H    0.227425
    23  H    0.279027
    24  H    0.275362
    25  H    0.217003
    26  N    0.487924
    27  O   -0.459567
    28  O   -0.457248
 Sum of Mulliken charges =  -0.00000

 Dipole moment (field-independent basis, Debye):
    X=             -3.6451    Y=              5.6080    Z=              0.4265  Tot=              6.7021
 Quadrupole moment (field-independent basis, Debye-Ang):
   XX=           -157.8978   YY=           -105.0861   ZZ=           -101.2724
   XY=            -16.7191   XZ=            -10.0793   YZ=             -2.4446

 Normal termination of Gaussian 16 at Wed May  5 16:13:10 2021.
