 Gaussian 16, Revision A.03,
 Gaussian 16:  EM64L-G16RevA.03 25-Dec-2016

 -------------
 #p 6-31g* mp2
 -------------

 ------------------------------------------------------
 Input file generated by CHIRIPA (05-May-2021 14:55:22)
 ------------------------------------------------------
 Symbolic Z-matrix:
 Charge =  0 Multiplicity = 1

                         Standard orientation:
 ---------------------------------------------------------------------
 Center     Atomic      Atomic             Coordinates (Angstroms)
 Number     Number       Type             X           Y           Z
 ---------------------------------------------------------------------
      1          6           0       -1.954052    1.613273   -0.296215
      2          6           0       -1.709689    0.259107   -0.547295
      3          6           0       -2.731591   -0.684644   -0.407308
      4          6           0       -3.991562   -0.237275   -0.012814
      5          6           0       -4.266281    1.104938    0.244640
      6          6           0       -3.229320    2.031130    0.098256
      7          1           0       -1.154365    2.339581   -0.407445
      8          1           0       -0.720280   -0.068278   -0.853783
      9          1           0       -2.569991   -1.739150   -0.595249
     10          1           0       -5.262914    1.401033    0.548727
     11          1           0       -3.421987    3.082148    0.293924
     12          7           0       -5.081375   -1.227088    0.138770
     13          8           0       -6.182680   -0.807409    0.487532
     14          8           0       -4.813631   -2.403839   -0.094051
     15          6           0        4.246451    0.316339   -0.317556
     16          6           0        3.353235    1.234685    0.517185
     17          6           0        2.091120    1.669187   -0.228515
     18          1           0        4.526766    0.832782   -1.245810
     19          1           0        3.671369   -0.571404   -0.615192
     20          1           0        3.930245    2.119776    0.814320
     21          1           0        3.075171    0.716069    1.443647
     22          1           0        1.491635    0.797885   -0.511449
     23          1           0        2.351568    2.209569   -1.144351
     24          1           0        1.467139    2.325055    0.386584
     25          6           0        5.512134   -0.126535    0.414316
     26          6           0        6.405349   -1.044881   -0.420424
     27          6           0        7.667465   -1.479383    0.325274
     28          1           0        6.087215    0.761208    0.711952
     29          1           0        5.231819   -0.642978    1.342570
     30          1           0        6.683414   -0.526264   -1.346887
     31          1           0        5.828340   -1.929973   -0.717560
     32          1           0        7.407017   -2.019764    1.241110
     33          1           0        8.266949   -0.608081    0.608208
     34          1           0        8.291445   -2.135251   -0.289824
 ---------------------------------------------------------------------

 SCF Done:  E(RHF) =  -669.535308712     A.U. after   15 cycles
 E2 =    -0.2091255814D+01 EUMP2 =    -0.67162656452538D+03

 The electronic state is 1-A.
 Alpha  occ. eigenvalues --  -20.60708 -20.60702 -15.85761 -11.31106 -11.27679
 Alpha  occ. eigenvalues --  -11.27672 -11.27374 -11.26681 -11.26652 -11.22554
 Alpha  occ. eigenvalues --  -11.22424 -11.22154 -11.22083 -11.21957 -11.21457
 Alpha  occ. eigenvalues --   -1.59784  -1.39338  -1.19276  -1.09151  -1.08668
 Alpha  occ. eigenvalues --   -1.04682  -1.04294  -0.96779  -0.95505  -0.87811
 Alpha  occ. eigenvalues --   -0.86074  -0.82344  -0.80377  -0.78913  -0.77401
 Alpha  occ. eigenvalues --   -0.71979  -0.71107  -0.70373  -0.65790  -0.64925
 Alpha  occ. eigenvalues --   -0.64709  -0.62097  -0.61630  -0.60185  -0.58353
 Alpha  occ. eigenvalues --   -0.56068  -0.55183  -0.53469  -0.53235  -0.53001
 Alpha  occ. eigenvalues --   -0.52739  -0.50695  -0.48762  -0.48735  -0.48648
 Alpha  occ. eigenvalues --   -0.47373  -0.46468  -0.46358  -0.44748  -0.44532
 Alpha  occ. eigenvalues --   -0.37243  -0.36286
 Alpha virt. eigenvalues --    0.05134   0.11350   0.16613   0.19904   0.22377
 Alpha virt. eigenvalues --    0.23846   0.25007   0.26004   0.26351   0.27310
 Alpha virt. eigenvalues --    0.28938   0.29353   0.31043   0.31615   0.32240

 Mulliken charges:
               1
     1  C   -0.174478
     2  C   -0.222559
     3  C   -0.171687
     4  C    0.158569
     5  C   -0.171022
     6  C   -0.219067
     7  H    0.230819
     8  H    0.227840
     9  H    0.275359
    10  H    0.275222
    11  H    0.223099
    12  N    0.488009
    13  O   -0.460686
    14  O   -0.460725
    15  C   -0.299026
    16  C   -0.299692
    17  C   -0.482317
    18  H    0.150867
    19  H    0.148657
    20  H    0.155498
    21  H    0.155348
    22  H    0.149774
    23  H    0.159149
    24  H    0.157939
    25  C   -0.299024
    26  C   -0.300186
    27  C   -0.476136
    28  H    0.150756
    29  H    0.151098
    30  H    0.152473
    31  H    0.152488
    32  H    0.156088
    33  H    0.155761
    34  H    0.161792
 Sum of Mulliken charges =  -0.00000

 Dipole moment (field-independent basis, Debye):
    X=              4.1176    Y=              3.5069    Z=             -0.5029  Tot=              5.4319
 Quadrupole moment (field-independent basis, Debye-Ang):
   XX=           -123.6378   YY=            -93.4737   ZZ=            -95.2532
   XY=            -16.7956   XZ=              0.6458   YZ=              1.0829

 Normal termination of Gaussian 16 at Thu May  6 06:13:58 2021.
