 Gaussian 16, Revision A.03,
 Gaussian 16:  EM64L-G16RevA.03 25-Dec-2016

 -------------
 #p 6-31g* mp2
 -------------

 ------------------------------------------------------
 Input file generated by CHIRIPA (05-May-2021 14:51:14)
 ------------------------------------------------------
 Symbolic Z-matrix:
 Charge =  0 Multiplicity = 1

                         Standard orientation:
 ---------------------------------------------------------------------
 Center     Atomic      Atomic             Coordinates (Angstroms)
 Number     Number       Type             X           Y           Z
 ---------------------------------------------------------------------
      1          6           0       -3.023868    1.169425   -0.388648
      2          6           0       -2.138408    1.926326    0.601831
      3          6           0       -2.121312    3.433849    0.347122
      4          1           0       -2.671312    1.366124   -1.410391
      5          1           0       -4.047800    1.563778   -0.329957
      6          1           0       -1.116755    1.529723    0.542278
      7          1           0       -2.492994    1.727649    1.621347
      8          1           0       -3.131053    3.849439    0.426540
      9          1           0       -1.746994    3.650388   -0.658660
     10          1           0       -1.482258    3.955330    1.066516
     11          6           0       -3.051227   -0.338733   -0.146911
     12          6           0       -3.936686   -1.095634   -1.137389
     13          6           0       -3.953783   -2.603156   -0.882680
     14          1           0       -2.027295   -0.733085   -0.205601
     15          1           0       -3.403782   -0.535432    0.874833
     16          1           0       -3.582100   -0.896957   -2.156905
     17          1           0       -4.958340   -0.699031   -1.077836
     18          1           0       -4.328100   -2.819696    0.123102
     19          1           0       -2.944041   -3.018747   -0.962098
     20          1           0       -4.592836   -3.124638   -1.602074
     21          6           0        3.788863   -0.427897    0.130672
     22          6           0        4.199043    0.415582   -1.076922
     23          6           0        5.705086    0.380426   -1.338438
     24          1           0        4.325316   -0.069112    1.019737
     25          1           0        4.109880   -1.466391   -0.030178
     26          1           0        3.876123    1.451895   -0.914454
     27          1           0        3.661406    0.054871   -1.963178
     28          1           0        6.039642   -0.644953   -1.526243
     29          1           0        6.255580    0.760008   -0.471561
     30          1           0        5.976245    0.990034   -2.206026
     31          6           0        2.286231   -0.402796    0.404887
     32          6           0        1.876052   -1.246274    1.612479
     33          6           0        0.370009   -1.211118    1.873996
     34          1           0        1.965214    0.635699    0.565735
     35          1           0        1.749778   -0.761580   -0.484179
     36          1           0        2.413689   -0.885563    2.498736
     37          1           0        2.198971   -2.282587    1.450013
     38          1           0       -0.180486   -1.590701    1.007120
     39          1           0        0.035452   -0.185739    2.061802
     40          1           0        0.098850   -1.820727    2.741584
 ---------------------------------------------------------------------

 SCF Done:  E(RHF) =  -470.732686074     A.U. after   11 cycles
 E2 =    -0.1583713027D+01 EUMP2 =    -0.47231639910086D+03

 The electronic state is 1-A.
 Alpha  occ. eigenvalues --  -11.21629 -11.21599 -11.21558 -11.21548 -11.21445
 Alpha  occ. eigenvalues --  -11.21384 -11.21342 -11.21262 -11.21091 -11.21055
 Alpha  occ. eigenvalues --  -11.21050 -11.20996  -1.08462  -1.08377  -1.03542
 Alpha  occ. eigenvalues --   -1.03495  -0.96001  -0.95933  -0.87013  -0.86958
 Alpha  occ. eigenvalues --   -0.79638  -0.79555  -0.78352  -0.78098  -0.65092
 Alpha  occ. eigenvalues --   -0.65021  -0.61013  -0.60834  -0.59377  -0.59297
 Alpha  occ. eigenvalues --   -0.57660  -0.57515  -0.55350  -0.55170  -0.52696
 Alpha  occ. eigenvalues --   -0.52665  -0.52450  -0.52324  -0.50032  -0.49807
 Alpha  occ. eigenvalues --   -0.48052  -0.47871  -0.46757  -0.46459  -0.46054
 Alpha  occ. eigenvalues --   -0.45727  -0.45674  -0.45247  -0.43799  -0.43739
 Alpha virt. eigenvalues --    0.21244   0.23150   0.23549   0.24054   0.26078
 Alpha virt. eigenvalues --    0.26275   0.26793   0.27672   0.27948   0.29440
 Alpha virt. eigenvalues --    0.30454   0.31174   0.31812   0.32096   0.32291

 Mulliken charges:
               1
     1  C   -0.297731
     2  C   -0.304450
     3  C   -0.475425
     4  H    0.149168
     5  H    0.149176
     6  H    0.157042
     7  H    0.151729
     8  H    0.155137
     9  H    0.155127
    10  H    0.159565
    11  C   -0.303497
    12  C   -0.299314
    13  C   -0.475516
    14  H    0.156131
    15  H    0.149750
    16  H    0.151405
    17  H    0.151719
    18  H    0.155451
    19  H    0.154173
    20  H    0.160163
    21  C   -0.298193
    22  C   -0.299706
    23  C   -0.475729
    24  H    0.149908
    25  H    0.149756
    26  H    0.151985
    27  H    0.151775
    28  H    0.155234
    29  H    0.155280
    30  H    0.160325
    31  C   -0.299374
    32  C   -0.299798
    33  C   -0.482181
    34  H    0.150008
    35  H    0.148592
    36  H    0.151823
    37  H    0.151732
    38  H    0.158367
    39  H    0.160380
    40  H    0.160014
 Sum of Mulliken charges =  -0.00000

 Dipole moment (field-independent basis, Debye):
    X=              0.0130    Y=             -0.0065    Z=              0.0191  Tot=              0.0240
 Quadrupole moment (field-independent basis, Debye-Ang):
   XX=            -85.3416   YY=            -85.4398   ZZ=            -84.1234
   XY=             -0.1622   XZ=             -0.1404   YZ=              0.6537

 Normal termination of Gaussian 16 at Thu May  6 00:50:03 2021.
