 Gaussian 16, Revision A.03,
 Gaussian 16:  EM64L-G16RevA.03 25-Dec-2016

 -------------
 #p 6-31g* mp2
 -------------

 ------------------------------------------------------
 Input file generated by CHIRIPA (05-May-2021 14:57:24)
 ------------------------------------------------------
 Symbolic Z-matrix:
 Charge =  0 Multiplicity = 1

                         Standard orientation:
 ---------------------------------------------------------------------
 Center     Atomic      Atomic             Coordinates (Angstroms)
 Number     Number       Type             X           Y           Z
 ---------------------------------------------------------------------
      1          6           0       -3.311037    2.604956    0.365307
      2          6           0       -3.887511    1.976780   -0.743564
      3          6           0       -3.870379    0.583596   -0.858856
      4          6           0       -3.265597   -0.153881    0.157833
      5          6           0       -2.682788    0.442695    1.274847
      6          6           0       -2.711572    1.837261    1.369204
      7          1           0       -3.328871    3.687751    0.446737
      8          1           0       -4.353758    2.570448   -1.524728
      9          1           0       -4.309206    0.071438   -1.706525
     10          1           0       -2.225338   -0.175802    2.037487
     11          1           0       -2.263093    2.322401    2.231498
     12          7           0       -3.241292   -1.629514    0.046860
     13          8           0       -2.702291   -2.256692    0.956125
     14          8           0       -3.761704   -2.130998   -0.947285
     15          6           0        0.897547   -0.801626   -0.657679
     16          6           0        1.321468    0.489689   -0.988314
     17          6           0        2.633468    0.895203   -0.726091
     18          6           0        3.498925   -0.020458   -0.129567
     19          6           0        3.106468   -1.313858    0.211585
     20          6           0        1.789826   -1.697698   -0.059839
     21          1           0       -0.123450   -1.108221   -0.864955
     22          1           0        0.630690    1.187707   -1.452686
     23          1           0        2.988044    1.888867   -0.971705
     24          1           0        3.818016   -1.987377    0.673635
     25          1           0        1.463369   -2.701181    0.198021
     26          7           0        4.890337    0.397369    0.152906
     27          8           0        5.633432   -0.428157    0.679169
     28          8           0        5.211484    1.542476   -0.157302
 ---------------------------------------------------------------------

 SCF Done:  E(RHF) =  -868.338789991     A.U. after   16 cycles
 E2 =    -0.2599797744D+01 EUMP2 =    -0.87093858773555D+03

 The electronic state is 1-A.
 Alpha  occ. eigenvalues --  -20.61879 -20.61866 -20.60687 -20.60676 -15.86915
 Alpha  occ. eigenvalues --  -15.85735 -11.32164 -11.31038 -11.28705 -11.28685
 Alpha  occ. eigenvalues --  -11.28382 -11.27661 -11.27627 -11.27626 -11.27550
 Alpha  occ. eigenvalues --  -11.27264 -11.26623 -11.26484  -1.60969  -1.59762
 Alpha  occ. eigenvalues --   -1.40514  -1.39317  -1.20321  -1.19193  -1.09732
 Alpha  occ. eigenvalues --   -1.08586  -1.05674  -1.04581  -0.96579  -0.95437
 Alpha  occ. eigenvalues --   -0.87075  -0.85967  -0.83393  -0.82271  -0.78469
 Alpha  occ. eigenvalues --   -0.77336  -0.73113  -0.72356  -0.71952  -0.71379
 Alpha  occ. eigenvalues --   -0.71086  -0.70247  -0.65946  -0.65642  -0.64832
 Alpha  occ. eigenvalues --   -0.64555  -0.63003  -0.61924  -0.56153  -0.55060
 Alpha  occ. eigenvalues --   -0.54040  -0.53737  -0.52918  -0.52652  -0.49887
 Alpha  occ. eigenvalues --   -0.49870  -0.48713  -0.48703  -0.45928  -0.44736
 Alpha  occ. eigenvalues --   -0.38309  -0.37378  -0.37049  -0.36193
 Alpha virt. eigenvalues --    0.04007   0.05180   0.10365   0.11467   0.15536
 Alpha virt. eigenvalues --    0.16707   0.20644   0.21484   0.26587   0.27417
 Alpha virt. eigenvalues --    0.27584   0.27833   0.30285   0.31009   0.31729

 Mulliken charges:
               1
     1  C   -0.171546
     2  C   -0.219884
     3  C   -0.173426
     4  C    0.149762
     5  C   -0.171496
     6  C   -0.218631
     7  H    0.229435
     8  H    0.226535
     9  H    0.277345
    10  H    0.278087
    11  H    0.228240
    12  N    0.486015
    13  O   -0.460901
    14  O   -0.457514
    15  C   -0.171862
    16  C   -0.219746
    17  C   -0.172688
    18  C    0.158055
    19  C   -0.171997
    20  C   -0.219580
    21  H    0.228455
    22  H    0.220984
    23  H    0.273092
    24  H    0.275786
    25  H    0.231795
    26  N    0.488067
    27  O   -0.460125
    28  O   -0.462256
 Sum of Mulliken charges =  -0.00000

 Dipole moment (field-independent basis, Debye):
    X=             -5.2104    Y=              3.7290    Z=             -0.5174  Tot=              6.4282
 Quadrupole moment (field-independent basis, Debye-Ang):
   XX=           -138.4585   YY=           -102.4801   ZZ=           -100.6672
   XY=            -23.9908   XZ=             -1.2853   YZ=             -1.1879

 Normal termination of Gaussian 16 at Thu May  6 00:20:10 2021.
