 Gaussian 16, Revision A.03,
 Gaussian 16:  EM64L-G16RevA.03 25-Dec-2016

 -------------
 #p 6-31g* mp2
 -------------

 ------------------------------------------------------
 Input file generated by CHIRIPA (05-May-2021 14:51:08)
 ------------------------------------------------------
 Symbolic Z-matrix:
 Charge =  0 Multiplicity = 1

                         Standard orientation:
 ---------------------------------------------------------------------
 Center     Atomic      Atomic             Coordinates (Angstroms)
 Number     Number       Type             X           Y           Z
 ---------------------------------------------------------------------
      1          6           0       -5.026657   -0.560915   -0.226066
      2          6           0       -5.908713    0.621569   -0.628178
      3          6           0       -7.224450    0.185147   -1.273288
      4          1           0       -4.816140   -1.171931   -1.114484
      5          1           0       -5.582324   -1.203587    0.470786
      6          1           0       -5.351049    1.262557   -1.322988
      7          1           0       -6.116997    1.229946    0.261266
      8          1           0       -7.804315   -0.436312   -0.583255
      9          1           0       -7.034014   -0.403517   -2.176510
     10          1           0       -7.839483    1.046194   -1.552918
     11          6           0       -3.707775   -0.140702    0.420231
     12          6           0       -2.825720   -1.323185    0.822343
     13          6           0       -1.509983   -0.886764    1.467453
     14          1           0       -3.152109    0.501970   -0.276621
     15          1           0       -3.918292    0.470314    1.308649
     16          1           0       -2.617436   -1.931563   -0.067101
     17          1           0       -3.383384   -1.964173    1.517153
     18          1           0       -1.700418   -0.298100    2.370675
     19          1           0       -0.930118   -0.265304    0.777420
     20          1           0       -0.894950   -1.747811    1.747083
     21          6           0        3.676954    0.385722    0.228111
     22          6           0        3.014594    1.757809    0.099115
     23          6           0        1.634293    1.811884    0.754584
     24          1           0        3.024473   -0.373371   -0.224647
     25          1           0        3.765103    0.127470    1.292503
     26          1           0        2.928979    2.014006   -0.964675
     27          1           0        3.668816    2.513751    0.552064
     28          1           0        1.705686    1.581714    1.822538
     29          1           0        0.961645    1.079130    0.297182
     30          1           0        1.178961    2.801688    0.650561
     31          6           0        5.057478    0.315895   -0.422276
     32          6           0        5.719839   -1.056192   -0.293280
     33          6           0        7.100140   -1.110268   -0.948749
     34          1           0        4.969330    0.574147   -1.486669
     35          1           0        5.709960    1.074988    0.030483
     36          1           0        5.065617   -1.812134   -0.746229
     37          1           0        5.805455   -1.312390    0.770510
     38          1           0        7.772787   -0.377514   -0.491346
     39          1           0        7.028746   -0.880097   -2.016703
     40          1           0        7.555471   -2.100071   -0.844725
 ---------------------------------------------------------------------

 SCF Done:  E(RHF) =  -470.733175445     A.U. after   11 cycles
 E2 =    -0.1582267262D+01 EUMP2 =    -0.47231544270749D+03

 The electronic state is 1-A.
 Alpha  occ. eigenvalues --  -11.21590 -11.21587 -11.21578 -11.21565 -11.21387
 Alpha  occ. eigenvalues --  -11.21382 -11.21327 -11.21322 -11.21063 -11.21060
 Alpha  occ. eigenvalues --  -11.21023 -11.20994  -1.08414  -1.08403  -1.03524
 Alpha  occ. eigenvalues --   -1.03489  -0.95991  -0.95919  -0.87032  -0.86913
 Alpha  occ. eigenvalues --   -0.79635  -0.79505  -0.78239  -0.78201  -0.65065
 Alpha  occ. eigenvalues --   -0.65019  -0.60995  -0.60831  -0.59329  -0.59316
 Alpha  occ. eigenvalues --   -0.57660  -0.57487  -0.55401  -0.55108  -0.52676
 Alpha  occ. eigenvalues --   -0.52649  -0.52537  -0.52204  -0.50074  -0.49728
 Alpha  occ. eigenvalues --   -0.48029  -0.47732  -0.46711  -0.46475  -0.45819
 Alpha  occ. eigenvalues --   -0.45721  -0.45704  -0.45606  -0.43768  -0.43755
 Alpha virt. eigenvalues --    0.22316   0.23009   0.23586   0.24707   0.25889
 Alpha virt. eigenvalues --    0.26844   0.26917   0.27599   0.27754   0.28984
 Alpha virt. eigenvalues --    0.30198   0.31647   0.31821   0.31939   0.32049

 Mulliken charges:
               1
     1  C   -0.298257
     2  C   -0.299633
     3  C   -0.475688
     4  H    0.149477
     5  H    0.149504
     6  H    0.151894
     7  H    0.151972
     8  H    0.155166
     9  H    0.155109
    10  H    0.160207
    11  C   -0.298186
    12  C   -0.299505
    13  C   -0.480483
    14  H    0.149366
    15  H    0.149800
    16  H    0.151372
    17  H    0.151720
    18  H    0.155423
    19  H    0.160577
    20  H    0.159904
    21  C   -0.298175
    22  C   -0.299581
    23  C   -0.479696
    24  H    0.149558
    25  H    0.149747
    26  H    0.151481
    27  H    0.151833
    28  H    0.156074
    29  H    0.159255
    30  H    0.159977
    31  C   -0.298276
    32  C   -0.299633
    33  C   -0.475691
    34  H    0.149376
    35  H    0.149632
    36  H    0.151903
    37  H    0.151968
    38  H    0.155170
    39  H    0.155123
    40  H    0.160214
 Sum of Mulliken charges =  -0.00000

 Dipole moment (field-independent basis, Debye):
    X=              0.0068    Y=              0.0081    Z=              0.0138  Tot=              0.0174
 Quadrupole moment (field-independent basis, Debye-Ang):
   XX=            -86.5282   YY=            -84.8255   ZZ=            -83.5367
   XY=              0.1399   XZ=             -0.0612   YZ=              0.1097

 Normal termination of Gaussian 16 at Wed May  5 15:03:41 2021.
