 Gaussian 16, Revision A.03,
 Gaussian 16:  EM64L-G16RevA.03 25-Dec-2016

 -------------
 #p 6-31g* mp2
 -------------

 ------------------------------------------------------
 Input file generated by CHIRIPA (05-May-2021 14:57:25)
 ------------------------------------------------------
 Symbolic Z-matrix:
 Charge =  0 Multiplicity = 1

                         Standard orientation:
 ---------------------------------------------------------------------
 Center     Atomic      Atomic             Coordinates (Angstroms)
 Number     Number       Type             X           Y           Z
 ---------------------------------------------------------------------
      1          6           0       -1.507260   -0.311824    0.613035
      2          6           0       -2.322213   -1.448592    0.624485
      3          6           0       -3.685779   -1.347629    0.332867
      4          6           0       -4.203501   -0.088590    0.032744
      5          6           0       -3.417439    1.062503    0.013225
      6          6           0       -2.056506    0.937892    0.307979
      7          1           0       -0.449031   -0.399439    0.840789
      8          1           0       -1.898390   -2.420425    0.861043
      9          1           0       -4.339538   -2.211351    0.334574
     10          1           0       -3.868682    2.017712   -0.226303
     11          1           0       -1.425998    1.822433    0.298336
     12          7           0       -5.645654    0.030812   -0.277639
     13          8           0       -6.077492    1.151477   -0.538911
     14          8           0       -6.316869   -0.998526   -0.253768
     15          6           0        3.050236    2.454218    0.071534
     16          6           0        2.177640    1.370153   -0.069541
     17          6           0        2.673786    0.066005   -0.156634
     18          6           0        4.054332   -0.118529   -0.098926
     19          6           0        4.949341    0.941005    0.041209
     20          6           0        4.430867    2.236567    0.126362
     21          1           0        2.656145    3.463976    0.138436
     22          1           0        1.104962    1.536194   -0.112406
     23          1           0        2.020858   -0.791371   -0.266220
     24          1           0        6.013778    0.743992    0.080937
     25          1           0        5.110906    3.076566    0.235883
     26          7           0        4.591398   -1.494627   -0.190101
     27          8           0        5.811766   -1.630612   -0.136723
     28          8           0        3.781814   -2.411172   -0.313214
 ---------------------------------------------------------------------

 SCF Done:  E(RHF) =  -868.336207850     A.U. after   16 cycles
 E2 =    -0.2600800674D+01 EUMP2 =    -0.87093700852376D+03

 The electronic state is 1-A.
 Alpha  occ. eigenvalues --  -20.61539 -20.61522 -20.61178 -20.61168 -15.86594
 Alpha  occ. eigenvalues --  -15.86235 -11.32090 -11.31738 -11.28780 -11.28622
 Alpha  occ. eigenvalues --  -11.28432 -11.28369 -11.28272 -11.28185 -11.27840
 Alpha  occ. eigenvalues --  -11.27636 -11.27527 -11.27314  -1.60605  -1.60248
 Alpha  occ. eigenvalues --   -1.40156  -1.39797  -1.20281  -1.19937  -1.09642
 Alpha  occ. eigenvalues --   -1.09332  -1.05728  -1.05359  -0.96457  -0.96137
 Alpha  occ. eigenvalues --   -0.87125  -0.86763  -0.83316  -0.82954  -0.78353
 Alpha  occ. eigenvalues --   -0.77959  -0.72810  -0.72453  -0.71929  -0.71571
 Alpha  occ. eigenvalues --   -0.71434  -0.71062  -0.65941  -0.65916  -0.65576
 Alpha  occ. eigenvalues --   -0.65304  -0.63094  -0.62662  -0.56215  -0.55901
 Alpha  occ. eigenvalues --   -0.54005  -0.53873  -0.53667  -0.53431  -0.49578
 Alpha  occ. eigenvalues --   -0.49555  -0.49222  -0.49196  -0.45534  -0.45172
 Alpha  occ. eigenvalues --   -0.38237  -0.37954  -0.37322  -0.36945
 Alpha virt. eigenvalues --    0.04207   0.04561   0.10327   0.10638   0.15568
 Alpha virt. eigenvalues --    0.15948   0.17787   0.22299   0.24152   0.25190
 Alpha virt. eigenvalues --    0.27900   0.29033   0.30315   0.30862   0.32787

 Mulliken charges:
               1
     1  C   -0.175638
     2  C   -0.218328
     3  C   -0.169455
     4  C    0.159286
     5  C   -0.169421
     6  C   -0.221715
     7  H    0.223980
     8  H    0.229534
     9  H    0.278739
    10  H    0.276668
    11  H    0.215846
    12  N    0.487926
    13  O   -0.459656
    14  O   -0.457871
    15  C   -0.171115
    16  C   -0.222076
    17  C   -0.175905
    18  C    0.160416
    19  C   -0.169290
    20  C   -0.217820
    21  H    0.227744
    22  H    0.219873
    23  H    0.272083
    24  H    0.278769
    25  H    0.227188
    26  N    0.488409
    27  O   -0.456923
    28  O   -0.461247
 Sum of Mulliken charges =  -0.00000

 Dipole moment (field-independent basis, Debye):
    X=              3.2617    Y=              4.3520    Z=              1.4079  Tot=              5.6179
 Quadrupole moment (field-independent basis, Debye-Ang):
   XX=           -156.6532   YY=           -100.4995   ZZ=           -106.4528
   XY=             24.5201   XZ=             -2.6509   YZ=             -1.2856

 Normal termination of Gaussian 16 at Thu May  6 05:08:58 2021.
