 Gaussian 16, Revision A.03,
 Gaussian 16:  EM64L-G16RevA.03 25-Dec-2016

 -------------
 #p 6-31g* mp2
 -------------

 ------------------------------------------------------
 Input file generated by CHIRIPA (05-May-2021 14:55:22)
 ------------------------------------------------------
 Symbolic Z-matrix:
 Charge =  0 Multiplicity = 1

                         Standard orientation:
 ---------------------------------------------------------------------
 Center     Atomic      Atomic             Coordinates (Angstroms)
 Number     Number       Type             X           Y           Z
 ---------------------------------------------------------------------
      1          6           0       -1.465328    0.962834    0.240833
      2          6           0       -2.261532    0.782816    1.376690
      3          6           0       -3.530328    0.205450    1.270140
      4          6           0       -3.973429   -0.182070    0.006502
      5          6           0       -3.203721   -0.015965   -1.143823
      6          6           0       -1.938130    0.563573   -1.013587
      7          1           0       -0.480941    1.412190    0.332803
      8          1           0       -1.896934    1.091937    2.352168
      9          1           0       -4.167521    0.054393    2.133033
     10          1           0       -3.594424   -0.334124   -2.102752
     11          1           0       -1.321967    0.702153   -1.897434
     12          7           0       -5.314950   -0.794452   -0.118835
     13          8           0       -5.682313   -1.127405   -1.243479
     14          8           0       -5.973669   -0.929888    0.909942
     15          6           0        4.083780    0.334261    0.079680
     16          6           0        3.826264    1.769396   -0.380817
     17          6           0        2.383006    2.215841   -0.145260
     18          1           0        3.398293   -0.342252   -0.448886
     19          1           0        3.842973    0.250753    1.148526
     20          1           0        4.068804    1.850511   -1.448156
     21          1           0        4.512575    2.442549    0.148766
     22          1           0        2.132405    2.163426    0.919189
     23          1           0        1.686111    1.568024   -0.686805
     24          1           0        2.221033    3.244653   -0.481669
     25          6           0        5.522184   -0.126535   -0.149208
     26          6           0        5.779701   -1.561671    0.311288
     27          6           0        7.222959   -2.008116    0.075732
     28          1           0        5.762992   -0.043028   -1.218055
     29          1           0        6.207672    0.549977    0.379358
     30          1           0        5.093389   -2.234823   -0.218294
     31          1           0        5.537161   -1.642786    1.378627
     32          1           0        7.919854   -1.360299    0.617277
     33          1           0        7.473560   -1.955701   -0.988718
     34          1           0        7.384931   -3.036929    0.412140
 ---------------------------------------------------------------------

 SCF Done:  E(RHF) =  -669.535477235     A.U. after   15 cycles
 E2 =    -0.2091001485D+01 EUMP2 =    -0.67162647872033D+03

 The electronic state is 1-A.
 Alpha  occ. eigenvalues --  -20.60692 -20.60687 -15.85746 -11.31086 -11.27667
 Alpha  occ. eigenvalues --  -11.27661 -11.27310 -11.26660 -11.26645 -11.22617
 Alpha  occ. eigenvalues --  -11.22484 -11.22218 -11.22133 -11.22015 -11.21504
 Alpha  occ. eigenvalues --   -1.59769  -1.39323  -1.19257  -1.09213  -1.08647
 Alpha  occ. eigenvalues --   -1.04664  -1.04355  -0.96839  -0.95486  -0.87868
 Alpha  occ. eigenvalues --   -0.86058  -0.82330  -0.80442  -0.78977  -0.77385
 Alpha  occ. eigenvalues --   -0.71964  -0.71092  -0.70358  -0.65839  -0.64907
 Alpha  occ. eigenvalues --   -0.64675  -0.62020  -0.61748  -0.60213  -0.58438
 Alpha  occ. eigenvalues --   -0.56154  -0.55204  -0.53508  -0.53184  -0.52986
 Alpha  occ. eigenvalues --   -0.52754  -0.50785  -0.48766  -0.48720  -0.48680
 Alpha  occ. eigenvalues --   -0.47448  -0.46528  -0.46419  -0.44734  -0.44578
 Alpha  occ. eigenvalues --   -0.37221  -0.36276
 Alpha virt. eigenvalues --    0.05157   0.11375   0.16646   0.20293   0.22242
 Alpha virt. eigenvalues --    0.23741   0.25496   0.25826   0.26937   0.27104
 Alpha virt. eigenvalues --    0.29264   0.29917   0.30699   0.31204   0.31978

 Mulliken charges:
               1
     1  C   -0.178191
     2  C   -0.221067
     3  C   -0.170581
     4  C    0.157860
     5  C   -0.170707
     6  C   -0.222275
     7  H    0.240427
     8  H    0.223235
     9  H    0.275129
    10  H    0.275124
    11  H    0.222414
    12  N    0.488073
    13  O   -0.460824
    14  O   -0.460749
    15  C   -0.299156
    16  C   -0.299614
    17  C   -0.481955
    18  H    0.149422
    19  H    0.149708
    20  H    0.155091
    21  H    0.156072
    22  H    0.153666
    23  H    0.147976
    24  H    0.165607
    25  C   -0.298936
    26  C   -0.300207
    27  C   -0.476149
    28  H    0.150737
    29  H    0.151005
    30  H    0.152685
    31  H    0.152448
    32  H    0.155832
    33  H    0.155903
    34  H    0.161997
 Sum of Mulliken charges =  -0.00000

 Dipole moment (field-independent basis, Debye):
    X=              5.0365    Y=              2.1786    Z=              0.4423  Tot=              5.5053
 Quadrupole moment (field-independent basis, Debye-Ang):
   XX=           -133.0115   YY=            -96.2718   ZZ=            -89.0423
   XY=             -8.9098   XZ=             -2.1975   YZ=              0.7204

 Normal termination of Gaussian 16 at Thu May  6 12:33:35 2021.
