 Gaussian 16, Revision A.03,
 Gaussian 16:  EM64L-G16RevA.03 25-Dec-2016

 -------------
 #p 6-31g* mp2
 -------------

 ------------------------------------------------------
 Input file generated by CHIRIPA (05-May-2021 14:55:20)
 ------------------------------------------------------
 Symbolic Z-matrix:
 Charge =  0 Multiplicity = 1

                         Standard orientation:
 ---------------------------------------------------------------------
 Center     Atomic      Atomic             Coordinates (Angstroms)
 Number     Number       Type             X           Y           Z
 ---------------------------------------------------------------------
      1          6           0        1.599451   -2.052999    0.835850
      2          6           0        1.160346   -0.784506    0.442614
      3          6           0        2.068927    0.165215   -0.033893
      4          6           0        3.415387   -0.188888   -0.104232
      5          6           0        3.883739   -1.444393    0.280011
      6          6           0        2.957352   -2.378320    0.753439
      7          1           0        0.886727   -2.784630    1.204816
      8          1           0        0.106379   -0.529084    0.505527
      9          1           0        1.756220    1.154586   -0.344982
     10          1           0        4.940673   -1.669795    0.205826
     11          1           0        3.301220   -3.362678    1.058133
     12          7           0        4.386687    0.808179   -0.607059
     13          8           0        5.567612    0.471549   -0.659344
     14          8           0        3.948675    1.907430   -0.939368
     15          6           0       -3.984160    1.115568    0.358870
     16          6           0       -2.478176    1.376096    0.404935
     17          6           0       -2.128623    2.707205    1.071084
     18          1           0       -4.475650    1.937133   -0.180030
     19          1           0       -4.383254    1.130313    1.382540
     20          1           0       -2.081808    1.359489   -0.618409
     21          1           0       -1.990193    0.553718    0.943621
     22          1           0       -2.496769    2.730530    2.101872
     23          1           0       -2.588906    3.540879    0.530967
     24          1           0       -1.047046    2.873215    1.093283
     25          6           0       -4.349421   -0.211334   -0.304187
     26          6           0       -5.855406   -0.471862   -0.350252
     27          6           0       -6.204959   -1.802971   -1.016401
     28          1           0       -3.950327   -0.226079   -1.327858
     29          1           0       -3.857931   -1.032899    0.234713
     30          1           0       -6.343389    0.350516   -0.888939
     31          1           0       -6.251774   -0.455256    0.673092
     32          1           0       -5.744675   -2.636646   -0.476283
     33          1           0       -5.836812   -1.826295   -2.047189
     34          1           0       -7.286535   -1.968980   -1.038601
 ---------------------------------------------------------------------

 SCF Done:  E(RHF) =  -669.535599695     A.U. after   15 cycles
 E2 =    -0.2091173633D+01 EUMP2 =    -0.67162677332811D+03

 The electronic state is 1-A.
 Alpha  occ. eigenvalues --  -20.60719 -20.60714 -15.85771 -11.31124 -11.27691
 Alpha  occ. eigenvalues --  -11.27676 -11.27423 -11.26710 -11.26639 -11.22612
 Alpha  occ. eigenvalues --  -11.22174 -11.22141 -11.22068 -11.21803 -11.21573
 Alpha  occ. eigenvalues --   -1.59795  -1.39349  -1.19290  -1.09174  -1.08689
 Alpha  occ. eigenvalues --   -1.04690  -1.04244  -0.96653  -0.95528  -0.87668
 Alpha  occ. eigenvalues --   -0.86091  -0.82361  -0.80345  -0.78996  -0.77402
 Alpha  occ. eigenvalues --   -0.71990  -0.71118  -0.70405  -0.65811  -0.64941
 Alpha  occ. eigenvalues --   -0.64696  -0.62081  -0.61611  -0.60028  -0.58279
 Alpha  occ. eigenvalues --   -0.55920  -0.55196  -0.53353  -0.53091  -0.53021
 Alpha  occ. eigenvalues --   -0.52783  -0.50584  -0.48778  -0.48746  -0.48594
 Alpha  occ. eigenvalues --   -0.47369  -0.46515  -0.46431  -0.44757  -0.44492
 Alpha  occ. eigenvalues --   -0.37275  -0.36291
 Alpha virt. eigenvalues --    0.05120   0.11352   0.16607   0.19726   0.22481
 Alpha virt. eigenvalues --    0.23669   0.25109   0.25962   0.26715   0.28409
 Alpha virt. eigenvalues --    0.28849   0.29918   0.30965   0.31369   0.32328

 Mulliken charges:
               1
     1  C   -0.172888
     2  C   -0.226192
     3  C   -0.174573
     4  C    0.158951
     5  C   -0.171383
     6  C   -0.218376
     7  H    0.225487
     8  H    0.236145
     9  H    0.275615
    10  H    0.275303
    11  H    0.223041
    12  N    0.488095
    13  O   -0.460690
    14  O   -0.460631
    15  C   -0.297301
    16  C   -0.307774
    17  C   -0.475622
    18  H    0.153878
    19  H    0.151657
    20  H    0.153078
    21  H    0.144844
    22  H    0.158037
    23  H    0.160465
    24  H    0.160133
    25  C   -0.298630
    26  C   -0.300187
    27  C   -0.476047
    28  H    0.150839
    29  H    0.145090
    30  H    0.154154
    31  H    0.152860
    32  H    0.154083
    33  H    0.156190
    34  H    0.162348
 Sum of Mulliken charges =  -0.00000

 Dipole moment (field-independent basis, Debye):
    X=             -3.6600    Y=             -3.4159    Z=              1.7596  Tot=              5.3066
 Quadrupole moment (field-independent basis, Debye-Ang):
   XX=           -115.0360   YY=            -91.9482   ZZ=            -95.2554
   XY=            -14.9648   XZ=              6.9188   YZ=             -1.2870

 Normal termination of Gaussian 16 at Thu May  6 06:07:30 2021.
