 Gaussian 16, Revision A.03,
 Gaussian 16:  EM64L-G16RevA.03 25-Dec-2016

 -------------
 #p 6-31g* mp2
 -------------

 ------------------------------------------------------
 Input file generated by CHIRIPA (05-May-2021 14:57:27)
 ------------------------------------------------------
 Symbolic Z-matrix:
 Charge =  0 Multiplicity = 1

                         Standard orientation:
 ---------------------------------------------------------------------
 Center     Atomic      Atomic             Coordinates (Angstroms)
 Number     Number       Type             X           Y           Z
 ---------------------------------------------------------------------
      1          6           0        1.163940   -1.761222    1.448338
      2          6           0        1.623190   -0.543665    1.961335
      3          6           0        2.541876    0.227921    1.243547
      4          6           0        2.982270   -0.250440    0.010456
      5          6           0        2.543399   -1.459348   -0.527339
      6          6           0        1.624698   -2.214378    0.207825
      7          1           0        0.450277   -2.354178    2.012682
      8          1           0        1.267086   -0.189253    2.924469
      9          1           0        2.913904    1.174195    1.617149
     10          1           0        2.916577   -1.786458   -1.490228
     11          1           0        1.269768   -3.159563   -0.193043
     12          7           0        3.954849    0.557640   -0.758632
     13          8           0        4.327475    0.114097   -1.842632
     14          8           0        4.326116    1.619256   -0.262880
     15          6           0       -4.376226   -1.551751   -0.589505
     16          6           0       -4.891732   -0.260020   -0.440484
     17          6           0       -4.039927    0.819820   -0.189642
     18          6           0       -2.671718    0.570725   -0.093485
     19          6           0       -2.127735   -0.704705   -0.237181
     20          6           0       -2.998302   -1.769586   -0.487558
     21          1           0       -5.045217   -2.384786   -0.784185
     22          1           0       -5.961416   -0.087881   -0.519158
     23          1           0       -4.412215    1.830028   -0.070061
     24          1           0       -1.056888   -0.845059   -0.153478
     25          1           0       -2.595144   -2.771692   -0.602847
     26          7           0       -1.760018    1.705986    0.171825
     27          8           0       -0.558452    1.460156    0.252083
     28          8           0       -2.264259    2.820136    0.294491
 ---------------------------------------------------------------------

 SCF Done:  E(RHF) =  -868.336833476     A.U. after   16 cycles
 E2 =    -0.2602953138D+01 EUMP2 =    -0.87093978661387D+03

 The electronic state is 1-A.
 Alpha  occ. eigenvalues --  -20.61085 -20.61077 -20.60295 -20.60263 -15.86126
 Alpha  occ. eigenvalues --  -15.85337 -11.31512 -11.30773 -11.28105 -11.28007
 Alpha  occ. eigenvalues --  -11.27885 -11.27478 -11.27269 -11.27255 -11.27170
 Alpha  occ. eigenvalues --  -11.27113 -11.26620 -11.26354  -1.60161  -1.59348
 Alpha  occ. eigenvalues --   -1.39713  -1.38902  -1.19710  -1.18995  -1.09107
 Alpha  occ. eigenvalues --   -1.08426  -1.05122  -1.04409  -0.95931  -0.95225
 Alpha  occ. eigenvalues --   -0.86516  -0.85839  -0.82772  -0.82045  -0.77812
 Alpha  occ. eigenvalues --   -0.77046  -0.72371  -0.71569  -0.71490  -0.70825
 Alpha  occ. eigenvalues --   -0.70652  -0.70175  -0.65366  -0.65144  -0.64679
 Alpha  occ. eigenvalues --   -0.64467  -0.62486  -0.61760  -0.55640  -0.55018
 Alpha  occ. eigenvalues --   -0.53455  -0.53389  -0.52539  -0.52499  -0.49121
 Alpha  occ. eigenvalues --   -0.49089  -0.48334  -0.48305  -0.45127  -0.44291
 Alpha  occ. eigenvalues --   -0.37708  -0.37077  -0.36682  -0.35904
 Alpha virt. eigenvalues --    0.04712   0.05481   0.10895   0.11589   0.16096
 Alpha virt. eigenvalues --    0.17011   0.20721   0.21862   0.26517   0.27806
 Alpha virt. eigenvalues --    0.28071   0.28867   0.30639   0.31231   0.32479

 Mulliken charges:
               1
     1  C   -0.184816
     2  C   -0.202174
     3  C   -0.153985
     4  C    0.161608
     5  C   -0.169825
     6  C   -0.228817
     7  H    0.221299
     8  H    0.224783
     9  H    0.279539
    10  H    0.274012
    11  H    0.216671
    12  N    0.488350
    13  O   -0.463491
    14  O   -0.456932
    15  C   -0.169957
    16  C   -0.219340
    17  C   -0.169492
    18  C    0.155002
    19  C   -0.180875
    20  C   -0.223461
    21  H    0.225888
    22  H    0.224546
    23  H    0.276689
    24  H    0.289490
    25  H    0.218255
    26  N    0.488888
    27  O   -0.462761
    28  O   -0.459095
 Sum of Mulliken charges =  -0.00000

 Dipole moment (field-independent basis, Debye):
    X=             -6.4824    Y=             -6.4291    Z=              1.9020  Tot=              9.3259
 Quadrupole moment (field-independent basis, Debye-Ang):
   XX=           -105.5694   YY=           -105.0327   ZZ=           -103.0428
   XY=             -1.0816   XZ=             11.2500   YZ=              2.2459

 Normal termination of Gaussian 16 at Thu May  6 13:10:59 2021.
