 Gaussian 16, Revision A.03,
 Gaussian 16:  EM64L-G16RevA.03 25-Dec-2016

 -------------
 #p 6-31g* mp2
 -------------

 ------------------------------------------------------
 Input file generated by CHIRIPA (05-May-2021 14:51:13)
 ------------------------------------------------------
 Symbolic Z-matrix:
 Charge =  0 Multiplicity = 1

                         Standard orientation:
 ---------------------------------------------------------------------
 Center     Atomic      Atomic             Coordinates (Angstroms)
 Number     Number       Type             X           Y           Z
 ---------------------------------------------------------------------
      1          6           0       -4.385885   -0.461025   -0.284436
      2          6           0       -5.494212    0.305065    0.438547
      3          6           0       -6.887560   -0.024744   -0.097736
      4          1           0       -4.430808   -0.232062   -1.357982
      5          1           0       -4.571508   -1.539643   -0.186847
      6          1           0       -5.305800    1.381895    0.340800
      7          1           0       -5.446524    0.074400    1.510524
      8          1           0       -7.100679   -1.092731    0.014446
      9          1           0       -6.959155    0.222192   -1.161924
     10          1           0       -7.664681    0.533880    0.433191
     11          6           0       -2.987168   -0.141973    0.240468
     12          6           0       -1.878842   -0.908064   -0.482514
     13          6           0       -0.485493   -0.578255    0.053768
     14          1           0       -2.801545    0.936644    0.142880
     15          1           0       -2.942245   -0.370936    1.314015
     16          1           0       -1.926529   -0.677399   -1.554491
     17          1           0       -2.067254   -1.984894   -0.384767
     18          1           0       -0.413898   -0.825191    1.117957
     19          1           0       -0.272374    0.489733   -0.058413
     20          1           0        0.291627   -1.136879   -0.477158
     21          6           0        3.655391    0.990359   -0.306550
     22          6           0        2.769602    1.982461    0.447835
     23          6           0        2.717405    3.356064   -0.221705
     24          1           0        4.671432    1.400993   -0.383900
     25          1           0        3.282038    0.884271   -1.334532
     26          1           0        3.143688    2.085596    1.474498
     27          1           0        1.755597    1.569332    0.523565
     28          1           0        2.323431    3.273636   -1.239836
     29          1           0        3.719410    3.792833   -0.283500
     30          1           0        2.078696    4.049594    0.334108
     31          6           0        3.717663   -0.387360    0.350518
     32          6           0        4.603452   -1.379462   -0.403868
     33          6           0        4.655649   -2.753065    0.265672
     34          1           0        4.091016   -0.281272    1.378500
     35          1           0        2.701621   -0.797995    0.427868
     36          1           0        5.617456   -0.966333   -0.479598
     37          1           0        4.229365   -1.482597   -1.430532
     38          1           0        3.653643   -3.189834    0.327467
     39          1           0        5.049621   -2.670637    1.283804
     40          1           0        5.294358   -3.446595   -0.290142
 ---------------------------------------------------------------------

 SCF Done:  E(RHF) =  -470.732862126     A.U. after   11 cycles
 E2 =    -0.1583311020D+01 EUMP2 =    -0.47231617314566D+03

 The electronic state is 1-A.
 Alpha  occ. eigenvalues --  -11.21680 -11.21633 -11.21541 -11.21468 -11.21457
 Alpha  occ. eigenvalues --  -11.21395 -11.21303 -11.21235 -11.21187 -11.21095
 Alpha  occ. eigenvalues --  -11.21032 -11.21018  -1.08488  -1.08341  -1.03597
 Alpha  occ. eigenvalues --   -1.03458  -0.96055  -0.95909  -0.87078  -0.86927
 Alpha  occ. eigenvalues --   -0.79689  -0.79510  -0.78312  -0.78126  -0.65133
 Alpha  occ. eigenvalues --   -0.64974  -0.61069  -0.60806  -0.59425  -0.59281
 Alpha  occ. eigenvalues --   -0.57676  -0.57505  -0.55357  -0.55190  -0.52782
 Alpha  occ. eigenvalues --   -0.52609  -0.52495  -0.52311  -0.50077  -0.49788
 Alpha  occ. eigenvalues --   -0.48075  -0.47767  -0.46783  -0.46428  -0.45922
 Alpha  occ. eigenvalues --   -0.45766  -0.45669  -0.45496  -0.43800  -0.43697
 Alpha virt. eigenvalues --    0.21226   0.22965   0.23884   0.24623   0.25625
 Alpha virt. eigenvalues --    0.26596   0.27159   0.27475   0.27910   0.29239
 Alpha virt. eigenvalues --    0.29897   0.31472   0.31702   0.31955   0.32307

 Mulliken charges:
               1
     1  C   -0.298322
     2  C   -0.299685
     3  C   -0.475740
     4  H    0.149732
     5  H    0.149649
     6  H    0.152030
     7  H    0.152038
     8  H    0.155233
     9  H    0.155226
    10  H    0.160387
    11  C   -0.298717
    12  C   -0.300399
    13  C   -0.480442
    14  H    0.149717
    15  H    0.149911
    16  H    0.152115
    17  H    0.152237
    18  H    0.156330
    19  H    0.158741
    20  H    0.161194
    21  C   -0.296970
    22  C   -0.307819
    23  C   -0.475535
    24  H    0.149161
    25  H    0.148751
    26  H    0.151395
    27  H    0.161044
    28  H    0.154464
    29  H    0.155103
    30  H    0.159615
    31  C   -0.305248
    32  C   -0.299455
    33  C   -0.475530
    34  H    0.148967
    35  H    0.157906
    36  H    0.151751
    37  H    0.151269
    38  H    0.154758
    39  H    0.155156
    40  H    0.159986
 Sum of Mulliken charges =  -0.00000

 Dipole moment (field-independent basis, Debye):
    X=             -0.0695    Y=             -0.0175    Z=              0.0135  Tot=              0.0729
 Quadrupole moment (field-independent basis, Debye-Ang):
   XX=            -85.4889   YY=            -85.3460   ZZ=            -84.2368
   XY=              0.2684   XZ=              0.0681   YZ=             -0.0237

 Normal termination of Gaussian 16 at Wed May  5 21:37:13 2021.
