 Gaussian 16, Revision A.03,
 Gaussian 16:  EM64L-G16RevA.03 25-Dec-2016

 -------------
 #p 6-31g* mp2
 -------------

 ------------------------------------------------------
 Input file generated by CHIRIPA (05-May-2021 14:55:20)
 ------------------------------------------------------
 Symbolic Z-matrix:
 Charge =  0 Multiplicity = 1

                         Standard orientation:
 ---------------------------------------------------------------------
 Center     Atomic      Atomic             Coordinates (Angstroms)
 Number     Number       Type             X           Y           Z
 ---------------------------------------------------------------------
      1          6           0        4.791666    0.277985   -0.373964
      2          6           0        4.008634   -0.213774   -1.423513
      3          6           0        2.703558   -0.656643   -1.188584
      4          6           0        2.211141   -0.593246    0.114027
      5          6           0        2.966553   -0.108559    1.180667
      6          6           0        4.269048    0.328933    0.922491
      7          1           0        5.804478    0.619928   -0.565492
      8          1           0        4.411890   -0.254509   -2.431367
      9          1           0        2.075528   -1.041992   -1.982626
     10          1           0        2.537006   -0.080268    2.174703
     11          1           0        4.874873    0.710352    1.739523
     12          7           0        0.830882   -1.059246    0.375041
     13          8           0        0.420330   -0.992995    1.531629
     14          8           0        0.185721   -1.481923   -0.581906
     15          6           0       -2.403501    0.920841   -0.068419
     16          6           0       -2.309419    2.446605   -0.102715
     17          6           0       -0.866780    2.951096   -0.057121
     18          1           0       -1.912429    0.549912    0.841639
     19          1           0       -1.842234    0.506650   -0.917430
     20          1           0       -2.871850    2.857847    0.745321
     21          1           0       -2.800940    2.813957   -1.012702
     22          1           0       -0.297736    2.568551   -0.910613
     23          1           0       -0.369050    2.612691    0.857399
     24          1           0       -0.822803    4.044383   -0.082641
     25          6           0       -3.839377    0.401255   -0.113364
     26          6           0       -3.933460   -1.124510   -0.079067
     27          6           0       -5.376097   -1.629001   -0.124662
     28          1           0       -4.400644    0.815445    0.735647
     29          1           0       -4.330449    0.772183   -1.023422
     30          1           0       -3.441938   -1.491861    0.830920
     31          1           0       -3.371028   -1.535751   -0.927104
     32          1           0       -5.873828   -1.290596   -1.039182
     33          1           0       -5.945142   -1.246456    0.728830
     34          1           0       -5.420075   -2.722287   -0.099141
 ---------------------------------------------------------------------

 SCF Done:  E(RHF) =  -669.536414581     A.U. after   15 cycles
 E2 =    -0.2093110124D+01 EUMP2 =    -0.67162952470506D+03

 The electronic state is 1-A.
 Alpha  occ. eigenvalues --  -20.61024 -20.61017 -15.86008 -11.31315 -11.27870
 Alpha  occ. eigenvalues --  -11.27866 -11.27599 -11.26870 -11.26860 -11.20626
 Alpha  occ. eigenvalues --  -11.20458 -11.20095 -11.20036 -11.19913 -11.19761
 Alpha  occ. eigenvalues --   -1.60048  -1.39613  -1.19473  -1.08883  -1.07126
 Alpha  occ. eigenvalues --   -1.04866  -1.02404  -0.95733  -0.94876  -0.86269
 Alpha  occ. eigenvalues --   -0.85915  -0.82574  -0.78437  -0.77629  -0.76883
 Alpha  occ. eigenvalues --   -0.72250  -0.71325  -0.70585  -0.65134  -0.64871
 Alpha  occ. eigenvalues --   -0.63766  -0.62217  -0.59817  -0.58264  -0.56474
 Alpha  occ. eigenvalues --   -0.55373  -0.54188  -0.53198  -0.52960  -0.51641
 Alpha  occ. eigenvalues --   -0.51317  -0.49058  -0.49023  -0.48834  -0.46751
 Alpha  occ. eigenvalues --   -0.45625  -0.45086  -0.44333  -0.44034  -0.42583
 Alpha  occ. eigenvalues --   -0.37440  -0.36463
 Alpha virt. eigenvalues --    0.04854   0.11179   0.16329   0.21308   0.24104
 Alpha virt. eigenvalues --    0.25214   0.27226   0.27977   0.28072   0.28642
 Alpha virt. eigenvalues --    0.29425   0.30978   0.32096   0.32576   0.32778

 Mulliken charges:
               1
     1  C   -0.170384
     2  C   -0.218428
     3  C   -0.171087
     4  C    0.160634
     5  C   -0.170598
     6  C   -0.218343
     7  H    0.226105
     8  H    0.223852
     9  H    0.275405
    10  H    0.275565
    11  H    0.223925
    12  N    0.489387
    13  O   -0.460051
    14  O   -0.457717
    15  C   -0.310512
    16  C   -0.297624
    17  C   -0.476281
    18  H    0.167655
    19  H    0.158149
    20  H    0.148756
    21  H    0.147348
    22  H    0.150344
    23  H    0.154321
    24  H    0.156044
    25  C   -0.298029
    26  C   -0.299096
    27  C   -0.475479
    28  H    0.144171
    29  H    0.142902
    30  H    0.160827
    31  H    0.158618
    32  H    0.150449
    33  H    0.151292
    34  H    0.157881
 Sum of Mulliken charges =  -0.00000

 Dipole moment (field-independent basis, Debye):
    X=              5.1807    Y=              1.3918    Z=             -0.8607  Tot=              5.4330
 Quadrupole moment (field-independent basis, Debye-Ang):
   XX=            -76.0410   YY=            -98.2661   ZZ=            -89.2377
   XY=              0.8073   XZ=             -1.1823   YZ=              2.0989

 Normal termination of Gaussian 16 at Thu May  6 19:05:46 2021.
