 Gaussian 16, Revision A.03,
 Gaussian 16:  EM64L-G16RevA.03 25-Dec-2016

 -------------
 #p 6-31g* mp2
 -------------

 ------------------------------------------------------
 Input file generated by CHIRIPA (05-May-2021 14:57:22)
 ------------------------------------------------------
 Symbolic Z-matrix:
 Charge =  0 Multiplicity = 1

                         Standard orientation:
 ---------------------------------------------------------------------
 Center     Atomic      Atomic             Coordinates (Angstroms)
 Number     Number       Type             X           Y           Z
 ---------------------------------------------------------------------
      1          6           0       -3.023609   -2.406769    0.409428
      2          6           0       -4.231615   -1.705168    0.480127
      3          6           0       -4.274297   -0.335314    0.204036
      4          6           0       -3.084698    0.304213   -0.141147
      5          6           0       -1.865560   -0.367172   -0.220095
      6          6           0       -1.846512   -1.736713    0.060158
      7          1           0       -2.999633   -3.470783    0.625519
      8          1           0       -5.147320   -2.222946    0.751116
      9          1           0       -5.195754    0.232229    0.251261
     10          1           0       -0.969139    0.176327   -0.492962
     11          1           0       -0.906919   -2.279030    0.004465
     12          7           0       -3.117374    1.754251   -0.435635
     13          8           0       -2.055490    2.294582   -0.737434
     14          8           0       -4.204249    2.323002   -0.359081
     15          6           0        3.397200    2.354116    0.734204
     16          6           0        3.930854    1.872153   -0.465566
     17          6           0        3.760879    0.533506   -0.831188
     18          6           0        3.048581   -0.299123    0.030585
     19          6           0        2.504861    0.151238    1.232596
     20          6           0        2.687158    1.493636    1.577968
     21          1           0        3.534027    3.395466    1.010363
     22          1           0        4.482731    2.538129   -1.122796
     23          1           0        4.163401    0.134067   -1.754141
     24          1           0        1.959463   -0.536700    1.867184
     25          1           0        2.271603    1.865176    2.510340
     26          7           0        2.862113   -1.718274   -0.345764
     27          8           0        2.230575   -2.431508    0.430826
     28          8           0        3.351030   -2.090500   -1.410211
 ---------------------------------------------------------------------

 SCF Done:  E(RHF) =  -868.340412769     A.U. after   16 cycles
 E2 =    -0.2598881331D+01 EUMP2 =    -0.87093929410030D+03

 The electronic state is 1-A.
 Alpha  occ. eigenvalues --  -20.61509 -20.61443 -20.60678 -20.60666 -15.86493
 Alpha  occ. eigenvalues --  -15.85719 -11.31553 -11.30913 -11.28091 -11.28039
 Alpha  occ. eigenvalues --  -11.27688 -11.27457 -11.27399 -11.27079 -11.26985
 Alpha  occ. eigenvalues --  -11.26966 -11.26446 -11.26233  -1.60542  -1.59754
 Alpha  occ. eigenvalues --   -1.40104  -1.39312  -1.19675  -1.19041  -1.09115
 Alpha  occ. eigenvalues --   -1.08458  -1.05021  -1.04401  -0.96006  -0.95333
 Alpha  occ. eigenvalues --   -0.86432  -0.85796  -0.82849  -0.82160  -0.77947
 Alpha  occ. eigenvalues --   -0.77238  -0.72713  -0.71942  -0.71857  -0.71075
 Alpha  occ. eigenvalues --   -0.70751  -0.70135  -0.65320  -0.65005  -0.64678
 Alpha  occ. eigenvalues --   -0.64350  -0.62376  -0.61732  -0.55499  -0.54882
 Alpha  occ. eigenvalues --   -0.53371  -0.53100  -0.52762  -0.52445  -0.49493
 Alpha  occ. eigenvalues --   -0.49440  -0.48707  -0.48679  -0.45560  -0.44757
 Alpha  occ. eigenvalues --   -0.37608  -0.37007  -0.36611  -0.36005
 Alpha virt. eigenvalues --    0.04519   0.05257   0.11022   0.11650   0.16080
 Alpha virt. eigenvalues --    0.16808   0.21190   0.21935   0.27019   0.27515
 Alpha virt. eigenvalues --    0.28325   0.28653   0.30779   0.31548   0.32378

 Mulliken charges:
               1
     1  C   -0.171855
     2  C   -0.218483
     3  C   -0.172708
     4  C    0.158098
     5  C   -0.175812
     6  C   -0.226452
     7  H    0.228065
     8  H    0.222292
     9  H    0.273719
    10  H    0.272555
    11  H    0.243141
    12  N    0.488019
    13  O   -0.463647
    14  O   -0.461478
    15  C   -0.167322
    16  C   -0.217071
    17  C   -0.170350
    18  C    0.155080
    19  C   -0.175347
    20  C   -0.215662
    21  H    0.229735
    22  H    0.226230
    23  H    0.276179
    24  H    0.273311
    25  H    0.226682
    26  N    0.487545
    27  O   -0.469036
    28  O   -0.455429
 Sum of Mulliken charges =  -0.00000

 Dipole moment (field-independent basis, Debye):
    X=              1.0743    Y=             -0.0364    Z=              2.3586  Tot=              2.5920
 Quadrupole moment (field-independent basis, Debye-Ang):
   XX=            -95.6951   YY=           -111.5294   ZZ=           -102.2540
   XY=             32.4594   XZ=             -2.7787   YZ=              0.2839

 Normal termination of Gaussian 16 at Fri May  7 04:52:42 2021.
