 Gaussian 16, Revision A.03,
 Gaussian 16:  EM64L-G16RevA.03 25-Dec-2016

 -------------
 #p 6-31g* mp2
 -------------

 ------------------------------------------------------
 Input file generated by CHIRIPA (05-May-2021 14:57:21)
 ------------------------------------------------------
 Symbolic Z-matrix:
 Charge =  0 Multiplicity = 1

                         Standard orientation:
 ---------------------------------------------------------------------
 Center     Atomic      Atomic             Coordinates (Angstroms)
 Number     Number       Type             X           Y           Z
 ---------------------------------------------------------------------
      1          6           0       -3.098642    2.520110    0.315562
      2          6           0       -4.279855    2.031933    0.883842
      3          6           0       -4.666106    0.702819    0.686835
      4          6           0       -3.843662   -0.114044   -0.087511
      5          6           0       -2.660959    0.342855   -0.666949
      6          6           0       -2.294382    1.675502   -0.456658
      7          1           0       -2.806235    3.553970    0.473761
      8          1           0       -4.906409    2.685588    1.484017
      9          1           0       -5.575415    0.298873    1.115090
     10          1           0       -2.056981   -0.332756   -1.260396
     11          1           0       -1.376498    2.051899   -0.899217
     12          7           0       -4.242154   -1.522988   -0.303105
     13          8           0       -3.500187   -2.222370   -0.989389
     14          8           0       -5.288915   -1.901258    0.218278
     15          6           0        6.292622    0.084147    0.012052
     16          6           0        5.504099    1.022110   -0.662470
     17          6           0        4.109876    0.919861   -0.647140
     18          6           0        3.534880   -0.137726    0.055839
     19          6           0        4.293408   -1.088024    0.737645
     20          6           0        5.685829   -0.966075    0.708728
     21          1           0        7.374989    0.171228   -0.005134
     22          1           0        5.972608    1.838764   -1.204337
     23          1           0        3.475518    1.632073   -1.160717
     24          1           0        3.797559   -1.891167    1.269167
     25          1           0        6.295700   -1.695968    1.233473
     26          7           0        2.059832   -0.256400    0.079260
     27          8           0        1.577586   -1.197371    0.705878
     28          8           0        1.413863    0.593801   -0.529445
 ---------------------------------------------------------------------

 SCF Done:  E(RHF) =  -868.339571847     A.U. after   16 cycles
 E2 =    -0.2598639176D+01 EUMP2 =    -0.87093821102334D+03

 The electronic state is 1-A.
 Alpha  occ. eigenvalues --  -20.61434 -20.61370 -20.59673 -20.59647 -15.86438
 Alpha  occ. eigenvalues --  -15.84707 -11.31621 -11.29908 -11.28195 -11.28138
 Alpha  occ. eigenvalues --  -11.27874 -11.27155 -11.27119 -11.26543 -11.26321
 Alpha  occ. eigenvalues --  -11.26233 -11.25579 -11.25295  -1.60461  -1.58739
 Alpha  occ. eigenvalues --   -1.40022  -1.38296  -1.19775  -1.18071  -1.09203
 Alpha  occ. eigenvalues --   -1.07520  -1.05152  -1.03422  -0.96070  -0.94376
 Alpha  occ. eigenvalues --   -0.86558  -0.84852  -0.82913  -0.81190  -0.77978
 Alpha  occ. eigenvalues --   -0.76243  -0.72674  -0.71763  -0.70937  -0.70882
 Alpha  occ. eigenvalues --   -0.70054  -0.69222  -0.65434  -0.65153  -0.63724
 Alpha  occ. eigenvalues --   -0.63425  -0.62502  -0.60756  -0.55657  -0.54012
 Alpha  occ. eigenvalues --   -0.53489  -0.53242  -0.51801  -0.51507  -0.49438
 Alpha  occ. eigenvalues --   -0.49385  -0.47696  -0.47676  -0.45465  -0.43736
 Alpha  occ. eigenvalues --   -0.37742  -0.36746  -0.36098  -0.35000
 Alpha virt. eigenvalues --    0.04550   0.06254   0.10912   0.12626   0.16080
 Alpha virt. eigenvalues --    0.17769   0.21054   0.22687   0.26984   0.27847
 Alpha virt. eigenvalues --    0.28720   0.29505   0.30654   0.32009   0.32315

 Mulliken charges:
               1
     1  C   -0.172977
     2  C   -0.219155
     3  C   -0.173143
     4  C    0.156997
     5  C   -0.165857
     6  C   -0.216484
     7  H    0.220299
     8  H    0.217871
     9  H    0.271177
    10  H    0.281567
    11  H    0.234502
    12  N    0.488290
    13  O   -0.459405
    14  O   -0.465658
    15  C   -0.170106
    16  C   -0.218436
    17  C   -0.170687
    18  C    0.158124
    19  C   -0.170086
    20  C   -0.218505
    21  H    0.227135
    22  H    0.224041
    23  H    0.272757
    24  H    0.277874
    25  H    0.225465
    26  N    0.491290
    27  O   -0.452983
    28  O   -0.473908
 Sum of Mulliken charges =  -0.00000

 Dipole moment (field-independent basis, Debye):
    X=              7.1530    Y=              5.2348    Z=              0.6448  Tot=              8.8873
 Quadrupole moment (field-independent basis, Debye-Ang):
   XX=            -77.2912   YY=           -103.8010   ZZ=           -103.0583
   XY=            -19.5808   XZ=             -4.9522   YZ=             -2.9394

 Normal termination of Gaussian 16 at Thu May  6 17:52:09 2021.
