 Gaussian 16, Revision A.03,
 Gaussian 16:  EM64L-G16RevA.03 25-Dec-2016

 -------------
 #p 6-31g* mp2
 -------------

 ------------------------------------------------------
 Input file generated by CHIRIPA (05-May-2021 14:51:13)
 ------------------------------------------------------
 Symbolic Z-matrix:
 Charge =  0 Multiplicity = 1

                         Standard orientation:
 ---------------------------------------------------------------------
 Center     Atomic      Atomic             Coordinates (Angstroms)
 Number     Number       Type             X           Y           Z
 ---------------------------------------------------------------------
      1          6           0        1.913385   -0.755007    0.251012
      2          6           0        2.496347   -1.590060    1.391550
      3          6           0        1.640327   -2.811687    1.727184
      4          1           0        0.899778   -0.430569    0.523565
      5          1           0        1.809706   -1.387622   -0.641425
      6          1           0        2.600187   -0.955702    2.281170
      7          1           0        3.508758   -1.912387    1.116330
      8          1           0        1.546638   -3.467641    0.855663
      9          1           0        0.632905   -2.505520    2.027121
     10          1           0        2.075463   -3.394344    2.545125
     11          6           0        2.757922    0.469729   -0.096131
     12          6           0        2.174960    1.304781   -1.236670
     13          6           0        3.030980    2.526409   -1.572303
     14          1           0        2.861601    1.102344    0.796306
     15          1           0        3.771529    0.145290   -0.368684
     16          1           0        1.162550    1.627108   -0.961450
     17          1           0        2.071121    0.670423   -2.126289
     18          1           0        4.038402    2.220241   -1.872241
     19          1           0        3.124669    3.182363   -0.700782
     20          1           0        2.595845    3.109066   -2.390244
     21          6           0       -1.959707   -0.440168   -0.397491
     22          6           0       -2.874141   -1.422044   -1.130784
     23          6           0       -2.107376   -2.582499   -1.765771
     24          1           0       -1.214253   -0.046977   -1.102221
     25          1           0       -1.401039   -0.980413    0.379309
     26          1           0       -3.431939   -0.879839   -1.905053
     27          1           0       -3.617626   -1.812797   -0.424272
     28          1           0       -1.563870   -3.148645   -1.002435
     29          1           0       -1.377129   -2.210387   -2.491630
     30          1           0       -2.780365   -3.272184   -2.284694
     31          6           0       -2.711599    0.725447    0.242611
     32          6           0       -1.797166    1.707322    0.975903
     33          6           0       -2.563931    2.867778    1.610890
     34          1           0       -3.270268    1.265692   -0.534190
     35          1           0       -3.457055    0.332256    0.947341
     36          1           0       -1.053682    2.098075    0.269391
     37          1           0       -1.239368    1.165118    1.750173
     38          1           0       -3.294179    2.495666    2.336749
     39          1           0       -3.107438    3.433923    0.847554
     40          1           0       -1.890943    3.557463    2.129813
 ---------------------------------------------------------------------

 SCF Done:  E(RHF) =  -470.732330440     A.U. after   11 cycles
 E2 =    -0.1585349108D+01 EUMP2 =    -0.47231767954731D+03

 The electronic state is 1-A.
 Alpha  occ. eigenvalues --  -11.21701 -11.21590 -11.21581 -11.21552 -11.21427
 Alpha  occ. eigenvalues --  -11.21331 -11.21320 -11.21190 -11.21141 -11.21090
 Alpha  occ. eigenvalues --  -11.21066 -11.21048  -1.08501  -1.08340  -1.03568
 Alpha  occ. eigenvalues --   -1.03502  -0.96017  -0.95939  -0.87033  -0.86960
 Alpha  occ. eigenvalues --   -0.79675  -0.79536  -0.78630  -0.77864  -0.65110
 Alpha  occ. eigenvalues --   -0.65008  -0.60999  -0.60876  -0.59405  -0.59289
 Alpha  occ. eigenvalues --   -0.57694  -0.57501  -0.55290  -0.55240  -0.52727
 Alpha  occ. eigenvalues --   -0.52649  -0.52502  -0.52313  -0.49965  -0.49889
 Alpha  occ. eigenvalues --   -0.48095  -0.47802  -0.46816  -0.46686  -0.46509
 Alpha  occ. eigenvalues --   -0.45686  -0.45571  -0.44776  -0.43804  -0.43728
 Alpha virt. eigenvalues --    0.20528   0.21896   0.23565   0.23942   0.24865
 Alpha virt. eigenvalues --    0.26243   0.26935   0.27579   0.28498   0.30139
 Alpha virt. eigenvalues --    0.31234   0.31581   0.31626   0.31881   0.32031

 Mulliken charges:
               1
     1  C   -0.307286
     2  C   -0.299399
     3  C   -0.477064
     4  H    0.162369
     5  H    0.148732
     6  H    0.151290
     7  H    0.151618
     8  H    0.155701
     9  H    0.154402
    10  H    0.160395
    11  C   -0.297010
    12  C   -0.307039
    13  C   -0.475366
    14  H    0.149007
    15  H    0.149086
    16  H    0.158021
    17  H    0.151323
    18  H    0.155364
    19  H    0.155190
    20  H    0.159721
    21  C   -0.305454
    22  C   -0.299005
    23  C   -0.476208
    24  H    0.154252
    25  H    0.153135
    26  H    0.151684
    27  H    0.151669
    28  H    0.156200
    29  H    0.155055
    30  H    0.160033
    31  C   -0.297602
    32  C   -0.306471
    33  C   -0.475346
    34  H    0.149571
    35  H    0.149587
    36  H    0.156829
    37  H    0.151521
    38  H    0.155559
    39  H    0.155619
    40  H    0.160318
 Sum of Mulliken charges =  -0.00000

 Dipole moment (field-independent basis, Debye):
    X=             -0.0422    Y=              0.0088    Z=             -0.0018  Tot=              0.0431
 Quadrupole moment (field-independent basis, Debye-Ang):
   XX=            -85.0523   YY=            -85.8701   ZZ=            -84.0238
   XY=             -0.3739   XZ=             -0.0689   YZ=             -0.1851

 Normal termination of Gaussian 16 at Thu May  6 00:49:05 2021.
