 Gaussian 16, Revision A.03,
 Gaussian 16:  EM64L-G16RevA.03 25-Dec-2016

 -------------
 #p 6-31g* mp2
 -------------

 ------------------------------------------------------
 Input file generated by CHIRIPA (05-May-2021 14:55:19)
 ------------------------------------------------------
 Symbolic Z-matrix:
 Charge =  0 Multiplicity = 1

                         Standard orientation:
 ---------------------------------------------------------------------
 Center     Atomic      Atomic             Coordinates (Angstroms)
 Number     Number       Type             X           Y           Z
 ---------------------------------------------------------------------
      1          6           0        4.817579    2.001164   -0.308086
      2          6           0        4.292496    1.765774    0.966826
      3          6           0        3.483683    0.650986    1.206864
      4          6           0        3.219099   -0.211648    0.144252
      5          6           0        3.727469   -0.004264   -1.137092
      6          6           0        4.533890    1.116953   -1.354132
      7          1           0        5.444955    2.869655   -0.485621
      8          1           0        4.511142    2.450769    1.781087
      9          1           0        3.064138    0.444807    2.184049
     10          1           0        3.491909   -0.704962   -1.928895
     11          1           0        4.940309    1.297250   -2.345273
     12          7           0        2.364111   -1.395227    0.386196
     13          8           0        2.145873   -2.140130   -0.566762
     14          8           0        1.928399   -1.555602    1.524208
     15          6           0       -3.661225   -0.270150    0.165496
     16          6           0       -2.601540   -0.610012   -0.883098
     17          6           0       -1.327813   -1.191956   -0.269294
     18          1           0       -3.239610    0.444748    0.885290
     19          1           0       -3.908464   -1.177264    0.734191
     20          1           0       -2.357381    0.297171   -1.450565
     21          1           0       -3.025789   -1.324039   -1.600590
     22          1           0       -1.550823   -2.111708    0.281093
     23          1           0       -0.878617   -0.481285    0.431969
     24          1           0       -0.583828   -1.427687   -1.036612
     25          6           0       -4.940403    0.312596   -0.432699
     26          6           0       -6.000088    0.652458    0.615894
     27          6           0       -7.273814    1.234402    0.002091
     28          1           0       -4.693164    1.219709   -1.001393
     29          1           0       -5.362018   -0.402304   -1.152494
     30          1           0       -5.575840    1.366485    1.333386
     31          1           0       -6.244247   -0.254726    1.183363
     32          1           0       -7.723011    0.523731   -0.699173
     33          1           0       -7.050806    2.154153   -0.548296
     34          1           0       -8.017800    1.470132    0.769409
 ---------------------------------------------------------------------

 SCF Done:  E(RHF) =  -669.535993732     A.U. after   15 cycles
 E2 =    -0.2091591553D+01 EUMP2 =    -0.67162758528509D+03

 The electronic state is 1-A.
 Alpha  occ. eigenvalues --  -20.60875 -20.60858 -15.85881 -11.31246 -11.27813
 Alpha  occ. eigenvalues --  -11.27810 -11.27556 -11.26828 -11.26819 -11.21184
 Alpha  occ. eigenvalues --  -11.20864 -11.20742 -11.20729 -11.20661 -11.19710
 Alpha  occ. eigenvalues --   -1.59911  -1.39472  -1.19416  -1.08813  -1.07800
 Alpha  occ. eigenvalues --   -1.04819  -1.02825  -0.95653  -0.95240  -0.86251
 Alpha  occ. eigenvalues --   -0.86217  -0.82486  -0.78909  -0.77595  -0.77534
 Alpha  occ. eigenvalues --   -0.72114  -0.71219  -0.70526  -0.65073  -0.64822
 Alpha  occ. eigenvalues --   -0.64443  -0.62167  -0.60235  -0.58655  -0.56852
 Alpha  occ. eigenvalues --   -0.55322  -0.54543  -0.53154  -0.52912  -0.51904
 Alpha  occ. eigenvalues --   -0.51663  -0.49199  -0.48871  -0.48855  -0.47223
 Alpha  occ. eigenvalues --   -0.45976  -0.45167  -0.45065  -0.44797  -0.43016
 Alpha  occ. eigenvalues --   -0.37394  -0.36422
 Alpha virt. eigenvalues --    0.04965   0.11231   0.16429   0.21361   0.23440
 Alpha virt. eigenvalues --    0.25046   0.27231   0.27279   0.28072   0.28158
 Alpha virt. eigenvalues --    0.28821   0.30914   0.32033   0.32320   0.32381

 Mulliken charges:
               1
     1  C   -0.170717
     2  C   -0.218570
     3  C   -0.171112
     4  C    0.159188
     5  C   -0.170898
     6  C   -0.218546
     7  H    0.225795
     8  H    0.223629
     9  H    0.275735
    10  H    0.275557
    11  H    0.223647
    12  N    0.489639
    13  O   -0.459334
    14  O   -0.458536
    15  C   -0.297090
    16  C   -0.301076
    17  C   -0.477845
    18  H    0.147687
    19  H    0.150430
    20  H    0.145571
    21  H    0.149985
    22  H    0.161002
    23  H    0.150193
    24  H    0.170653
    25  C   -0.297453
    26  C   -0.299073
    27  C   -0.475286
    28  H    0.147167
    29  H    0.148978
    30  H    0.150767
    31  H    0.152178
    32  H    0.154866
    33  H    0.153900
    34  H    0.158965
 Sum of Mulliken charges =  -0.00000

 Dipole moment (field-independent basis, Debye):
    X=              3.2628    Y=              4.0515    Z=             -0.8121  Tot=              5.2649
 Quadrupole moment (field-independent basis, Debye-Ang):
   XX=            -77.6886   YY=            -95.9504   ZZ=            -90.5972
   XY=             13.9810   XZ=             -3.2958   YZ=              2.4785

 Normal termination of Gaussian 16 at Thu May  6 01:18:37 2021.
