 Gaussian 16, Revision A.03,
 Gaussian 16:  EM64L-G16RevA.03 25-Dec-2016

 -------------
 #p 6-31g* mp2
 -------------

 ------------------------------------------------------
 Input file generated by CHIRIPA (05-May-2021 14:57:25)
 ------------------------------------------------------
 Symbolic Z-matrix:
 Charge =  0 Multiplicity = 1

                         Standard orientation:
 ---------------------------------------------------------------------
 Center     Atomic      Atomic             Coordinates (Angstroms)
 Number     Number       Type             X           Y           Z
 ---------------------------------------------------------------------
      1          6           0       -2.236499    2.224663    0.300762
      2          6           0       -1.854064    1.063813    0.980976
      3          6           0       -2.641643   -0.089444    0.915662
      4          6           0       -3.810632   -0.046428    0.157437
      5          6           0       -4.218439    1.094788   -0.531483
      6          6           0       -3.415388    2.236425   -0.451969
      7          1           0       -1.618679    3.116027    0.357015
      8          1           0       -0.939039    1.051784    1.566322
      9          1           0       -2.369202   -1.001695    1.432374
     10          1           0       -5.136007    1.076278   -1.106934
     11          1           0       -3.714869    3.136535   -0.981269
     12          7           0       -4.652596   -1.261178    0.080775
     13          8           0       -5.677896   -1.197530   -0.594019
     14          8           0       -4.271286   -2.253946    0.696934
     15          6           0        6.129737   -0.167252    0.399675
     16          6           0        5.419848    1.037945    0.390726
     17          6           0        4.057700    1.057316    0.076515
     18          6           0        3.434248   -0.152475   -0.225153
     19          6           0        4.114215   -1.369411   -0.224681
     20          6           0        5.475808   -1.364971    0.092485
     21          1           0        7.187670   -0.173050    0.644909
     22          1           0        5.925100    1.969634    0.628887
     23          1           0        3.484028    1.976071    0.062136
     24          1           0        3.583195   -2.282111   -0.466374
     25          1           0        6.024592   -2.302438    0.098654
     26          7           0        1.992497   -0.144572   -0.559357
     27          8           0        1.466333   -1.223953   -0.821512
     28          8           0        1.415917    0.940854   -0.552824
 ---------------------------------------------------------------------

 SCF Done:  E(RHF) =  -868.338758214     A.U. after   16 cycles
 E2 =    -0.2599117483D+01 EUMP2 =    -0.87093787569750D+03

 The electronic state is 1-A.
 Alpha  occ. eigenvalues --  -20.61525 -20.61469 -20.59735 -20.59723 -15.86535
 Alpha  occ. eigenvalues --  -15.84777 -11.31756 -11.29922 -11.28336 -11.28275
 Alpha  occ. eigenvalues --  -11.28005 -11.27295 -11.27255 -11.26509 -11.26407
 Alpha  occ. eigenvalues --  -11.26151 -11.25511 -11.25357  -1.60568  -1.58809
 Alpha  occ. eigenvalues --   -1.40127  -1.38370  -1.19912  -1.18061  -1.09331
 Alpha  occ. eigenvalues --   -1.07496  -1.05291  -1.03440  -0.96190  -0.94376
 Alpha  occ. eigenvalues --   -0.86695  -0.84852  -0.83027  -0.81226  -0.78097
 Alpha  occ. eigenvalues --   -0.76305  -0.72755  -0.71894  -0.71014  -0.71007
 Alpha  occ. eigenvalues --   -0.70123  -0.69191  -0.65565  -0.65287  -0.63726
 Alpha  occ. eigenvalues --   -0.63458  -0.62641  -0.60815  -0.55787  -0.53961
 Alpha  occ. eigenvalues --   -0.53630  -0.53378  -0.51768  -0.51559  -0.49511
 Alpha  occ. eigenvalues --   -0.49474  -0.47770  -0.47744  -0.45560  -0.43826
 Alpha  occ. eigenvalues --   -0.37882  -0.36889  -0.35992  -0.34991
 Alpha virt. eigenvalues --    0.04407   0.06232   0.10767   0.12658   0.15937
 Alpha virt. eigenvalues --    0.17797   0.20937   0.22649   0.26854   0.27787
 Alpha virt. eigenvalues --    0.28536   0.29499   0.30530   0.32002   0.32168

 Mulliken charges:
               1
     1  C   -0.165900
     2  C   -0.201427
     3  C   -0.168959
     4  C    0.157850
     5  C   -0.172614
     6  C   -0.219307
     7  H    0.222708
     8  H    0.222146
     9  H    0.272933
    10  H    0.271114
    11  H    0.218227
    12  N    0.488421
    13  O   -0.464548
    14  O   -0.462461
    15  C   -0.170176
    16  C   -0.218326
    17  C   -0.171578
    18  C    0.157554
    19  C   -0.170628
    20  C   -0.218396
    21  H    0.227553
    22  H    0.224286
    23  H    0.272548
    24  H    0.277840
    25  H    0.225884
    26  N    0.487398
    27  O   -0.454629
    28  O   -0.467514
 Sum of Mulliken charges =  -0.00000

 Dipole moment (field-independent basis, Debye):
    X=              8.5433    Y=              4.1652    Z=              1.4432  Tot=              9.6135
 Quadrupole moment (field-independent basis, Debye-Ang):
   XX=            -92.1673   YY=            -99.7343   ZZ=           -104.9485
   XY=            -19.5543   XZ=              4.5982   YZ=             -0.3565

 Normal termination of Gaussian 16 at Thu May  6 21:19:18 2021.
