 Gaussian 16, Revision A.03,
 Gaussian 16:  EM64L-G16RevA.03 25-Dec-2016

 -------------
 #p 6-31g* mp2
 -------------

 ------------------------------------------------------
 Input file generated by CHIRIPA (05-May-2021 14:57:26)
 ------------------------------------------------------
 Symbolic Z-matrix:
 Charge =  0 Multiplicity = 1

                         Standard orientation:
 ---------------------------------------------------------------------
 Center     Atomic      Atomic             Coordinates (Angstroms)
 Number     Number       Type             X           Y           Z
 ---------------------------------------------------------------------
      1          6           0        5.269110   -0.219070    0.423914
      2          6           0        4.476437   -1.370198    0.479554
      3          6           0        3.116802   -1.312173    0.159279
      4          6           0        2.580251   -0.080963   -0.214249
      5          6           0        3.343913    1.083465   -0.279189
      6          6           0        4.701319    1.001934    0.045387
      7          1           0        6.324441   -0.273275    0.674382
      8          1           0        4.914694   -2.319805    0.773189
      9          1           0        2.480114   -2.187869    0.193967
     10          1           0        2.878626    2.015761   -0.575415
     11          1           0        5.314506    1.897537    0.001298
     12          7           0        1.142046   -0.007093   -0.555586
     13          8           0        0.693329    1.089695   -0.881697
     14          8           0        0.490731   -1.047379   -0.490552
     15          6           0       -2.348393    2.556279    0.439052
     16          6           0       -2.362813    1.714531    1.556089
     17          6           0       -2.621472    0.348171    1.412199
     18          6           0       -2.862614   -0.144990    0.130820
     19          6           0       -2.855102    0.668065   -1.001512
     20          6           0       -2.594150    2.031286   -0.833938
     21          1           0       -2.146570    3.616481    0.560028
     22          1           0       -2.172297    2.119482    2.545919
     23          1           0       -2.638683   -0.326072    2.259854
     24          1           0       -3.048635    0.235247   -1.975489
     25          1           0       -2.583586    2.682632   -1.703239
     26          7           0       -3.137659   -1.589833   -0.034045
     27          8           0       -3.347053   -1.999703   -1.173694
     28          8           0       -3.138638   -2.285070    0.979503
 ---------------------------------------------------------------------

 SCF Done:  E(RHF) =  -868.337865405     A.U. after   16 cycles
 E2 =    -0.2602145347D+01 EUMP2 =    -0.87094001075206D+03

 The electronic state is 1-A.
 Alpha  occ. eigenvalues --  -20.61069 -20.61022 -20.59210 -20.59187 -15.86072
 Alpha  occ. eigenvalues --  -15.84249 -11.31381 -11.29428 -11.27978 -11.27897
 Alpha  occ. eigenvalues --  -11.27675 -11.26966 -11.26911 -11.26089 -11.25951
 Alpha  occ. eigenvalues --  -11.25831 -11.25175 -11.25018  -1.60107  -1.58254
 Alpha  occ. eigenvalues --   -1.39664  -1.37827  -1.19548  -1.17597  -1.08956
 Alpha  occ. eigenvalues --   -1.07056  -1.04940  -1.03042  -0.95802  -0.93935
 Alpha  occ. eigenvalues --   -0.86340  -0.84478  -0.82635  -0.80813  -0.77687
 Alpha  occ. eigenvalues --   -0.75855  -0.72318  -0.71424  -0.70653  -0.70515
 Alpha  occ. eigenvalues --   -0.69504  -0.68849  -0.65202  -0.64942  -0.63330
 Alpha  occ. eigenvalues --   -0.63151  -0.62285  -0.60456  -0.55455  -0.53648
 Alpha  occ. eigenvalues --   -0.53280  -0.53030  -0.51537  -0.51224  -0.49065
 Alpha  occ. eigenvalues --   -0.48776  -0.47258  -0.47242  -0.45091  -0.43288
 Alpha  occ. eigenvalues --   -0.37527  -0.36542  -0.35502  -0.34544
 Alpha virt. eigenvalues --    0.04819   0.06771   0.11114   0.13045   0.16336
 Alpha virt. eigenvalues --    0.18275   0.21268   0.22813   0.27179   0.28165
 Alpha virt. eigenvalues --    0.28681   0.29704   0.30823   0.32253   0.32402

 Mulliken charges:
               1
     1  C   -0.170600
     2  C   -0.218707
     3  C   -0.170641
     4  C    0.158084
     5  C   -0.171508
     6  C   -0.218672
     7  H    0.226217
     8  H    0.225282
     9  H    0.279848
    10  H    0.272658
    11  H    0.222904
    12  N    0.489376
    13  O   -0.463537
    14  O   -0.457786
    15  C   -0.166459
    16  C   -0.220532
    17  C   -0.173962
    18  C    0.174317
    19  C   -0.159539
    20  C   -0.202332
    21  H    0.216595
    22  H    0.213904
    23  H    0.268367
    24  H    0.270734
    25  H    0.216445
    26  N    0.491549
    27  O   -0.463589
    28  O   -0.468414
 Sum of Mulliken charges =  -0.00000

 Dipole moment (field-independent basis, Debye):
    X=              6.3459    Y=              4.6870    Z=              1.5502  Tot=              8.0400
 Quadrupole moment (field-independent basis, Debye-Ang):
   XX=            -86.2996   YY=           -102.5365   ZZ=           -101.4563
   XY=            -15.5640   XZ=              1.6679   YZ=             -1.4537

 Normal termination of Gaussian 16 at Thu May  6 06:47:26 2021.
