 Gaussian 16, Revision A.03,
 Gaussian 16:  EM64L-G16RevA.03 25-Dec-2016

 -------------
 #p 6-31g* mp2
 -------------

 ------------------------------------------------------
 Input file generated by CHIRIPA (05-May-2021 14:57:24)
 ------------------------------------------------------
 Symbolic Z-matrix:
 Charge =  0 Multiplicity = 1

                         Standard orientation:
 ---------------------------------------------------------------------
 Center     Atomic      Atomic             Coordinates (Angstroms)
 Number     Number       Type             X           Y           Z
 ---------------------------------------------------------------------
      1          6           0        2.263180    2.243842   -0.031039
      2          6           0        2.133642    1.397900    1.075362
      3          6           0        2.817090    0.179151    1.121163
      4          6           0        3.625198   -0.163729    0.038257
      5          6           0        3.774693    0.657587   -1.078158
      6          6           0        3.081849    1.871642   -1.102379
      7          1           0        1.728611    3.188772   -0.058236
      8          1           0        1.498552    1.684370    1.908813
      9          1           0        2.734836   -0.494735    1.965278
     10          1           0        4.415143    0.344778   -1.893874
     11          1           0        3.184339    2.526621   -1.962927
     12          7           0        4.353707   -1.451479    0.075321
     13          8           0        5.059437   -1.730557   -0.891477
     14          8           0        4.205189   -2.157355    1.070468
     15          6           0       -1.405821    1.336175    0.171515
     16          6           0       -2.659965    1.946845    0.275091
     17          6           0       -3.829817    1.189471    0.163829
     18          6           0       -3.708084   -0.182374   -0.051837
     19          6           0       -2.473078   -0.819915   -0.159501
     20          6           0       -1.316538   -0.042824   -0.045067
     21          1           0       -0.502224    1.932179    0.259177
     22          1           0       -2.732336    3.017602    0.443280
     23          1           0       -4.813552    1.636541    0.240070
     24          1           0       -2.432879   -1.889332   -0.327278
     25          1           0       -0.343898   -0.519772   -0.125918
     26          7           0       -4.939507   -0.994609   -0.171303
     27          8           0       -4.805291   -2.201489   -0.361207
     28          8           0       -6.015595   -0.408978   -0.072775
 ---------------------------------------------------------------------

 SCF Done:  E(RHF) =  -868.335819790     A.U. after   16 cycles
 E2 =    -0.2602655851D+01 EUMP2 =    -0.87093847564027D+03

 The electronic state is 1-A.
 Alpha  occ. eigenvalues --  -20.61677 -20.61671 -20.60990 -20.60981 -15.86738
 Alpha  occ. eigenvalues --  -15.86043 -11.32381 -11.31495 -11.28971 -11.28899
 Alpha  occ. eigenvalues --  -11.28797 -11.28089 -11.28079 -11.28024 -11.27985
 Alpha  occ. eigenvalues --  -11.27803 -11.27157 -11.27036  -1.60748  -1.60062
 Alpha  occ. eigenvalues --   -1.40293  -1.39613  -1.20590  -1.19672  -1.09964
 Alpha  occ. eigenvalues --   -1.09063  -1.06002  -1.05077  -0.96741  -0.95886
 Alpha  occ. eigenvalues --   -0.87405  -0.86475  -0.83532  -0.82714  -0.78519
 Alpha  occ. eigenvalues --   -0.77730  -0.72951  -0.72259  -0.72081  -0.71805
 Alpha  occ. eigenvalues --   -0.71387  -0.70793  -0.66223  -0.65980  -0.65322
 Alpha  occ. eigenvalues --   -0.65087  -0.63302  -0.62418  -0.56571  -0.55747
 Alpha  occ. eigenvalues --   -0.54224  -0.54057  -0.53414  -0.53143  -0.49728
 Alpha  occ. eigenvalues --   -0.49687  -0.49027  -0.49009  -0.45636  -0.44998
 Alpha  occ. eigenvalues --   -0.38584  -0.37809  -0.37485  -0.36675
 Alpha virt. eigenvalues --    0.03927   0.04781   0.09912   0.10958   0.15286
 Alpha virt. eigenvalues --    0.16247   0.19396   0.21869   0.25738   0.26346
 Alpha virt. eigenvalues --    0.27071   0.29204   0.29866   0.30917   0.32173

 Mulliken charges:
               1
     1  C   -0.178861
     2  C   -0.224750
     3  C   -0.175389
     4  C    0.158641
     5  C   -0.170112
     6  C   -0.217022
     7  H    0.224904
     8  H    0.227551
     9  H    0.280369
    10  H    0.280238
    11  H    0.228564
    12  N    0.487751
    13  O   -0.456329
    14  O   -0.457314
    15  C   -0.173442
    16  C   -0.220256
    17  C   -0.170587
    18  C    0.158896
    19  C   -0.170658
    20  C   -0.224358
    21  H    0.219957
    22  H    0.220816
    23  H    0.276041
    24  H    0.278220
    25  H    0.227962
    26  N    0.487844
    27  O   -0.458535
    28  O   -0.460140
 Sum of Mulliken charges =  -0.00000

 Dipole moment (field-independent basis, Debye):
    X=              2.1050    Y=              7.2064    Z=              0.2053  Tot=              7.5103
 Quadrupole moment (field-independent basis, Debye-Ang):
   XX=           -152.9552   YY=           -104.7107   ZZ=           -101.5111
   XY=              3.4647   XZ=             -4.9871   YZ=             -0.5817

 Normal termination of Gaussian 16 at Fri May  7 08:00:57 2021.
