 Gaussian 16, Revision A.03,
 Gaussian 16:  EM64L-G16RevA.03 25-Dec-2016

 -------------
 #p 6-31g* mp2
 -------------

 ------------------------------------------------------
 Input file generated by CHIRIPA (05-May-2021 14:53:12)
 ------------------------------------------------------
 Symbolic Z-matrix:
 Charge =  0 Multiplicity = 1

                         Standard orientation:
 ---------------------------------------------------------------------
 Center     Atomic      Atomic             Coordinates (Angstroms)
 Number     Number       Type             X           Y           Z
 ---------------------------------------------------------------------
      1          6           0       -3.828185   -0.254780   -0.243393
      2          6           0       -4.429549   -1.510746    0.388190
      3          6           0       -5.032578   -2.461786   -0.646061
      4          1           0       -4.606381    0.268879   -0.815352
      5          1           0       -3.054860   -0.550421   -0.965860
      6          1           0       -5.200548   -1.212776    1.110263
      7          1           0       -3.649879   -2.031375    0.958870
      8          1           0       -4.269860   -2.787566   -1.360714
      9          1           0       -5.829340   -1.964316   -1.208461
     10          1           0       -5.456773   -3.352852   -0.172860
     11          6           0       -3.221410    0.705765    0.777834
     12          6           0       -2.620047    1.961731    0.146252
     13          6           0       -2.017018    2.912771    1.180502
     14          1           0       -3.994736    1.001405    1.500302
     15          1           0       -2.443215    0.182106    1.349794
     16          1           0       -3.399717    2.482359   -0.424428
     17          1           0       -1.849048    1.663760   -0.575821
     18          1           0       -1.220255    2.415301    1.742903
     19          1           0       -2.779735    3.238551    1.895156
     20          1           0       -1.592822    3.803837    0.707302
     21          6           0        4.904685   -1.010434    0.812698
     22          6           0        4.903472    0.153331    0.036702
     23          6           0        3.717571    0.624825   -0.534158
     24          6           0        2.545804   -0.095512   -0.307517
     25          6           0        2.514688   -1.258265    0.460810
     26          6           0        3.712391   -1.711282    1.021906
     27          1           0        5.830506   -1.369525    1.252363
     28          1           0        5.827929    0.699659   -0.127455
     29          1           0        3.688110    1.522892   -1.139158
     30          1           0        1.577408   -1.781370    0.606712
     31          1           0        3.710344   -2.615380    1.624108
     32          7           0        1.284096    0.393857   -0.906693
     33          8           0        0.265051   -0.258914   -0.692048
     34          8           0        1.338105    1.420931   -1.579627
 ---------------------------------------------------------------------

 SCF Done:  E(RHF) =  -669.536972825     A.U. after   15 cycles
 E2 =    -0.2091960580D+01 EUMP2 =    -0.67162893340483D+03

 The electronic state is 1-A.
 Alpha  occ. eigenvalues --  -20.61158 -20.61152 -15.86154 -11.31410 -11.27960
 Alpha  occ. eigenvalues --  -11.27954 -11.27683 -11.26948 -11.26938 -11.20628
 Alpha  occ. eigenvalues --  -11.20267 -11.20043 -11.19976 -11.19876 -11.19814
 Alpha  occ. eigenvalues --   -1.60192  -1.39750  -1.19566  -1.08984  -1.07104
 Alpha  occ. eigenvalues --   -1.04950  -1.02300  -0.95836  -0.94798  -0.86354
 Alpha  occ. eigenvalues --   -0.85827  -0.82673  -0.78375  -0.77736  -0.76885
 Alpha  occ. eigenvalues --   -0.72372  -0.71497  -0.70674  -0.65224  -0.64955
 Alpha  occ. eigenvalues --   -0.63702  -0.62298  -0.59690  -0.58185  -0.56398
 Alpha  occ. eigenvalues --   -0.55457  -0.54090  -0.53285  -0.53041  -0.51544
 Alpha  occ. eigenvalues --   -0.51234  -0.49226  -0.49128  -0.48715  -0.46701
 Alpha  occ. eigenvalues --   -0.45388  -0.45145  -0.44467  -0.44202  -0.42532
 Alpha  occ. eigenvalues --   -0.37539  -0.36547
 Alpha virt. eigenvalues --    0.04768   0.11110   0.16273   0.21227   0.24111
 Alpha virt. eigenvalues --    0.25454   0.27163   0.27714   0.28324   0.28846
 Alpha virt. eigenvalues --    0.29169   0.30861   0.32347   0.32528   0.32965

 Mulliken charges:
               1
     1  C   -0.301970
     2  C   -0.298079
     3  C   -0.475107
     4  H    0.144885
     5  H    0.164835
     6  H    0.147885
     7  H    0.148950
     8  H    0.155857
     9  H    0.153801
    10  H    0.155564
    11  C   -0.293256
    12  C   -0.309880
    13  C   -0.473716
    14  H    0.140891
    15  H    0.149051
    16  H    0.144275
    17  H    0.181979
    18  H    0.149558
    19  H    0.148319
    20  H    0.158920
    21  C   -0.170290
    22  C   -0.218601
    23  C   -0.170426
    24  C    0.158765
    25  C   -0.170638
    26  C   -0.218545
    27  H    0.226474
    28  H    0.224279
    29  H    0.276189
    30  H    0.275685
    31  H    0.224280
    32  N    0.489770
    33  O   -0.461573
    34  O   -0.458130
 Sum of Mulliken charges =  -0.00000

 Dipole moment (field-independent basis, Debye):
    X=              4.8977    Y=             -1.7779    Z=              1.9040  Tot=              5.5474
 Quadrupole moment (field-independent basis, Debye-Ang):
   XX=            -72.0167   YY=            -92.8268   ZZ=            -96.5561
   XY=             -3.4892   XZ=              3.1667   YZ=             -2.3888

 Normal termination of Gaussian 16 at Thu May  6 15:17:48 2021.
