 Gaussian 16, Revision A.03,
 Gaussian 16:  EM64L-G16RevA.03 25-Dec-2016

 -------------
 #p 6-31g* mp2
 -------------

 ------------------------------------------------------
 Input file generated by CHIRIPA (05-May-2021 14:51:08)
 ------------------------------------------------------
 Symbolic Z-matrix:
 Charge =  0 Multiplicity = 1

                         Standard orientation:
 ---------------------------------------------------------------------
 Center     Atomic      Atomic             Coordinates (Angstroms)
 Number     Number       Type             X           Y           Z
 ---------------------------------------------------------------------
      1          6           0       -2.057756    1.353031   -0.129864
      2          6           0       -1.599173    1.766079    1.269092
      3          6           0       -1.028906    3.184159    1.309587
      4          1           0       -1.209624    1.428664   -0.824052
      5          1           0       -2.816314    2.064542   -0.484456
      6          1           0       -0.842709    1.053208    1.621503
      7          1           0       -2.448447    1.689271    1.960069
      8          1           0       -1.779895    3.910847    0.983179
      9          1           0       -0.165033    3.271169    0.642689
     10          1           0       -0.707260    3.458850    2.319017
     11          6           0       -2.630277   -0.062151   -0.186499
     12          6           0       -3.088860   -0.475198   -1.585455
     13          6           0       -3.659126   -1.893278   -1.625949
     14          1           0       -1.871718   -0.773662    0.168094
     15          1           0       -3.478409   -0.137783    0.507689
     16          1           0       -2.239585   -0.398390   -2.276432
     17          1           0       -3.845324    0.237673   -1.937865
     18          1           0       -4.523000   -1.980289   -0.959051
     19          1           0       -2.908138   -2.619966   -1.299541
     20          1           0       -3.980773   -2.167969   -2.635379
     21          6           0        1.651677   -0.828262    0.424029
     22          6           0        1.688965   -1.851372    1.559740
     23          6           0        0.296259   -2.206989    2.080993
     24          1           0        1.146680    0.081924    0.775430
     25          1           0        1.041783   -1.226256   -0.398787
     26          1           0        2.299747   -1.452150    2.379608
     27          1           0        2.194101   -2.759158    1.205653
     28          1           0       -0.318731   -2.629309    1.279723
     29          1           0       -0.212486   -1.314874    2.460348
     30          1           0        0.346307   -2.939810    2.892368
     31          6           0        3.036355   -0.462618   -0.107666
     32          6           0        2.999068    0.560491   -1.243378
     33          6           0        4.391774    0.916109   -1.764631
     34          1           0        3.646250   -0.064626    0.715150
     35          1           0        3.541353   -1.372805   -0.459068
     36          1           0        2.493932    1.468277   -0.889291
     37          1           0        2.388286    0.161269   -2.063244
     38          1           0        4.900518    0.023993   -2.143985
     39          1           0        5.006764    1.338428   -0.963361
     40          1           0        4.341726    1.648929   -2.576006
 ---------------------------------------------------------------------

 SCF Done:  E(RHF) =  -470.732613655     A.U. after   11 cycles
 E2 =    -0.1585180149D+01 EUMP2 =    -0.47231779380433D+03

 The electronic state is 1-A.
 Alpha  occ. eigenvalues --  -11.21684 -11.21682 -11.21568 -11.21551 -11.21486
 Alpha  occ. eigenvalues --  -11.21426 -11.21323 -11.21238 -11.21136 -11.21125
 Alpha  occ. eigenvalues --  -11.21093 -11.21053  -1.08538  -1.08358  -1.03613
 Alpha  occ. eigenvalues --   -1.03506  -0.96058  -0.95948  -0.87078  -0.86964
 Alpha  occ. eigenvalues --   -0.79697  -0.79566  -0.78424  -0.78102  -0.65251
 Alpha  occ. eigenvalues --   -0.64939  -0.61124  -0.60808  -0.59436  -0.59306
 Alpha  occ. eigenvalues --   -0.57698  -0.57537  -0.55348  -0.55238  -0.52745
 Alpha  occ. eigenvalues --   -0.52660  -0.52510  -0.52359  -0.50009  -0.49902
 Alpha  occ. eigenvalues --   -0.48096  -0.47930  -0.46926  -0.46464  -0.46220
 Alpha  occ. eigenvalues --   -0.45701  -0.45679  -0.45108  -0.43861  -0.43738
 Alpha virt. eigenvalues --    0.19904   0.22082   0.23278   0.23778   0.25753
 Alpha virt. eigenvalues --    0.26512   0.26944   0.27562   0.28923   0.29556
 Alpha virt. eigenvalues --    0.30448   0.31285   0.31716   0.32233   0.32502

 Mulliken charges:
               1
     1  C   -0.298167
     2  C   -0.308359
     3  C   -0.476254
     4  H    0.150674
     5  H    0.149211
     6  H    0.158874
     7  H    0.152190
     8  H    0.155819
     9  H    0.154747
    10  H    0.159838
    11  C   -0.305910
    12  C   -0.299613
    13  C   -0.475461
    14  H    0.159097
    15  H    0.148861
    16  H    0.151443
    17  H    0.151714
    18  H    0.155403
    19  H    0.154099
    20  H    0.160060
    21  C   -0.306553
    22  C   -0.299585
    23  C   -0.481648
    24  H    0.157155
    25  H    0.149607
    26  H    0.152117
    27  H    0.152246
    28  H    0.156132
    29  H    0.160040
    30  H    0.161045
    31  C   -0.297765
    32  C   -0.300220
    33  C   -0.475754
    34  H    0.149911
    35  H    0.150020
    36  H    0.151704
    37  H    0.151817
    38  H    0.155433
    39  H    0.155482
    40  H    0.160550
 Sum of Mulliken charges =  -0.00000

 Dipole moment (field-independent basis, Debye):
    X=              0.0430    Y=             -0.0227    Z=              0.0238  Tot=              0.0542
 Quadrupole moment (field-independent basis, Debye-Ang):
   XX=            -84.9797   YY=            -85.2587   ZZ=            -84.5381
   XY=             -1.0765   XZ=              0.1925   YZ=              0.5183

 Normal termination of Gaussian 16 at Thu May  6 10:00:34 2021.
