 Gaussian 16, Revision A.03,
 Gaussian 16:  EM64L-G16RevA.03 25-Dec-2016

 -------------
 #p 6-31g* mp2
 -------------

 ------------------------------------------------------
 Input file generated by CHIRIPA (05-May-2021 14:55:19)
 ------------------------------------------------------
 Symbolic Z-matrix:
 Charge =  0 Multiplicity = 1

                         Standard orientation:
 ---------------------------------------------------------------------
 Center     Atomic      Atomic             Coordinates (Angstroms)
 Number     Number       Type             X           Y           Z
 ---------------------------------------------------------------------
      1          6           0        1.941735   -2.861478   -0.222015
      2          6           0        1.029865   -1.892880   -0.654253
      3          6           0        1.344461   -0.533352   -0.569036
      4          6           0        2.585479   -0.176299   -0.043986
      5          6           0        3.515211   -1.117681    0.394976
      6          6           0        3.179316   -2.471475    0.300300
      7          1           0        1.689077   -3.915365   -0.291888
      8          1           0        0.068005   -2.192846   -1.060320
      9          1           0        0.657239    0.237379   -0.896326
     10          1           0        4.466258   -0.787944    0.795227
     11          1           0        3.889448   -3.221514    0.636750
     12          7           0        2.929802    1.259937    0.051237
     13          8           0        4.029711    1.548570    0.517635
     14          8           0        2.093253    2.069832   -0.342329
     15          6           0       -2.866797    1.059659   -0.329290
     16          6           0       -2.091512    2.053223    0.536592
     17          6           0       -1.356618    3.109378   -0.289398
     18          1           0       -2.171497    0.566649   -1.022430
     19          1           0       -3.588659    1.609427   -0.949021
     20          1           0       -1.372289    1.501615    1.155512
     21          1           0       -2.788707    2.543786    1.227882
     22          1           0       -2.063650    3.685103   -0.895409
     23          1           0       -0.639183    2.637010   -0.968189
     24          1           0       -0.809034    3.809234    0.349518
     25          6           0       -3.606753   -0.002359    0.482071
     26          6           0       -4.382037   -0.995922   -0.383810
     27          6           0       -5.116932   -2.052079    0.442180
     28          1           0       -2.884892   -0.552127    1.101802
     29          1           0       -4.302053    0.490651    1.175212
     30          1           0       -3.684842   -1.486487   -1.075101
     31          1           0       -5.101261   -0.444315   -1.002730
     32          1           0       -5.834367   -1.579710    1.120971
     33          1           0       -4.409900   -2.627804    1.048190
     34          1           0       -5.664516   -2.751934   -0.196736
 ---------------------------------------------------------------------

 SCF Done:  E(RHF) =  -669.535560003     A.U. after   15 cycles
 E2 =    -0.2092443468D+01 EUMP2 =    -0.67162800347060D+03

 The electronic state is 1-A.
 Alpha  occ. eigenvalues --  -20.60856 -20.60851 -15.85896 -11.31255 -11.27823
 Alpha  occ. eigenvalues --  -11.27818 -11.27562 -11.26839 -11.26829 -11.21994
 Alpha  occ. eigenvalues --  -11.21664 -11.21586 -11.21439 -11.21381 -11.20354
 Alpha  occ. eigenvalues --   -1.59926  -1.39480  -1.19427  -1.08824  -1.08600
 Alpha  occ. eigenvalues --   -1.04829  -1.03553  -0.95974  -0.95655  -0.86981
 Alpha  occ. eigenvalues --   -0.86228  -0.82494  -0.79637  -0.78395  -0.77541
 Alpha  occ. eigenvalues --   -0.72127  -0.71243  -0.70540  -0.65282  -0.65083
 Alpha  occ. eigenvalues --   -0.64822  -0.62199  -0.60920  -0.59388  -0.57569
 Alpha  occ. eigenvalues --   -0.55331  -0.55258  -0.53157  -0.52918  -0.52598
 Alpha  occ. eigenvalues --   -0.52394  -0.49968  -0.48876  -0.48842  -0.47916
 Alpha  occ. eigenvalues --   -0.46691  -0.45915  -0.45846  -0.44879  -0.43818
 Alpha  occ. eigenvalues --   -0.37406  -0.36429
 Alpha virt. eigenvalues --    0.04971   0.11191   0.16463   0.18947   0.23022
 Alpha virt. eigenvalues --    0.23361   0.25415   0.26977   0.27295   0.28288
 Alpha virt. eigenvalues --    0.29826   0.30580   0.31553   0.31748   0.32023

 Mulliken charges:
               1
     1  C   -0.170415
     2  C   -0.221351
     3  C   -0.174723
     4  C    0.156947
     5  C   -0.170170
     6  C   -0.218804
     7  H    0.225973
     8  H    0.224187
     9  H    0.283450
    10  H    0.275797
    11  H    0.223763
    12  N    0.491036
    13  O   -0.459760
    14  O   -0.464075
    15  C   -0.297223
    16  C   -0.303024
    17  C   -0.476671
    18  H    0.136936
    19  H    0.152368
    20  H    0.151393
    21  H    0.152167
    22  H    0.149318
    23  H    0.165741
    24  H    0.169328
    25  C   -0.298503
    26  C   -0.298280
    27  C   -0.475607
    28  H    0.147448
    29  H    0.152672
    30  H    0.144591
    31  H    0.154382
    32  H    0.157545
    33  H    0.153296
    34  H    0.160271
 Sum of Mulliken charges =  -0.00000

 Dipole moment (field-independent basis, Debye):
    X=             -1.1304    Y=             -4.9240    Z=             -0.2738  Tot=              5.0595
 Quadrupole moment (field-independent basis, Debye-Ang):
   XX=            -96.7458   YY=            -93.1199   ZZ=            -95.0020
   XY=            -15.2851   XZ=              1.3082   YZ=              0.1829

 Normal termination of Gaussian 16 at Thu May  6 06:05:34 2021.
