 Gaussian 16, Revision A.03,
 Gaussian 16:  EM64L-G16RevA.03 25-Dec-2016

 -------------
 #p 6-31g* mp2
 -------------

 ------------------------------------------------------
 Input file generated by CHIRIPA (05-May-2021 14:51:09)
 ------------------------------------------------------
 Symbolic Z-matrix:
 Charge =  0 Multiplicity = 1

                         Standard orientation:
 ---------------------------------------------------------------------
 Center     Atomic      Atomic             Coordinates (Angstroms)
 Number     Number       Type             X           Y           Z
 ---------------------------------------------------------------------
      1          6           0        2.952489   -0.751480   -0.308498
      2          6           0        2.188785   -1.631989    0.681171
      3          6           0        1.429491   -2.769101   -0.003112
      4          1           0        2.246171   -0.334842   -1.039575
      5          1           0        3.657393   -1.375325   -0.875351
      6          1           0        1.486514   -1.006434    1.246955
      7          1           0        2.896976   -2.046426    1.410092
      8          1           0        2.119680   -3.417021   -0.553057
      9          1           0        0.701204   -2.371120   -0.717121
     10          1           0        0.890674   -3.385983    0.722831
     11          6           0        3.716576    0.389732    0.360481
     12          6           0        4.480280    1.270241   -0.629189
     13          6           0        5.239574    2.407353    0.055094
     14          1           0        3.011672    1.013577    0.927334
     15          1           0        4.422894   -0.026905    1.091558
     16          1           0        3.772089    1.684678   -1.358109
     17          1           0        5.182551    0.644686   -1.194972
     18          1           0        5.967861    2.009372    0.769104
     19          1           0        4.549385    3.055273    0.605040
     20          1           0        5.778391    3.024235   -0.670848
     21          6           0       -3.614538    0.811739   -0.353157
     22          6           0       -3.631475    2.022553    0.580452
     23          6           0       -4.194357    3.276961   -0.088444
     24          1           0       -3.019063    1.052310   -1.244494
     25          1           0       -4.636785    0.613877   -0.704237
     26          1           0       -2.609710    2.217227    0.930759
     27          1           0       -4.226820    1.779007    1.469759
     28          1           0       -5.222864    3.106718   -0.422792
     29          1           0       -3.596567    3.547429   -0.964854
     30          1           0       -4.197239    4.130388    0.596767
     31          6           0       -3.054526   -0.449991    0.301174
     32          6           0       -3.037590   -1.660806   -0.632435
     33          6           0       -2.474709   -2.915213    0.036461
     34          1           0       -2.032280   -0.252130    0.652254
     35          1           0       -3.650001   -0.690562    1.192511
     36          1           0       -2.442245   -1.417258   -1.521742
     37          1           0       -4.059355   -1.855479   -0.982742
     38          1           0       -3.072498   -3.185680    0.912871
     39          1           0       -1.446200   -2.744970    0.370810
     40          1           0       -2.471825   -3.768640   -0.648750
 ---------------------------------------------------------------------

 SCF Done:  E(RHF) =  -470.732585980     A.U. after   11 cycles
 E2 =    -0.1582984779D+01 EUMP2 =    -0.47231557075834D+03

 The electronic state is 1-A.
 Alpha  occ. eigenvalues --  -11.21665 -11.21636 -11.21616 -11.21567 -11.21454
 Alpha  occ. eigenvalues --  -11.21408 -11.21393 -11.21348 -11.21103 -11.21098
 Alpha  occ. eigenvalues --  -11.21085 -11.20891  -1.08482  -1.08420  -1.03598
 Alpha  occ. eigenvalues --   -1.03489  -0.96076  -0.95909  -0.87119  -0.86901
 Alpha  occ. eigenvalues --   -0.79687  -0.79528  -0.78291  -0.78237  -0.65171
 Alpha  occ. eigenvalues --   -0.65011  -0.61170  -0.60757  -0.59414  -0.59315
 Alpha  occ. eigenvalues --   -0.57674  -0.57529  -0.55577  -0.55014  -0.52819
 Alpha  occ. eigenvalues --   -0.52617  -0.52456  -0.52296  -0.50175  -0.49646
 Alpha  occ. eigenvalues --   -0.47959  -0.47871  -0.46739  -0.46503  -0.45846
 Alpha  occ. eigenvalues --   -0.45770  -0.45747  -0.45690  -0.43816  -0.43754
 Alpha virt. eigenvalues --    0.20891   0.23211   0.23624   0.24956   0.26238
 Alpha virt. eigenvalues --    0.26886   0.27077   0.27379   0.27947   0.29110
 Alpha virt. eigenvalues --    0.30557   0.31199   0.31523   0.31824   0.32279

 Mulliken charges:
               1
     1  C   -0.298476
     2  C   -0.301098
     3  C   -0.480068
     4  H    0.149467
     5  H    0.149917
     6  H    0.151825
     7  H    0.152625
     8  H    0.156198
     9  H    0.157760
    10  H    0.162645
    11  C   -0.298312
    12  C   -0.299682
    13  C   -0.475734
    14  H    0.149417
    15  H    0.149882
    16  H    0.151850
    17  H    0.152053
    18  H    0.155280
    19  H    0.155205
    20  H    0.160373
    21  C   -0.298224
    22  C   -0.299570
    23  C   -0.475691
    24  H    0.149295
    25  H    0.149734
    26  H    0.151499
    27  H    0.152065
    28  H    0.155299
    29  H    0.155070
    30  H    0.160258
    31  C   -0.298308
    32  C   -0.299822
    33  C   -0.483478
    34  H    0.148643
    35  H    0.149858
    36  H    0.150847
    37  H    0.151826
    38  H    0.153770
    39  H    0.166263
    40  H    0.159542
 Sum of Mulliken charges =  -0.00000

 Dipole moment (field-independent basis, Debye):
    X=              0.0502    Y=             -0.0201    Z=              0.0065  Tot=              0.0545
 Quadrupole moment (field-independent basis, Debye-Ang):
   XX=            -83.7747   YY=            -86.0493   ZZ=            -84.9459
   XY=             -0.5254   XZ=             -0.5711   YZ=             -0.1195

 Normal termination of Gaussian 16 at Thu May  6 02:08:23 2021.
