 Gaussian 16, Revision A.03,
 Gaussian 16:  EM64L-G16RevA.03 25-Dec-2016

 -------------
 #p 6-31g* mp2
 -------------

 ------------------------------------------------------
 Input file generated by CHIRIPA (05-May-2021 14:55:22)
 ------------------------------------------------------
 Symbolic Z-matrix:
 Charge =  0 Multiplicity = 1

                         Standard orientation:
 ---------------------------------------------------------------------
 Center     Atomic      Atomic             Coordinates (Angstroms)
 Number     Number       Type             X           Y           Z
 ---------------------------------------------------------------------
      1          6           0        0.787267   -0.840283    0.280889
      2          6           0        1.167653    0.262750   -0.490569
      3          6           0        2.519450    0.568318   -0.674476
      4          6           0        3.468663   -0.254211   -0.069718
      5          6           0        3.121270   -1.360138    0.704577
      6          6           0        1.763568   -1.646785    0.874952
      7          1           0       -0.265135   -1.070306    0.418496
      8          1           0        0.411618    0.890846   -0.953118
      9          1           0        2.841811    1.416117   -1.266707
     10          1           0        3.897826   -1.967748    1.153119
     11          1           0        1.471078   -2.504057    1.474601
     12          7           0        4.902875    0.059264   -0.257249
     13          8           0        5.719797   -0.681010    0.286137
     14          8           0        5.182932    1.039305   -0.944072
     15          6           0       -4.295124   -0.354187    0.000171
     16          6           0       -5.727192   -0.642251   -0.451698
     17          6           0       -6.027674   -2.138455   -0.545941
     18          1           0       -3.594001   -0.826973   -0.701146
     19          1           0       -4.124738   -0.825641    0.977971
     20          1           0       -5.895261   -0.169228   -1.427719
     21          1           0       -6.424986   -0.168564    0.250670
     22          1           0       -5.887595   -2.621516    0.426494
     23          1           0       -5.354860   -2.622184   -1.261433
     24          1           0       -7.056696   -2.321605   -0.870643
     25          6           0       -3.979531    1.137229    0.099186
     26          6           0       -2.547463    1.425293    0.551053
     27          6           0       -2.246980    2.921496    0.645297
     28          1           0       -4.149917    1.608683   -0.878615
     29          1           0       -4.680653    1.610015    0.800503
     30          1           0       -1.849670    0.951606   -0.151314
     31          1           0       -2.379394    0.952270    1.527076
     32          1           0       -2.919795    3.405226    1.360789
     33          1           0       -2.387061    3.404557   -0.327138
     34          1           0       -1.217960    3.104647    0.970000
 ---------------------------------------------------------------------

 SCF Done:  E(RHF) =  -669.535272035     A.U. after   15 cycles
 E2 =    -0.2091878347D+01 EUMP2 =    -0.67162715038203D+03

 The electronic state is 1-A.
 Alpha  occ. eigenvalues --  -20.60714 -20.60709 -15.85768 -11.31117 -11.27692
 Alpha  occ. eigenvalues --  -11.27687 -11.27386 -11.26690 -11.26667 -11.22847
 Alpha  occ. eigenvalues --  -11.22407 -11.22364 -11.22322 -11.22040 -11.21747
 Alpha  occ. eigenvalues --   -1.59790  -1.39344  -1.19288  -1.09417  -1.08680
 Alpha  occ. eigenvalues --   -1.04698  -1.04461  -0.96877  -0.95519  -0.87893
 Alpha  occ. eigenvalues --   -0.86097  -0.82354  -0.80567  -0.79242  -0.77408
 Alpha  occ. eigenvalues --   -0.71986  -0.71114  -0.70386  -0.66077  -0.64939
 Alpha  occ. eigenvalues --   -0.64715  -0.62153  -0.61755  -0.60243  -0.58492
 Alpha  occ. eigenvalues --   -0.56152  -0.55181  -0.53564  -0.53292  -0.53017
 Alpha  occ. eigenvalues --   -0.52789  -0.50818  -0.48855  -0.48744  -0.48736
 Alpha  occ. eigenvalues --   -0.47592  -0.46759  -0.46674  -0.44753  -0.44716
 Alpha  occ. eigenvalues --   -0.37255  -0.36299
 Alpha virt. eigenvalues --    0.05128   0.11312   0.16613   0.19535   0.22517
 Alpha virt. eigenvalues --    0.23456   0.25089   0.25385   0.26463   0.28077
 Alpha virt. eigenvalues --    0.29458   0.30417   0.31017   0.31069   0.31518

 Mulliken charges:
               1
     1  C   -0.172637
     2  C   -0.222410
     3  C   -0.171248
     4  C    0.158333
     5  C   -0.170972
     6  C   -0.219114
     7  H    0.229238
     8  H    0.226823
     9  H    0.275383
    10  H    0.275301
    11  H    0.223170
    12  N    0.488032
    13  O   -0.460625
    14  O   -0.460650
    15  C   -0.299863
    16  C   -0.300089
    17  C   -0.476408
    18  H    0.145595
    19  H    0.148776
    20  H    0.153933
    21  H    0.154379
    22  H    0.155337
    23  H    0.155144
    24  H    0.163225
    25  C   -0.297760
    26  C   -0.305119
    27  C   -0.478072
    28  H    0.152039
    29  H    0.154070
    30  H    0.142082
    31  H    0.153749
    32  H    0.160607
    33  H    0.156682
    34  H    0.163068
 Sum of Mulliken charges =  -0.00000

 Dipole moment (field-independent basis, Debye):
    X=             -5.3200    Y=             -1.0227    Z=              0.7071  Tot=              5.4633
 Quadrupole moment (field-independent basis, Debye-Ang):
   XX=           -129.2101   YY=            -92.1214   ZZ=            -92.8619
   XY=             -4.2736   XZ=              3.0502   YZ=             -2.7077

 Normal termination of Gaussian 16 at Wed May  5 22:17:03 2021.
