 Gaussian 16, Revision A.03,
 Gaussian 16:  EM64L-G16RevA.03 25-Dec-2016

 -------------
 #p 6-31g* mp2
 -------------

 ------------------------------------------------------
 Input file generated by CHIRIPA (05-May-2021 14:51:13)
 ------------------------------------------------------
 Symbolic Z-matrix:
 Charge =  0 Multiplicity = 1

                         Standard orientation:
 ---------------------------------------------------------------------
 Center     Atomic      Atomic             Coordinates (Angstroms)
 Number     Number       Type             X           Y           Z
 ---------------------------------------------------------------------
      1          6           0       -4.267388   -0.100645   -0.346024
      2          6           0       -3.089206   -0.585904    0.499195
      3          6           0       -1.753105   -0.488246   -0.237751
      4          1           0       -4.313708   -0.690282   -1.271836
      5          1           0       -4.089073    0.940886   -0.647375
      6          1           0       -3.270339   -1.625766    0.800018
      7          1           0       -3.045802    0.004829    1.423190
      8          1           0       -1.545972    0.547929   -0.524174
      9          1           0       -1.771784   -1.091931   -1.150887
     10          1           0       -0.924596   -0.840245    0.384767
     11          6           0       -5.609986   -0.192095    0.377021
     12          6           0       -6.788168    0.293165   -0.468199
     13          6           0       -8.124269    0.195507    0.268748
     14          1           0       -5.788302   -1.233626    0.678371
     15          1           0       -5.563667    0.397542    1.302832
     16          1           0       -6.831573   -0.297568   -1.392194
     17          1           0       -6.607036    1.333027   -0.769022
     18          1           0       -8.105590    0.799192    1.181883
     19          1           0       -8.331403   -0.840668    0.555171
     20          1           0       -8.952779    0.547506   -0.353771
     21          6           0        5.630188    0.321903    0.257351
     22          6           0        6.741853   -0.577763   -0.283745
     23          6           0        8.119361   -0.214193    0.271307
     24          1           0        5.861521    1.367547    0.012283
     25          1           0        5.614248    0.254040    1.353953
     26          1           0        6.754791   -0.509288   -1.379080
     27          1           0        6.507750   -1.621405   -0.037527
     28          1           0        8.130037   -0.300653    1.362642
     29          1           0        8.378480    0.817784    0.013466
     30          1           0        8.899155   -0.869824   -0.128602
     31          6           0        4.247187   -0.029164   -0.288347
     32          6           0        3.135521    0.870503    0.252749
     33          6           0        1.758013    0.506933   -0.302304
     34          1           0        4.263127    0.038699   -1.384949
     35          1           0        4.015853   -1.074808   -0.043279
     36          1           0        3.369624    1.914144    0.006531
     37          1           0        3.122584    0.802027    1.348084
     38          1           0        1.498894   -0.525044   -0.044463
     39          1           0        1.747337    0.593392   -1.393638
     40          1           0        0.978219    1.162565    0.097606
 ---------------------------------------------------------------------

 SCF Done:  E(RHF) =  -470.732463404     A.U. after   11 cycles
 E2 =    -0.1582558362D+01 EUMP2 =    -0.47231502176668D+03

 The electronic state is 1-A.
 Alpha  occ. eigenvalues --  -11.21580 -11.21575 -11.21529 -11.21519 -11.21370
 Alpha  occ. eigenvalues --  -11.21362 -11.21310 -11.21301 -11.21055 -11.21051
 Alpha  occ. eigenvalues --  -11.20946 -11.20912  -1.08396  -1.08377  -1.03517
 Alpha  occ. eigenvalues --   -1.03442  -0.96023  -0.95836  -0.87111  -0.86784
 Alpha  occ. eigenvalues --   -0.79677  -0.79412  -0.78220  -0.78179  -0.65026
 Alpha  occ. eigenvalues --   -0.65015  -0.60908  -0.60882  -0.59419  -0.59190
 Alpha  occ. eigenvalues --   -0.57577  -0.57512  -0.55242  -0.55211  -0.52963
 Alpha  occ. eigenvalues --   -0.52454  -0.52318  -0.52203  -0.49863  -0.49836
 Alpha  occ. eigenvalues --   -0.47886  -0.47829  -0.46581  -0.46572  -0.45763
 Alpha  occ. eigenvalues --   -0.45724  -0.45675  -0.45667  -0.43864  -0.43526
 Alpha virt. eigenvalues --    0.22432   0.23021   0.23628   0.24938   0.26519
 Alpha virt. eigenvalues --    0.26605   0.26905   0.27372   0.27633   0.28934
 Alpha virt. eigenvalues --    0.29738   0.31108   0.31620   0.31857   0.32358

 Mulliken charges:
               1
     1  C   -0.298450
     2  C   -0.300438
     3  C   -0.475934
     4  H    0.149508
     5  H    0.149294
     6  H    0.151249
     7  H    0.151266
     8  H    0.156018
     9  H    0.154214
    10  H    0.163552
    11  C   -0.298151
    12  C   -0.299569
    13  C   -0.475664
    14  H    0.149405
    15  H    0.149475
    16  H    0.151883
    17  H    0.151836
    18  H    0.155110
    19  H    0.155129
    20  H    0.160152
    21  C   -0.298161
    22  C   -0.299585
    23  C   -0.475673
    24  H    0.149565
    25  H    0.149379
    26  H    0.151889
    27  H    0.151857
    28  H    0.155124
    29  H    0.155138
    30  H    0.160173
    31  C   -0.298433
    32  C   -0.300843
    33  C   -0.474839
    34  H    0.149441
    35  H    0.149455
    36  H    0.151354
    37  H    0.151316
    38  H    0.156157
    39  H    0.154789
    40  H    0.162012
 Sum of Mulliken charges =  -0.00000

 Dipole moment (field-independent basis, Debye):
    X=              0.0075    Y=             -0.0012    Z=             -0.0111  Tot=              0.0134
 Quadrupole moment (field-independent basis, Debye-Ang):
   XX=            -87.3569   YY=            -83.4865   ZZ=            -84.3203
   XY=              0.0273   XZ=              0.0177   YZ=             -0.2099

 Normal termination of Gaussian 16 at Wed May  5 23:13:07 2021.
