 Gaussian 16, Revision A.03,
 Gaussian 16:  EM64L-G16RevA.03 25-Dec-2016

 -------------
 #p 6-31g* mp2
 -------------

 ------------------------------------------------------
 Input file generated by CHIRIPA (05-May-2021 14:55:22)
 ------------------------------------------------------
 Symbolic Z-matrix:
 Charge =  0 Multiplicity = 1

                         Standard orientation:
 ---------------------------------------------------------------------
 Center     Atomic      Atomic             Coordinates (Angstroms)
 Number     Number       Type             X           Y           Z
 ---------------------------------------------------------------------
      1          6           0       -0.597432    0.010418   -0.705342
      2          6           0       -1.350913    1.152548   -0.414953
      3          6           0       -2.705082    1.044726   -0.084573
      4          6           0       -3.276192   -0.226566   -0.053900
      5          6           0       -2.551971   -1.383263   -0.338236
      6          6           0       -1.199305   -1.251618   -0.666126
      7          1           0        0.453935    0.103430   -0.961022
      8          1           0       -0.886132    2.133946   -0.444632
      9          1           0       -3.311776    1.912368    0.144637
     10          1           0       -3.043112   -2.348028   -0.300465
     11          1           0       -0.616592   -2.140346   -0.891185
     12          7           0       -4.708994   -0.353323    0.294540
     13          8           0       -5.188651   -1.484765    0.314653
     14          8           0       -5.325236    0.681168    0.540937
     15          6           0        4.362109   -0.248737   -0.173081
     16          6           0        4.538831   -1.511229    0.671233
     17          6           0        5.483607   -2.525997    0.026686
     18          1           0        3.980621   -0.528784   -1.164537
     19          1           0        5.344607    0.215564   -0.335919
     20          1           0        3.556125   -1.972254    0.833594
     21          1           0        4.919761   -1.228126    1.660860
     22          1           0        6.476434   -2.088667   -0.120407
     23          1           0        5.105050   -2.837024   -0.952373
     24          1           0        5.595520   -3.420718    0.647017
     25          6           0        3.420415    0.775265    0.458079
     26          6           0        3.243693    2.037757   -0.386235
     27          6           0        2.298917    3.052525    0.258311
     28          1           0        2.437917    0.310964    0.620917
     29          1           0        3.801904    1.055312    1.449535
     30          1           0        2.862763    1.754654   -1.375862
     31          1           0        4.226398    2.498782   -0.548596
     32          1           0        2.677473    3.363552    1.237372
     33          1           0        1.306089    2.615195    0.405405
     34          1           0        2.187004    3.947245   -0.362020
 ---------------------------------------------------------------------

 SCF Done:  E(RHF) =  -669.535091646     A.U. after   15 cycles
 E2 =    -0.2092438337D+01 EUMP2 =    -0.67162752998368D+03

 The electronic state is 1-A.
 Alpha  occ. eigenvalues --  -20.60766 -20.60761 -15.85819 -11.31198 -11.27766
 Alpha  occ. eigenvalues --  -11.27756 -11.27493 -11.26786 -11.26751 -11.22777
 Alpha  occ. eigenvalues --  -11.22473 -11.22430 -11.22331 -11.22265 -11.21769
 Alpha  occ. eigenvalues --   -1.59841  -1.39394  -1.19369  -1.09467  -1.08762
 Alpha  occ. eigenvalues --   -1.04775  -1.04523  -0.96971  -0.95597  -0.87988
 Alpha  occ. eigenvalues --   -0.86172  -0.82427  -0.80588  -0.79245  -0.77473
 Alpha  occ. eigenvalues --   -0.72038  -0.71164  -0.70518  -0.66141  -0.65021
 Alpha  occ. eigenvalues --   -0.64787  -0.62224  -0.61825  -0.60332  -0.58557
 Alpha  occ. eigenvalues --   -0.56319  -0.55246  -0.53645  -0.53392  -0.53099
 Alpha  occ. eigenvalues --   -0.52849  -0.50894  -0.48888  -0.48792  -0.48786
 Alpha  occ. eigenvalues --   -0.47638  -0.46770  -0.46720  -0.44797  -0.44774
 Alpha  occ. eigenvalues --   -0.37338  -0.36370
 Alpha virt. eigenvalues --    0.05032   0.11183   0.16417   0.18365   0.22576
 Alpha virt. eigenvalues --    0.23733   0.25102   0.25724   0.26581   0.28130
 Alpha virt. eigenvalues --    0.29477   0.30507   0.30744   0.31442   0.31822

 Mulliken charges:
               1
     1  C   -0.175309
     2  C   -0.223613
     3  C   -0.170975
     4  C    0.158719
     5  C   -0.170674
     6  C   -0.219851
     7  H    0.232055
     8  H    0.228448
     9  H    0.275970
    10  H    0.275651
    11  H    0.223413
    12  N    0.487983
    13  O   -0.460374
    14  O   -0.460240
    15  C   -0.298977
    16  C   -0.299728
    17  C   -0.476175
    18  H    0.145926
    19  H    0.153560
    20  H    0.149506
    21  H    0.155151
    22  H    0.157297
    23  H    0.154441
    24  H    0.162898
    25  C   -0.303290
    26  C   -0.302480
    27  C   -0.481465
    28  H    0.145713
    29  H    0.155642
    30  H    0.146855
    31  H    0.158533
    32  H    0.162289
    33  H    0.149736
    34  H    0.163366
 Sum of Mulliken charges =  -0.00000

 Dipole moment (field-independent basis, Debye):
    X=              5.2704    Y=              0.4788    Z=             -1.1514  Tot=              5.4159
 Quadrupole moment (field-independent basis, Debye-Ang):
   XX=           -127.1171   YY=            -90.1721   ZZ=            -95.3070
   XY=             -1.9389   XZ=              4.6307   YZ=              0.8697

 Normal termination of Gaussian 16 at Wed May  5 19:02:03 2021.
