 Gaussian 16, Revision A.03,
 Gaussian 16:  EM64L-G16RevA.03 25-Dec-2016

 -------------
 #p 6-31g* mp2
 -------------

 ------------------------------------------------------
 Input file generated by CHIRIPA (05-May-2021 14:55:19)
 ------------------------------------------------------
 Symbolic Z-matrix:
 Charge =  0 Multiplicity = 1

                         Standard orientation:
 ---------------------------------------------------------------------
 Center     Atomic      Atomic             Coordinates (Angstroms)
 Number     Number       Type             X           Y           Z
 ---------------------------------------------------------------------
      1          6           0       -0.696529    0.232449    0.162589
      2          6           0       -1.358851   -0.526997    1.132688
      3          6           0       -2.738344   -0.738163    1.049288
      4          6           0       -3.427459   -0.172618   -0.022425
      5          6           0       -2.796016    0.588800   -1.004674
      6          6           0       -1.415957    0.786946   -0.901120
      7          1           0        0.375314    0.391430    0.235204
      8          1           0       -0.802693   -0.958837    1.959881
      9          1           0       -3.276191   -1.321898    1.786440
     10          1           0       -3.377387    1.006526   -1.817650
     11          1           0       -0.904219    1.377182   -1.655966
     12          7           0       -4.888166   -0.389278   -0.121385
     13          8           0       -5.472511    0.119735   -1.075368
     14          8           0       -5.421065   -1.064007    0.756907
     15          6           0        3.693869    0.667316    0.447116
     16          6           0        3.468220    2.025583   -0.217849
     17          6           0        2.696395    2.999147    0.673360
     18          1           0        2.721639    0.230650    0.713646
     19          1           0        4.239380    0.814376    1.389551
     20          1           0        2.924509    1.875871   -1.159433
     21          1           0        4.441091    2.458981   -0.483000
     22          1           0        3.237863    3.177895    1.607952
     23          1           0        1.712664    2.591473    0.927676
     24          1           0        2.546283    3.963705    0.178432
     25          6           0        4.464126   -0.316827   -0.431460
     26          6           0        4.689776   -1.675094    0.233505
     27          6           0        5.461600   -2.648658   -0.657704
     28          1           0        3.918614   -0.463887   -1.373895
     29          1           0        5.436356    0.119839   -0.697990
     30          1           0        3.716904   -2.108491    0.498656
     31          1           0        5.233487   -1.525382    1.175089
     32          1           0        6.445331   -2.240984   -0.912021
     33          1           0        4.920131   -2.827406   -1.592296
     34          1           0        5.611712   -3.613216   -0.162776
 ---------------------------------------------------------------------

 SCF Done:  E(RHF) =  -669.535333696     A.U. after   15 cycles
 E2 =    -0.2091724035D+01 EUMP2 =    -0.67162705773113D+03

 The electronic state is 1-A.
 Alpha  occ. eigenvalues --  -20.60755 -20.60750 -15.85809 -11.31180 -11.27745
 Alpha  occ. eigenvalues --  -11.27742 -11.27463 -11.26766 -11.26756 -11.22739
 Alpha  occ. eigenvalues --  -11.22599 -11.22421 -11.22313 -11.22150 -11.21720
 Alpha  occ. eigenvalues --   -1.59830  -1.39384  -1.19350  -1.09470  -1.08744
 Alpha  occ. eigenvalues --   -1.04754  -1.04487  -0.96928  -0.95581  -0.87937
 Alpha  occ. eigenvalues --   -0.86150  -0.82417  -0.80553  -0.79273  -0.77457
 Alpha  occ. eigenvalues --   -0.72026  -0.71153  -0.70507  -0.66114  -0.65002
 Alpha  occ. eigenvalues --   -0.64752  -0.62103  -0.61890  -0.60302  -0.58531
 Alpha  occ. eigenvalues --   -0.56237  -0.55266  -0.53583  -0.53345  -0.53076
 Alpha  occ. eigenvalues --   -0.52845  -0.50880  -0.48858  -0.48782  -0.48781
 Alpha  occ. eigenvalues --   -0.47603  -0.46794  -0.46718  -0.44788  -0.44754
 Alpha  occ. eigenvalues --   -0.37327  -0.36358
 Alpha virt. eigenvalues --    0.05052   0.11292   0.16466   0.18357   0.22790
 Alpha virt. eigenvalues --    0.23702   0.25130   0.25897   0.26988   0.27627
 Alpha virt. eigenvalues --    0.29496   0.30402   0.30845   0.31131   0.31616

 Mulliken charges:
               1
     1  C   -0.180055
     2  C   -0.221856
     3  C   -0.170716
     4  C    0.158450
     5  C   -0.170594
     6  C   -0.221402
     7  H    0.240134
     8  H    0.223508
     9  H    0.275632
    10  H    0.275556
    11  H    0.224004
    12  N    0.487954
    13  O   -0.460404
    14  O   -0.460404
    15  C   -0.302300
    16  C   -0.301886
    17  C   -0.478100
    18  H    0.139610
    19  H    0.155055
    20  H    0.147907
    21  H    0.158179
    22  H    0.159956
    23  H    0.149564
    24  H    0.164689
    25  C   -0.298490
    26  C   -0.299960
    27  C   -0.476304
    28  H    0.149494
    29  H    0.153600
    30  H    0.149669
    31  H    0.153692
    32  H    0.156884
    33  H    0.156301
    34  H    0.162633
 Sum of Mulliken charges =  -0.00000

 Dipole moment (field-independent basis, Debye):
    X=              5.4054    Y=              0.7886    Z=              0.3428  Tot=              5.4734
 Quadrupole moment (field-independent basis, Debye-Ang):
   XX=           -128.9510   YY=            -94.2920   ZZ=            -91.5808
   XY=             -2.7176   XZ=             -0.5558   YZ=             -2.9908

 Normal termination of Gaussian 16 at Wed May  5 15:50:45 2021.
