 Gaussian 16, Revision A.03,
 Gaussian 16:  EM64L-G16RevA.03 25-Dec-2016

 -------------
 #p 6-31g* mp2
 -------------

 ------------------------------------------------------
 Input file generated by CHIRIPA (05-May-2021 14:55:23)
 ------------------------------------------------------
 Symbolic Z-matrix:
 Charge =  0 Multiplicity = 1

                         Standard orientation:
 ---------------------------------------------------------------------
 Center     Atomic      Atomic             Coordinates (Angstroms)
 Number     Number       Type             X           Y           Z
 ---------------------------------------------------------------------
      1          6           0       -4.534916    0.587842   -1.297786
      2          6           0       -4.747496   -0.481281   -0.421255
      3          6           0       -3.703169   -0.969299    0.369800
      4          6           0       -2.453428   -0.361815    0.258444
      5          6           0       -2.210203    0.704882   -0.605437
      6          6           0       -3.269179    1.176473   -1.386923
      7          1           0       -5.351864    0.960566   -1.908580
      8          1           0       -5.729435   -0.940363   -0.349945
      9          1           0       -3.840013   -1.795651    1.056701
     10          1           0       -1.220303    1.142036   -0.654549
     11          1           0       -3.101180    2.006907   -2.066777
     12          7           0       -1.340092   -0.869763    1.090832
     13          8           0       -0.248402   -0.317276    0.974176
     14          8           0       -1.580230   -1.810760    1.844154
     15          6           0        2.964615    0.985610   -0.290687
     16          6           0        2.915803    1.945281    0.898697
     17          6           0        2.090592    3.200183    0.612267
     18          1           0        3.382873    1.510631   -1.160375
     19          1           0        1.939738    0.697452   -0.562694
     20          1           0        3.940540    2.230459    1.169257
     21          1           0        2.497790    1.417858    1.765707
     22          1           0        1.058178    2.933903    0.363637
     23          1           0        2.509126    3.751121   -0.236201
     24          1           0        2.069050    3.872268    1.475806
     25          6           0        3.785899   -0.273677   -0.019728
     26          6           0        3.834711   -1.233348   -1.209111
     27          6           0        4.659922   -2.488250   -0.922682
     28          1           0        4.810775    0.014481    0.252279
     29          1           0        3.367641   -0.798698    0.849960
     30          1           0        4.252724   -0.705925   -2.076121
     31          1           0        2.809974   -1.518525   -1.479672
     32          1           0        4.241388   -3.039187   -0.074214
     33          1           0        5.692337   -2.221970   -0.674051
     34          1           0        4.681464   -3.160335   -1.786221
 ---------------------------------------------------------------------

 SCF Done:  E(RHF) =  -669.536366676     A.U. after   15 cycles
 E2 =    -0.2091888444D+01 EUMP2 =    -0.67162825511947D+03

 The electronic state is 1-A.
 Alpha  occ. eigenvalues --  -20.61024 -20.61013 -15.86053 -11.31335 -11.27896
 Alpha  occ. eigenvalues --  -11.27890 -11.27622 -11.26892 -11.26882 -11.20755
 Alpha  occ. eigenvalues --  -11.20625 -11.20499 -11.20353 -11.20321 -11.20293
 Alpha  occ. eigenvalues --   -1.60081  -1.39639  -1.19499  -1.08911  -1.07453
 Alpha  occ. eigenvalues --   -1.04890  -1.02685  -0.95760  -0.95155  -0.86294
 Alpha  occ. eigenvalues --   -0.86183  -0.82597  -0.78749  -0.77672  -0.77259
 Alpha  occ. eigenvalues --   -0.72292  -0.71391  -0.70610  -0.65168  -0.64894
 Alpha  occ. eigenvalues --   -0.64010  -0.62241  -0.60056  -0.58535  -0.56780
 Alpha  occ. eigenvalues --   -0.55396  -0.54432  -0.53223  -0.52982  -0.51898
 Alpha  occ. eigenvalues --   -0.51613  -0.49145  -0.49042  -0.48976  -0.47087
 Alpha  occ. eigenvalues --   -0.45747  -0.45112  -0.44817  -0.44611  -0.42901
 Alpha  occ. eigenvalues --   -0.37475  -0.36489
 Alpha virt. eigenvalues --    0.04852   0.11157   0.16356   0.20134   0.23134
 Alpha virt. eigenvalues --    0.24434   0.26190   0.27505   0.28196   0.28759
 Alpha virt. eigenvalues --    0.29233   0.30658   0.31478   0.32430   0.32698

 Mulliken charges:
               1
     1  C   -0.170242
     2  C   -0.218702
     3  C   -0.170405
     4  C    0.157205
     5  C   -0.173183
     6  C   -0.219547
     7  H    0.226235
     8  H    0.223973
     9  H    0.275839
    10  H    0.279830
    11  H    0.224628
    12  N    0.492946
    13  O   -0.466912
    14  O   -0.458587
    15  C   -0.301111
    16  C   -0.299405
    17  C   -0.475619
    18  H    0.140438
    19  H    0.161045
    20  H    0.146970
    21  H    0.165809
    22  H    0.150376
    23  H    0.150136
    24  H    0.158486
    25  C   -0.299228
    26  C   -0.299061
    27  C   -0.475715
    28  H    0.144330
    29  H    0.161679
    30  H    0.146772
    31  H    0.153265
    32  H    0.158357
    33  H    0.152865
    34  H    0.156535
 Sum of Mulliken charges =  -0.00000

 Dipole moment (field-independent basis, Debye):
    X=             -4.1839    Y=              1.6358    Z=             -2.7726  Tot=              5.2791
 Quadrupole moment (field-independent basis, Debye-Ang):
   XX=            -74.3382   YY=            -95.4801   ZZ=            -96.0741
   XY=              0.0344   XZ=              5.2491   YZ=             -0.3409

 Normal termination of Gaussian 16 at Thu May  6 17:37:22 2021.
