 Gaussian 16, Revision A.03,
 Gaussian 16:  EM64L-G16RevA.03 25-Dec-2016

 -------------
 #p 6-31g* mp2
 -------------

 ------------------------------------------------------
 Input file generated by CHIRIPA (05-May-2021 14:51:10)
 ------------------------------------------------------
 Symbolic Z-matrix:
 Charge =  0 Multiplicity = 1

                         Standard orientation:
 ---------------------------------------------------------------------
 Center     Atomic      Atomic             Coordinates (Angstroms)
 Number     Number       Type             X           Y           Z
 ---------------------------------------------------------------------
      1          6           0        4.020842   -0.498301    0.195652
      2          6           0        5.108752   -1.383867   -0.412798
      3          6           0        5.495425   -2.552602    0.494029
      4          1           0        4.369238   -0.113362    1.163840
      5          1           0        3.132974   -1.111177    0.404142
      6          1           0        5.993813   -0.769225   -0.621357
      7          1           0        4.757802   -1.766588   -1.379739
      8          1           0        4.627491   -3.189682    0.692578
      9          1           0        5.870525   -2.186652    1.455269
     10          1           0        6.274518   -3.172610    0.039647
     11          6           0        3.623553    0.674422   -0.699117
     12          6           0        2.535644    1.559988   -0.090668
     13          6           0        2.148971    2.728723   -0.997495
     14          1           0        4.511421    1.287298   -0.907607
     15          1           0        3.275158    0.289483   -1.667305
     16          1           0        2.886594    1.942709    0.876273
     17          1           0        1.650583    0.945346    0.117892
     18          1           0        1.773871    2.362773   -1.958734
     19          1           0        3.016905    3.365803   -1.196044
     20          1           0        1.369878    3.348732   -0.543113
     21          6           0       -4.581057   -0.172240    0.273605
     22          6           0       -5.124803   -1.062911   -0.843995
     23          6           0       -6.644445   -1.221718   -0.786869
     24          1           0       -4.870627   -0.595810    1.245038
     25          1           0       -5.056622    0.816247    0.209363
     26          1           0       -4.647330   -2.048988   -0.778508
     27          1           0       -4.833741   -0.637276   -1.812877
     28          1           0       -7.137118   -0.248010   -0.875004
     29          1           0       -6.949647   -1.667744    0.165242
     30          1           0       -7.011818   -1.862182   -1.594769
     31          6           0       -3.063338   -0.003882    0.229861
     32          6           0       -2.519593    0.886790    1.347460
     33          6           0       -0.999950    1.045597    1.290334
     34          1           0       -2.587773   -0.992369    0.294103
     35          1           0       -2.773769    0.419688   -0.741573
     36          1           0       -2.810655    0.461154    2.316343
     37          1           0       -2.997066    1.872866    1.281974
     38          1           0       -0.694749    1.491622    0.338224
     39          1           0       -0.507278    0.071889    1.378470
     40          1           0       -0.632577    1.686060    2.098235
 ---------------------------------------------------------------------

 SCF Done:  E(RHF) =  -470.732713588     A.U. after   11 cycles
 E2 =    -0.1582999839D+01 EUMP2 =    -0.47231571342680D+03

 The electronic state is 1-A.
 Alpha  occ. eigenvalues --  -11.21619 -11.21611 -11.21560 -11.21428 -11.21407
 Alpha  occ. eigenvalues --  -11.21368 -11.21334 -11.21263 -11.21085 -11.21085
 Alpha  occ. eigenvalues --  -11.21043 -11.21006  -1.08454  -1.08350  -1.03572
 Alpha  occ. eigenvalues --   -1.03439  -0.96031  -0.95897  -0.87037  -0.86930
 Alpha  occ. eigenvalues --   -0.79716  -0.79439  -0.78291  -0.78127  -0.65087
 Alpha  occ. eigenvalues --   -0.64988  -0.60999  -0.60836  -0.59379  -0.59288
 Alpha  occ. eigenvalues --   -0.57680  -0.57473  -0.55336  -0.55163  -0.52717
 Alpha  occ. eigenvalues --   -0.52611  -0.52429  -0.52342  -0.49938  -0.49860
 Alpha  occ. eigenvalues --   -0.48095  -0.47734  -0.46657  -0.46506  -0.45897
 Alpha  occ. eigenvalues --   -0.45732  -0.45686  -0.45448  -0.43801  -0.43704
 Alpha virt. eigenvalues --    0.21996   0.23013   0.23598   0.24835   0.25922
 Alpha virt. eigenvalues --    0.26589   0.27049   0.27566   0.27636   0.29215
 Alpha virt. eigenvalues --    0.31118   0.31320   0.31495   0.31831   0.32234

 Mulliken charges:
               1
     1  C   -0.298052
     2  C   -0.299551
     3  C   -0.475638
     4  H    0.149552
     5  H    0.148970
     6  H    0.151892
     7  H    0.151798
     8  H    0.154958
     9  H    0.155113
    10  H    0.160101
    11  C   -0.297539
    12  C   -0.307161
    13  C   -0.477033
    14  H    0.148799
    15  H    0.148937
    16  H    0.150876
    17  H    0.163593
    18  H    0.154115
    19  H    0.155012
    20  H    0.160471
    21  C   -0.298260
    22  C   -0.299654
    23  C   -0.475719
    24  H    0.149730
    25  H    0.149638
    26  H    0.151854
    27  H    0.151942
    28  H    0.155242
    29  H    0.155213
    30  H    0.160288
    31  C   -0.298380
    32  C   -0.300359
    33  C   -0.478557
    34  H    0.149195
    35  H    0.149597
    36  H    0.151893
    37  H    0.151942
    38  H    0.159322
    39  H    0.154626
    40  H    0.161235
 Sum of Mulliken charges =  -0.00000

 Dipole moment (field-independent basis, Debye):
    X=             -0.0432    Y=              0.0026    Z=              0.0219  Tot=              0.0486
 Quadrupole moment (field-independent basis, Debye-Ang):
   XX=            -85.8172   YY=            -84.6748   ZZ=            -84.5584
   XY=              0.4175   XZ=              0.1320   YZ=              0.2665

 Normal termination of Gaussian 16 at Thu May  6 00:35:43 2021.
