 Gaussian 16, Revision A.03,
 Gaussian 16:  EM64L-G16RevA.03 25-Dec-2016

 -------------
 #p 6-31g* mp2
 -------------

 ------------------------------------------------------
 Input file generated by CHIRIPA (05-May-2021 14:51:11)
 ------------------------------------------------------
 Symbolic Z-matrix:
 Charge =  0 Multiplicity = 1

                         Standard orientation:
 ---------------------------------------------------------------------
 Center     Atomic      Atomic             Coordinates (Angstroms)
 Number     Number       Type             X           Y           Z
 ---------------------------------------------------------------------
      1          6           0        3.109921    0.834088   -0.115918
      2          6           0        4.328861    1.569454    0.442121
      3          6           0        4.090698    3.071159    0.603226
      4          1           0        2.839545    1.270199   -1.087334
      5          1           0        2.252739    1.000860    0.551031
      6          1           0        5.183840    1.400207   -0.224949
      7          1           0        4.596484    1.131416    1.412233
      8          1           0        3.254972    3.257665    1.285412
      9          1           0        3.845665    3.527983   -0.361072
     10          1           0        4.974776    3.577188    1.003478
     11          6           0        3.332530   -0.668033   -0.282671
     12          6           0        2.113590   -1.403398   -0.840710
     13          6           0        2.351753   -2.905103   -1.001815
     14          1           0        4.189713   -0.834804   -0.949619
     15          1           0        3.602907   -1.104143    0.688745
     16          1           0        1.845967   -0.965360   -1.810821
     17          1           0        1.258612   -1.234151   -0.173640
     18          1           0        2.596787   -3.361928   -0.037517
     19          1           0        3.187480   -3.091610   -1.684001
     20          1           0        1.467676   -3.411132   -1.402066
     21          6           0       -3.280542    0.676336    0.142020
     22          6           0       -4.560932    1.133473   -0.557703
     23          6           0       -4.665159    2.655148   -0.664651
     24          1           0       -3.240951    1.119504    1.146500
     25          1           0       -2.411967    1.066649   -0.406276
     26          1           0       -5.426815    0.741260   -0.009037
     27          1           0       -4.597574    0.689012   -1.560562
     28          1           0       -3.820061    3.060347   -1.230533
     29          1           0       -4.654013    3.112892    0.329807
     30          1           0       -5.587921    2.959953   -1.168103
     31          6           0       -3.161910   -0.842392    0.256569
     32          6           0       -1.881519   -1.299529    0.956291
     33          6           0       -1.777293   -2.821203    1.063240
     34          1           0       -4.030484   -1.232704    0.804865
     35          1           0       -3.201500   -1.285559   -0.747911
     36          1           0       -1.844878   -0.855068    1.959151
     37          1           0       -1.015638   -0.907315    0.407625
     38          1           0       -1.788439   -3.278947    0.068781
     39          1           0       -2.622392   -3.226402    1.629121
     40          1           0       -0.854530   -3.126009    1.566691
 ---------------------------------------------------------------------

 SCF Done:  E(RHF) =  -470.733341853     A.U. after   11 cycles
 E2 =    -0.1582888268D+01 EUMP2 =    -0.47231623012043D+03

 The electronic state is 1-A.
 Alpha  occ. eigenvalues --  -11.21605 -11.21599 -11.21597 -11.21594 -11.21411
 Alpha  occ. eigenvalues --  -11.21404 -11.21351 -11.21345 -11.21086 -11.21071
 Alpha  occ. eigenvalues --  -11.21071 -11.21067  -1.08449  -1.08420  -1.03563
 Alpha  occ. eigenvalues --   -1.03505  -0.95998  -0.95963  -0.87012  -0.86981
 Alpha  occ. eigenvalues --   -0.79676  -0.79532  -0.78309  -0.78188  -0.65155
 Alpha  occ. eigenvalues --   -0.64988  -0.61089  -0.60801  -0.59409  -0.59282
 Alpha  occ. eigenvalues --   -0.57637  -0.57545  -0.55313  -0.55214  -0.52697
 Alpha  occ. eigenvalues --   -0.52651  -0.52410  -0.52404  -0.49984  -0.49876
 Alpha  occ. eigenvalues --   -0.48064  -0.47831  -0.46863  -0.46459  -0.45946
 Alpha  occ. eigenvalues --   -0.45768  -0.45753  -0.45381  -0.43799  -0.43769
 Alpha virt. eigenvalues --    0.21053   0.23159   0.23534   0.25084   0.25586
 Alpha virt. eigenvalues --    0.26782   0.27000   0.27449   0.28596   0.28869
 Alpha virt. eigenvalues --    0.30390   0.30775   0.31609   0.31865   0.32614

 Mulliken charges:
               1
     1  C   -0.298622
     2  C   -0.299628
     3  C   -0.475746
     4  H    0.149381
     5  H    0.149682
     6  H    0.151954
     7  H    0.151998
     8  H    0.155343
     9  H    0.155112
    10  H    0.160264
    11  C   -0.297433
    12  C   -0.309232
    13  C   -0.475001
    14  H    0.149553
    15  H    0.149585
    16  H    0.151169
    17  H    0.161189
    18  H    0.155025
    19  H    0.155047
    20  H    0.160573
    21  C   -0.298570
    22  C   -0.299654
    23  C   -0.475730
    24  H    0.149482
    25  H    0.149991
    26  H    0.151894
    27  H    0.151965
    28  H    0.155290
    29  H    0.155144
    30  H    0.160234
    31  C   -0.297460
    32  C   -0.307611
    33  C   -0.475608
    34  H    0.149478
    35  H    0.149706
    36  H    0.151528
    37  H    0.158665
    38  H    0.155301
    39  H    0.155308
    40  H    0.160435
 Sum of Mulliken charges =  -0.00000

 Dipole moment (field-independent basis, Debye):
    X=             -0.0015    Y=             -0.0026    Z=              0.0019  Tot=              0.0036
 Quadrupole moment (field-independent basis, Debye-Ang):
   XX=            -84.5341   YY=            -87.1488   ZZ=            -83.1078
   XY=              0.3022   XZ=             -0.7680   YZ=             -0.1514

 Normal termination of Gaussian 16 at Thu May  6 00:42:11 2021.
