 Gaussian 16, Revision A.03,
 Gaussian 16:  EM64L-G16RevA.03 25-Dec-2016

 -------------
 #p 6-31g* mp2
 -------------

 ------------------------------------------------------
 Input file generated by CHIRIPA (05-May-2021 14:51:08)
 ------------------------------------------------------
 Symbolic Z-matrix:
 Charge =  0 Multiplicity = 1

                         Standard orientation:
 ---------------------------------------------------------------------
 Center     Atomic      Atomic             Coordinates (Angstroms)
 Number     Number       Type             X           Y           Z
 ---------------------------------------------------------------------
      1          6           0        2.225538    0.928003   -0.765748
      2          6           0        2.033395    2.090557    0.208691
      3          6           0        1.280581    3.266268   -0.414824
      4          1           0        2.769521    1.285712   -1.650662
      5          1           0        1.242056    0.588762   -1.119405
      6          1           0        3.016878    2.426600    0.561468
      7          1           0        1.489975    1.729994    1.091474
      8          1           0        0.286868    2.952804   -0.750792
      9          1           0        1.822447    3.653369   -1.283809
     10          1           0        1.154345    4.086157    0.299113
     11          6           0        2.976496   -0.254896   -0.157028
     12          6           0        3.168640   -1.417451   -1.131467
     13          6           0        3.921453   -2.593162   -0.507952
     14          1           0        3.959979    0.084344    0.196629
     15          1           0        2.432514   -0.612606    0.727886
     16          1           0        3.712060   -1.056888   -2.014249
     17          1           0        2.185157   -1.753494   -1.484244
     18          1           0        3.379588   -2.980262    0.361033
     19          1           0        4.915167   -2.279698   -0.171983
     20          1           0        4.047689   -3.413051   -1.221889
     21          6           0       -2.297674   -0.658121    1.084292
     22          6           0       -1.134792    0.140660    1.673899
     23          6           0       -0.538457   -0.515395    2.919600
     24          1           0       -3.078458   -0.775098    1.848254
     25          1           0       -1.949436   -1.670222    0.835741
     26          1           0       -1.484773    1.151389    1.919983
     27          1           0       -0.356769    0.255913    0.908385
     28          1           0       -0.162610   -1.516599    2.685230
     29          1           0       -1.297022   -0.616034    3.702576
     30          1           0        0.291289    0.072250    3.324636
     31          6           0       -2.904360   -0.014985   -0.161516
     32          6           0       -4.067243   -0.813766   -0.751123
     33          6           0       -4.663578   -0.157712   -1.996825
     34          1           0       -3.252599    0.997115    0.087035
     35          1           0       -2.123577    0.101992   -0.925479
     36          1           0       -4.845266   -0.929018    0.014391
     37          1           0       -3.717263   -1.824495   -0.997207
     38          1           0       -3.905012   -0.057072   -2.779800
     39          1           0       -5.039425    0.843493   -1.762455
     40          1           0       -5.493324   -0.745357   -2.401861
 ---------------------------------------------------------------------

 SCF Done:  E(RHF) =  -470.732853760     A.U. after   11 cycles
 E2 =    -0.1584436893D+01 EUMP2 =    -0.47231729065295D+03

 The electronic state is 1-A.
 Alpha  occ. eigenvalues --  -11.21647 -11.21641 -11.21631 -11.21543 -11.21469
 Alpha  occ. eigenvalues --  -11.21424 -11.21409 -11.21366 -11.21162 -11.21102
 Alpha  occ. eigenvalues --  -11.21093 -11.21032  -1.08527  -1.08417  -1.03620
 Alpha  occ. eigenvalues --   -1.03503  -0.96043  -0.95981  -0.87061  -0.86993
 Alpha  occ. eigenvalues --   -0.79701  -0.79559  -0.78328  -0.78247  -0.65411
 Alpha  occ. eigenvalues --   -0.64861  -0.61125  -0.60819  -0.59411  -0.59318
 Alpha  occ. eigenvalues --   -0.57654  -0.57582  -0.55362  -0.55236  -0.52735
 Alpha  occ. eigenvalues --   -0.52667  -0.52467  -0.52402  -0.50067  -0.49860
 Alpha  occ. eigenvalues --   -0.48041  -0.47856  -0.46760  -0.46549  -0.46034
 Alpha  occ. eigenvalues --   -0.45808  -0.45704  -0.45491  -0.43844  -0.43788
 Alpha virt. eigenvalues --    0.19639   0.22911   0.23620   0.23953   0.25520
 Alpha virt. eigenvalues --    0.26308   0.26827   0.27932   0.29331   0.29687
 Alpha virt. eigenvalues --    0.30134   0.31565   0.31595   0.31732   0.32527

 Mulliken charges:
               1
     1  C   -0.300963
     2  C   -0.305297
     3  C   -0.475941
     4  H    0.150722
     5  H    0.149044
     6  H    0.152044
     7  H    0.158347
     8  H    0.156038
     9  H    0.154893
    10  H    0.159992
    11  C   -0.300932
    12  C   -0.299425
    13  C   -0.475685
    14  H    0.149993
    15  H    0.151914
    16  H    0.152133
    17  H    0.151203
    18  H    0.155116
    19  H    0.155391
    20  H    0.160270
    21  C   -0.297594
    22  C   -0.308950
    23  C   -0.477483
    24  H    0.149928
    25  H    0.149257
    26  H    0.152473
    27  H    0.161578
    28  H    0.154978
    29  H    0.155975
    30  H    0.161233
    31  C   -0.299176
    32  C   -0.299664
    33  C   -0.475807
    34  H    0.149950
    35  H    0.149113
    36  H    0.152242
    37  H    0.152007
    38  H    0.155289
    39  H    0.155344
    40  H    0.160449
 Sum of Mulliken charges =  -0.00000

 Dipole moment (field-independent basis, Debye):
    X=             -0.0145    Y=              0.0020    Z=              0.0201  Tot=              0.0249
 Quadrupole moment (field-independent basis, Debye-Ang):
   XX=            -84.0604   YY=            -85.3791   ZZ=            -85.2463
   XY=              0.6711   XZ=             -1.3189   YZ=              0.8069

 Normal termination of Gaussian 16 at Wed May  5 21:18:39 2021.
