 Gaussian 16, Revision A.03,
 Gaussian 16:  EM64L-G16RevA.03 25-Dec-2016

 -------------
 #p 6-31g* mp2
 -------------

 ------------------------------------------------------
 Input file generated by CHIRIPA (05-May-2021 14:55:19)
 ------------------------------------------------------
 Symbolic Z-matrix:
 Charge =  0 Multiplicity = 1

                         Standard orientation:
 ---------------------------------------------------------------------
 Center     Atomic      Atomic             Coordinates (Angstroms)
 Number     Number       Type             X           Y           Z
 ---------------------------------------------------------------------
      1          6           0       -3.085729    2.547296   -0.135294
      2          6           0       -4.283301    1.936470   -0.521602
      3          6           0       -4.393765    0.543015   -0.546673
      4          6           0       -3.281850   -0.212422   -0.177550
      5          6           0       -2.075100    0.366620    0.212006
      6          6           0       -1.987387    1.761806    0.229634
      7          1           0       -3.008755    3.630437   -0.118709
      8          1           0       -5.137917    2.543978   -0.805521
      9          1           0       -5.308903    0.044069   -0.841621
     10          1           0       -1.240338   -0.265450    0.489635
     11          1           0       -1.056081    2.233450    0.530077
     12          7           0       -3.386751   -1.688527   -0.200153
     13          8           0       -2.392664   -2.331715    0.129601
     14          8           0       -4.461072   -2.174359   -0.547193
     15          6           0        4.745454   -0.395689   -0.145310
     16          6           0        5.875381    0.542183   -0.571511
     17          6           0        7.001936   -0.185131   -1.306142
     18          1           0        5.156021   -1.184793    0.499434
     19          1           0        4.340160   -0.897990   -1.034592
     20          1           0        6.277499    1.043603    0.318149
     21          1           0        5.462043    1.329257   -1.215159
     22          1           0        6.621316   -0.671428   -2.210157
     23          1           0        7.441405   -0.958705   -0.668137
     24          1           0        7.799082    0.504127   -1.601678
     25          6           0        3.611824    0.316692    0.590302
     26          6           0        2.481898   -0.621179    1.016504
     27          6           0        1.355342    0.106134    1.751135
     28          1           0        4.017118    0.818994    1.479585
     29          1           0        3.201258    1.105797   -0.054442
     30          1           0        2.895234   -1.408253    1.660152
     31          1           0        2.079779   -1.122600    0.126844
     32          1           0        0.915872    0.879708    1.113130
     33          1           0        1.735961    0.592432    2.655151
     34          1           0        0.558195   -0.583123    2.046671
 ---------------------------------------------------------------------

 SCF Done:  E(RHF) =  -669.534755924     A.U. after   15 cycles
 E2 =    -0.2092045458D+01 EUMP2 =    -0.67162680138189D+03

 The electronic state is 1-A.
 Alpha  occ. eigenvalues --  -20.60718 -20.60712 -15.85767 -11.31082 -11.27677
 Alpha  occ. eigenvalues --  -11.27575 -11.27421 -11.26689 -11.26649 -11.22034
 Alpha  occ. eigenvalues --  -11.21895 -11.21815 -11.21770 -11.21607 -11.21215
 Alpha  occ. eigenvalues --   -1.59792  -1.39347  -1.19266  -1.08772  -1.08675
 Alpha  occ. eigenvalues --   -1.04677  -1.03915  -0.96415  -0.95510  -0.87442
 Alpha  occ. eigenvalues --   -0.86069  -0.82354  -0.79987  -0.78555  -0.77394
 Alpha  occ. eigenvalues --   -0.71989  -0.71114  -0.70397  -0.65417  -0.64921
 Alpha  occ. eigenvalues --   -0.64702  -0.62210  -0.61190  -0.59746  -0.57988
 Alpha  occ. eigenvalues --   -0.55734  -0.55135  -0.53199  -0.52994  -0.52921
 Alpha  occ. eigenvalues --   -0.52537  -0.50336  -0.48743  -0.48741  -0.48286
 Alpha  occ. eigenvalues --   -0.46988  -0.46108  -0.46007  -0.44762  -0.44148
 Alpha  occ. eigenvalues --   -0.37260  -0.36265
 Alpha virt. eigenvalues --    0.05123   0.11370   0.16613   0.20269   0.22772
 Alpha virt. eigenvalues --    0.23919   0.25361   0.26602   0.26871   0.27973
 Alpha virt. eigenvalues --    0.28869   0.30264   0.31375   0.31640   0.32476

 Mulliken charges:
               1
     1  C   -0.170516
     2  C   -0.219218
     3  C   -0.170204
     4  C    0.158096
     5  C   -0.177754
     6  C   -0.226129
     7  H    0.225328
     8  H    0.223021
     9  H    0.275187
    10  H    0.287733
    11  H    0.226501
    12  N    0.487805
    13  O   -0.461451
    14  O   -0.460592
    15  C   -0.298945
    16  C   -0.299831
    17  C   -0.475975
    18  H    0.151562
    19  H    0.151717
    20  H    0.151777
    21  H    0.151131
    22  H    0.156179
    23  H    0.156101
    24  H    0.160508
    25  C   -0.298739
    26  C   -0.300938
    27  C   -0.488893
    28  H    0.149725
    29  H    0.146840
    30  H    0.157729
    31  H    0.158056
    32  H    0.144757
    33  H    0.160756
    34  H    0.168680
 Sum of Mulliken charges =  -0.00000

 Dipole moment (field-independent basis, Debye):
    X=              0.5615    Y=              5.0962    Z=              0.1239  Tot=              5.1285
 Quadrupole moment (field-independent basis, Debye-Ang):
   XX=            -92.9407   YY=            -97.7333   ZZ=            -94.4696
   XY=            -17.7288   XZ=              2.3701   YZ=             -1.5295

 Normal termination of Gaussian 16 at Thu May  6 10:46:34 2021.
