 Gaussian 16, Revision A.03,
 Gaussian 16:  EM64L-G16RevA.03 25-Dec-2016

 -------------
 #p 6-31g* mp2
 -------------

 ------------------------------------------------------
 Input file generated by CHIRIPA (05-May-2021 14:51:09)
 ------------------------------------------------------
 Symbolic Z-matrix:
 Charge =  0 Multiplicity = 1

                         Standard orientation:
 ---------------------------------------------------------------------
 Center     Atomic      Atomic             Coordinates (Angstroms)
 Number     Number       Type             X           Y           Z
 ---------------------------------------------------------------------
      1          6           0       -2.644965   -0.540982    0.553432
      2          6           0       -2.225526   -2.005971    0.427484
      3          6           0       -0.974960   -2.335062    1.243313
      4          1           0       -1.814406    0.100790    0.229019
      5          1           0       -2.824881   -0.308058    1.612097
      6          1           0       -2.047795   -2.236433   -0.630777
      7          1           0       -3.057249   -2.644334    0.752053
      8          1           0       -1.143986   -2.132923    2.305937
      9          1           0       -0.128796   -1.722704    0.915251
     10          1           0       -0.692872   -3.387378    1.138826
     11          6           0       -3.893621   -0.196551   -0.256477
     12          6           0       -4.313061    1.268438   -0.130528
     13          6           0       -5.563627    1.597529   -0.946357
     14          1           0       -3.713706   -0.429475   -1.315142
     15          1           0       -4.724181   -0.838323    0.067936
     16          1           0       -3.481338    1.906801   -0.455098
     17          1           0       -4.490792    1.498899    0.927732
     18          1           0       -6.409791    0.985171   -0.618295
     19          1           0       -5.394601    1.395390   -2.008982
     20          1           0       -5.845714    2.649845   -0.841871
     21          6           0        2.976414    0.949521    0.251994
     22          6           0        3.583367    2.304695   -0.112832
     23          6           0        2.987261    3.456635    0.696790
     24          1           0        1.889896    0.987007    0.093823
     25          1           0        3.129984    0.763458    1.323997
     26          1           0        3.429915    2.487524   -1.184112
     27          1           0        4.668591    2.263918    0.046044
     28          1           0        3.153080    3.301081    1.767728
     29          1           0        1.907366    3.525956    0.530583
     30          1           0        3.435402    4.415997    0.419928
     31          6           0        3.562173   -0.211988   -0.548949
     32          6           0        2.955220   -1.567162   -0.184123
     33          6           0        3.551327   -2.719101   -0.993745
     34          1           0        3.408603   -0.025925   -1.620952
     35          1           0        4.648691   -0.249474   -0.390778
     36          1           0        1.869995   -1.526386   -0.342999
     37          1           0        3.108671   -1.749991    0.887157
     38          1           0        4.631220   -2.788423   -0.827537
     39          1           0        3.385507   -2.563547   -2.064684
     40          1           0        3.103185   -3.678463   -0.716884
 ---------------------------------------------------------------------

 SCF Done:  E(RHF) =  -470.733235087     A.U. after   11 cycles
 E2 =    -0.1582664713D+01 EUMP2 =    -0.47231589980039D+03

 The electronic state is 1-A.
 Alpha  occ. eigenvalues --  -11.21621 -11.21613 -11.21594 -11.21590 -11.21427
 Alpha  occ. eigenvalues --  -11.21416 -11.21366 -11.21357 -11.21082 -11.21080
 Alpha  occ. eigenvalues --  -11.21070 -11.21003  -1.08453  -1.08431  -1.03554
 Alpha  occ. eigenvalues --   -1.03512  -0.95995  -0.95967  -0.87024  -0.86972
 Alpha  occ. eigenvalues --   -0.79669  -0.79531  -0.78297  -0.78214  -0.65134
 Alpha  occ. eigenvalues --   -0.65020  -0.61040  -0.60839  -0.59361  -0.59340
 Alpha  occ. eigenvalues --   -0.57615  -0.57570  -0.55322  -0.55226  -0.52693
 Alpha  occ. eigenvalues --   -0.52657  -0.52452  -0.52360  -0.50035  -0.49855
 Alpha  occ. eigenvalues --   -0.48037  -0.47797  -0.46775  -0.46514  -0.45918
 Alpha  occ. eigenvalues --   -0.45747  -0.45744  -0.45497  -0.43797  -0.43781
 Alpha virt. eigenvalues --    0.21205   0.23233   0.23689   0.24514   0.25665
 Alpha virt. eigenvalues --    0.26864   0.27065   0.27545   0.28073   0.29087
 Alpha virt. eigenvalues --    0.30814   0.31412   0.31667   0.31814   0.32185

 Mulliken charges:
               1
     1  C   -0.298091
     2  C   -0.299718
     3  C   -0.481838
     4  H    0.148677
     5  H    0.149848
     6  H    0.151400
     7  H    0.151981
     8  H    0.155030
     9  H    0.162139
    10  H    0.159786
    11  C   -0.298297
    12  C   -0.299603
    13  C   -0.475711
    14  H    0.149378
    15  H    0.149805
    16  H    0.151679
    17  H    0.152072
    18  H    0.155244
    19  H    0.155129
    20  H    0.160305
    21  C   -0.298615
    22  C   -0.299638
    23  C   -0.475696
    24  H    0.148660
    25  H    0.150028
    26  H    0.151834
    27  H    0.152171
    28  H    0.155375
    29  H    0.155140
    30  H    0.160298
    31  C   -0.297905
    32  C   -0.305212
    33  C   -0.475328
    34  H    0.149183
    35  H    0.149807
    36  H    0.157493
    37  H    0.152580
    38  H    0.155157
    39  H    0.154812
    40  H    0.160642
 Sum of Mulliken charges =  -0.00000

 Dipole moment (field-independent basis, Debye):
    X=              0.0210    Y=             -0.0026    Z=              0.0110  Tot=              0.0238
 Quadrupole moment (field-independent basis, Debye-Ang):
   XX=            -84.7838   YY=            -85.7653   ZZ=            -84.1633
   XY=              0.6766   XZ=             -0.2442   YZ=             -0.5453

 Normal termination of Gaussian 16 at Wed May  5 22:59:06 2021.
