 Gaussian 16, Revision A.03,
 Gaussian 16:  EM64L-G16RevA.03 25-Dec-2016

 -------------
 #p 6-31g* mp2
 -------------

 ------------------------------------------------------
 Input file generated by CHIRIPA (05-May-2021 14:51:12)
 ------------------------------------------------------
 Symbolic Z-matrix:
 Charge =  0 Multiplicity = 1

                         Standard orientation:
 ---------------------------------------------------------------------
 Center     Atomic      Atomic             Coordinates (Angstroms)
 Number     Number       Type             X           Y           Z
 ---------------------------------------------------------------------
      1          6           0        4.269403   -0.659231   -0.185939
      2          6           0        5.118541    0.606556   -0.064562
      3          6           0        6.532168    0.425441   -0.618323
      4          1           0        4.769893   -1.481083    0.344169
      5          1           0        4.215071   -0.956005   -1.242522
      6          1           0        5.170109    0.901637    0.991319
      7          1           0        4.615877    1.425537   -0.594858
      8          1           0        6.498785    0.153790   -1.678366
      9          1           0        7.056166   -0.373086   -0.083177
     10          1           0        7.121808    1.342397   -0.521489
     11          6           0        2.853550   -0.493908    0.363385
     12          6           0        2.004411   -1.759694    0.242008
     13          6           0        0.590784   -1.578580    0.795769
     14          1           0        2.907881   -0.197133    1.419968
     15          1           0        2.353059    0.327944   -0.166723
     16          1           0        2.507076   -2.578676    0.772304
     17          1           0        1.952844   -2.054776   -0.813873
     18          1           0        0.066786   -0.780053    0.260623
     19          1           0        0.624167   -1.306929    1.855812
     20          1           0        0.001145   -2.495536    0.698935
     21          6           0       -2.872709    0.845048   -0.280950
     22          6           0       -2.484597    2.116005    0.475374
     23          6           0       -1.104079    2.640960    0.079919
     24          1           0       -2.116877    0.069848   -0.094604
     25          1           0       -2.852208    1.048483   -1.360575
     26          1           0       -2.507169    1.910613    1.553299
     27          1           0       -3.241542    2.888209    0.287359
     28          1           0       -1.072152    2.873479   -0.989434
     29          1           0       -0.333606    1.890330    0.283699
     30          1           0       -0.846769    3.549923    0.632582
     31          6           0       -4.250243    0.308090    0.103504
     32          6           0       -4.638355   -0.962866   -0.652820
     33          6           0       -6.018873   -1.487821   -0.257365
     34          1           0       -4.270745    0.104655    1.183128
     35          1           0       -5.006076    1.083291   -0.082843
     36          1           0       -3.881410   -1.735070   -0.464805
     37          1           0       -4.615784   -0.757475   -1.730744
     38          1           0       -6.789347   -0.737192   -0.461144
     39          1           0       -6.050801   -1.720341    0.811989
     40          1           0       -6.276183   -2.396786   -0.810028
 ---------------------------------------------------------------------

 SCF Done:  E(RHF) =  -470.733159763     A.U. after   11 cycles
 E2 =    -0.1583169278D+01 EUMP2 =    -0.47231632904025D+03

 The electronic state is 1-A.
 Alpha  occ. eigenvalues --  -11.21644 -11.21602 -11.21567 -11.21565 -11.21428
 Alpha  occ. eigenvalues --  -11.21367 -11.21353 -11.21289 -11.21134 -11.21071
 Alpha  occ. eigenvalues --  -11.21054 -11.21043  -1.08457  -1.08390  -1.03565
 Alpha  occ. eigenvalues --   -1.03494  -0.96016  -0.95948  -0.87040  -0.86961
 Alpha  occ. eigenvalues --   -0.79659  -0.79534  -0.78295  -0.78177  -0.65140
 Alpha  occ. eigenvalues --   -0.64981  -0.61039  -0.60826  -0.59391  -0.59309
 Alpha  occ. eigenvalues --   -0.57619  -0.57562  -0.55347  -0.55206  -0.52716
 Alpha  occ. eigenvalues --   -0.52646  -0.52467  -0.52354  -0.50026  -0.49855
 Alpha  occ. eigenvalues --   -0.48076  -0.47804  -0.46805  -0.46509  -0.45927
 Alpha  occ. eigenvalues --   -0.45751  -0.45705  -0.45349  -0.43811  -0.43748
 Alpha virt. eigenvalues --    0.20934   0.22980   0.23551   0.24812   0.25787
 Alpha virt. eigenvalues --    0.26327   0.27119   0.27243   0.28364   0.29284
 Alpha virt. eigenvalues --    0.30533   0.31367   0.31719   0.31801   0.32000

 Mulliken charges:
               1
     1  C   -0.298323
     2  C   -0.299772
     3  C   -0.475737
     4  H    0.149735
     5  H    0.149664
     6  H    0.151955
     7  H    0.152379
     8  H    0.155210
     9  H    0.155122
    10  H    0.160338
    11  C   -0.300356
    12  C   -0.299178
    13  C   -0.484896
    14  H    0.149557
    15  H    0.151584
    16  H    0.152150
    17  H    0.152296
    18  H    0.163578
    19  H    0.155281
    20  H    0.160215
    21  C   -0.306927
    22  C   -0.298880
    23  C   -0.480643
    24  H    0.158512
    25  H    0.148724
    26  H    0.152104
    27  H    0.151811
    28  H    0.154632
    29  H    0.159043
    30  H    0.160491
    31  C   -0.297545
    32  C   -0.299782
    33  C   -0.475695
    34  H    0.149641
    35  H    0.149394
    36  H    0.152282
    37  H    0.151667
    38  H    0.155077
    39  H    0.155208
    40  H    0.160085
 Sum of Mulliken charges =  -0.00000

 Dipole moment (field-independent basis, Debye):
    X=              0.0289    Y=             -0.0144    Z=              0.0056  Tot=              0.0328
 Quadrupole moment (field-independent basis, Debye-Ang):
   XX=            -86.6219   YY=            -84.6731   ZZ=            -83.5459
   XY=             -0.8307   XZ=              1.1311   YZ=             -0.5955

 Normal termination of Gaussian 16 at Wed May  5 19:53:41 2021.
