 Gaussian 16, Revision A.03,
 Gaussian 16:  EM64L-G16RevA.03 25-Dec-2016

 -------------
 #p 6-31g* mp2
 -------------

 ------------------------------------------------------
 Input file generated by CHIRIPA (05-May-2021 14:51:07)
 ------------------------------------------------------
 Symbolic Z-matrix:
 Charge =  0 Multiplicity = 1

                         Standard orientation:
 ---------------------------------------------------------------------
 Center     Atomic      Atomic             Coordinates (Angstroms)
 Number     Number       Type             X           Y           Z
 ---------------------------------------------------------------------
      1          6           0       -2.853058   -0.508896    0.878797
      2          6           0       -1.580245   -1.293001    0.557688
      3          6           0       -0.934071   -1.905841    1.800539
      4          1           0       -2.614813    0.285389    1.599419
      5          1           0       -3.571077   -1.176264    1.375249
      6          1           0       -0.865372   -0.624704    0.060745
      7          1           0       -1.821511   -2.085390   -0.162400
      8          1           0       -1.626877   -2.594260    2.295210
      9          1           0       -0.665306   -1.125274    2.519623
     10          1           0       -0.025778   -2.461821    1.548048
     11          6           0       -3.510597    0.109775   -0.353524
     12          6           0       -4.783410    0.893880   -0.032415
     13          6           0       -5.429584    1.506721   -1.275266
     14          1           0       -2.792578    0.777143   -0.849976
     15          1           0       -3.748842   -0.684510   -1.074146
     16          1           0       -4.542145    1.686270    0.687673
     17          1           0       -5.498283    0.225583    0.464528
     18          1           0       -5.698349    0.726154   -1.994350
     19          1           0       -4.736778    2.195140   -1.769937
     20          1           0       -6.337877    2.062700   -1.022775
     21          6           0        2.918393    0.889904   -0.069090
     22          6           0        4.026415    1.913292    0.181806
     23          6           0        3.483629    3.289510    0.568070
     24          1           0        2.257940    1.261599   -0.864445
     25          1           0        2.299772    0.800660    0.834645
     26          1           0        4.643596    1.999560   -0.721665
     27          1           0        4.684419    1.539029    0.976523
     28          1           0        2.884509    3.224673    1.482101
     29          1           0        2.843456    3.687820   -0.225736
     30          1           0        4.292678    4.005587    0.742814
     31          6           0        3.445262   -0.490783   -0.456183
     32          6           0        2.337241   -1.514171   -0.707080
     33          6           0        2.880026   -2.890390   -1.093343
     34          1           0        4.063884   -0.401539   -1.359918
     35          1           0        4.105716   -0.862478    0.339171
     36          1           0        1.679237   -1.139909   -1.501797
     37          1           0        1.720059   -1.600439    0.196392
     38          1           0        3.520200   -3.288700   -0.299537
     39          1           0        3.479146   -2.825553   -2.007374
     40          1           0        2.070978   -3.606466   -1.268087
 ---------------------------------------------------------------------

 SCF Done:  E(RHF) =  -470.733025190     A.U. after   11 cycles
 E2 =    -0.1583263116D+01 EUMP2 =    -0.47231628830685D+03

 The electronic state is 1-A.
 Alpha  occ. eigenvalues --  -11.21622 -11.21590 -11.21549 -11.21548 -11.21419
 Alpha  occ. eigenvalues --  -11.21386 -11.21353 -11.21326 -11.21096 -11.21072
 Alpha  occ. eigenvalues --  -11.21070 -11.21064  -1.08451  -1.08399  -1.03572
 Alpha  occ. eigenvalues --   -1.03482  -0.96005  -0.95960  -0.87014  -0.86981
 Alpha  occ. eigenvalues --   -0.79629  -0.79553  -0.78312  -0.78164  -0.65104
 Alpha  occ. eigenvalues --   -0.65017  -0.61012  -0.60879  -0.59517  -0.59197
 Alpha  occ. eigenvalues --   -0.57717  -0.57450  -0.55281  -0.55257  -0.52715
 Alpha  occ. eigenvalues --   -0.52652  -0.52432  -0.52383  -0.49936  -0.49900
 Alpha  occ. eigenvalues --   -0.47929  -0.47894  -0.46620  -0.46601  -0.45908
 Alpha  occ. eigenvalues --   -0.45747  -0.45696  -0.45538  -0.43793  -0.43755
 Alpha virt. eigenvalues --    0.21237   0.23200   0.23547   0.24714   0.25742
 Alpha virt. eigenvalues --    0.26523   0.26930   0.27572   0.28104   0.29224
 Alpha virt. eigenvalues --    0.30696   0.31194   0.31576   0.31852   0.31997

 Mulliken charges:
               1
     1  C   -0.298171
     2  C   -0.302042
     3  C   -0.479466
     4  H    0.149485
     5  H    0.149290
     6  H    0.156064
     7  H    0.151578
     8  H    0.155593
     9  H    0.154446
    10  H    0.162668
    11  C   -0.298237
    12  C   -0.299634
    13  C   -0.475693
    14  H    0.149527
    15  H    0.149538
    16  H    0.151962
    17  H    0.151893
    18  H    0.155123
    19  H    0.155134
    20  H    0.160226
    21  C   -0.298942
    22  C   -0.299582
    23  C   -0.475723
    24  H    0.149203
    25  H    0.149667
    26  H    0.152097
    27  H    0.152126
    28  H    0.155039
    29  H    0.155035
    30  H    0.160399
    31  C   -0.297643
    32  C   -0.308581
    33  C   -0.475857
    34  H    0.149393
    35  H    0.149500
    36  H    0.152491
    37  H    0.161705
    38  H    0.154882
    39  H    0.155294
    40  H    0.160211
 Sum of Mulliken charges =  -0.00000

 Dipole moment (field-independent basis, Debye):
    X=              0.0103    Y=             -0.0028    Z=             -0.0021  Tot=              0.0108
 Quadrupole moment (field-independent basis, Debye-Ang):
   XX=            -84.9475   YY=            -85.3649   ZZ=            -84.5477
   XY=              1.0250   XZ=             -0.2624   YZ=             -0.0533

 Normal termination of Gaussian 16 at Wed May  5 15:01:57 2021.
