 Gaussian 16, Revision A.03,
 Gaussian 16:  EM64L-G16RevA.03 25-Dec-2016

 -------------
 #p 6-31g* mp2
 -------------

 ------------------------------------------------------
 Input file generated by CHIRIPA (05-May-2021 14:53:17)
 ------------------------------------------------------
 Symbolic Z-matrix:
 Charge =  0 Multiplicity = 1

                         Standard orientation:
 ---------------------------------------------------------------------
 Center     Atomic      Atomic             Coordinates (Angstroms)
 Number     Number       Type             X           Y           Z
 ---------------------------------------------------------------------
      1          6           0        2.940576    1.319605   -0.101765
      2          6           0        1.795395    2.332629   -0.119791
      3          6           0        2.286705    3.780492   -0.109699
      4          1           0        3.560072    1.491892    0.789014
      5          1           0        3.588757    1.493904   -0.971751
      6          1           0        1.148794    2.155582    0.749219
      7          1           0        1.178443    2.157787   -1.010530
      8          1           0        2.914614    3.980335   -0.983995
      9          1           0        2.884796    3.978118    0.785752
     10          1           0        1.451681    4.487896   -0.122882
     11          6           0        2.465337   -0.132215   -0.111591
     12          6           0        3.610518   -1.145239   -0.093566
     13          6           0        3.119208   -2.593102   -0.103657
     14          1           0        1.817156   -0.306514    0.758395
     15          1           0        1.845841   -0.304502   -1.002370
     16          1           0        4.227470   -0.970397    0.797174
     17          1           0        4.257119   -0.968192   -0.962575
     18          1           0        2.521117   -2.790728   -0.999108
     19          1           0        2.491299   -2.792945    0.770639
     20          1           0        3.954232   -3.300506   -0.090475
     21          6           0       -3.661754    1.517992   -0.105375
     22          6           0       -3.511604    0.641443   -1.185022
     23          6           0       -2.655507   -0.459889   -1.091673
     24          6           0       -1.961830   -0.655419    0.101587
     25          6           0       -2.090161    0.200018    1.194769
     26          6           0       -2.951805    1.294876    1.078987
     27          1           0       -4.328945    2.371019   -0.186604
     28          1           0       -4.061695    0.812242   -2.106039
     29          1           0       -2.520501   -1.154271   -1.912055
     30          1           0       -1.528488    0.003671    2.099970
     31          1           0       -3.066446    1.973960    1.919073
     32          7           0       -1.052582   -1.817922    0.212286
     33          8           0       -0.452693   -1.968161    1.274452
     34          8           0       -0.957021   -2.556844   -0.765212
 ---------------------------------------------------------------------

 SCF Done:  E(RHF) =  -669.536686197     A.U. after   15 cycles
 E2 =    -0.2093250621D+01 EUMP2 =    -0.67162993681774D+03

 The electronic state is 1-A.
 Alpha  occ. eigenvalues --  -20.60987 -20.60982 -15.85980 -11.31287 -11.27851
 Alpha  occ. eigenvalues --  -11.27842 -11.27575 -11.26851 -11.26841 -11.21390
 Alpha  occ. eigenvalues --  -11.20983 -11.20874 -11.20578 -11.20477 -11.19493
 Alpha  occ. eigenvalues --   -1.60014  -1.39579  -1.19447  -1.08855  -1.07781
 Alpha  occ. eigenvalues --   -1.04844  -1.02810  -0.95704  -0.95231  -0.86246
 Alpha  occ. eigenvalues --   -0.86245  -0.82546  -0.78949  -0.77629  -0.77504
 Alpha  occ. eigenvalues --   -0.72218  -0.71295  -0.70561  -0.65111  -0.64850
 Alpha  occ. eigenvalues --   -0.64420  -0.62196  -0.60211  -0.58714  -0.56828
 Alpha  occ. eigenvalues --   -0.55350  -0.54505  -0.53167  -0.52939  -0.51963
 Alpha  occ. eigenvalues --   -0.51640  -0.49234  -0.48984  -0.48905  -0.47189
 Alpha  occ. eigenvalues --   -0.46008  -0.45514  -0.45034  -0.44346  -0.43072
 Alpha  occ. eigenvalues --   -0.37415  -0.36435
 Alpha virt. eigenvalues --    0.04885   0.11183   0.16351   0.21263   0.23373
 Alpha virt. eigenvalues --    0.25143   0.26722   0.27434   0.27616   0.28621
 Alpha virt. eigenvalues --    0.28882   0.30998   0.32100   0.32164   0.32517

 Mulliken charges:
               1
     1  C   -0.297234
     2  C   -0.298204
     3  C   -0.474944
     4  H    0.148327
     5  H    0.147866
     6  H    0.146995
     7  H    0.150156
     8  H    0.155591
     9  H    0.154992
    10  H    0.155819
    11  C   -0.306205
    12  C   -0.298752
    13  C   -0.480928
    14  H    0.161133
    15  H    0.146385
    16  H    0.147787
    17  H    0.146415
    18  H    0.160922
    19  H    0.173892
    20  H    0.151886
    21  C   -0.170377
    22  C   -0.218443
    23  C   -0.171065
    24  C    0.159788
    25  C   -0.170291
    26  C   -0.218234
    27  H    0.225996
    28  H    0.223755
    29  H    0.275602
    30  H    0.275187
    31  H    0.223831
    32  N    0.490202
    33  O   -0.459371
    34  O   -0.458481
 Sum of Mulliken charges =  -0.00000

 Dipole moment (field-independent basis, Debye):
    X=             -3.4396    Y=              3.8989    Z=             -0.3361  Tot=              5.2101
 Quadrupole moment (field-independent basis, Debye-Ang):
   XX=            -83.3425   YY=           -101.7943   ZZ=            -89.4923
   XY=             -6.1397   XZ=              1.9135   YZ=              2.0665

 Normal termination of Gaussian 16 at Thu May  6 18:58:12 2021.
