 Gaussian 16, Revision A.03,
 Gaussian 16:  EM64L-G16RevA.03 25-Dec-2016

 -------------
 #p 6-31g* mp2
 -------------

 ------------------------------------------------------
 Input file generated by CHIRIPA (05-May-2021 14:55:23)
 ------------------------------------------------------
 Symbolic Z-matrix:
 Charge =  0 Multiplicity = 1

                         Standard orientation:
 ---------------------------------------------------------------------
 Center     Atomic      Atomic             Coordinates (Angstroms)
 Number     Number       Type             X           Y           Z
 ---------------------------------------------------------------------
      1          6           0       -4.551844    2.409429    0.030730
      2          6           0       -3.168139    2.300478   -0.142503
      3          6           0       -2.551723    1.045819   -0.162691
      4          6           0       -3.352989   -0.084099   -0.006012
      5          6           0       -4.733969   -0.008256    0.168434
      6          6           0       -5.328973    1.256746    0.185373
      7          1           0       -5.022375    3.388096    0.045151
      8          1           0       -2.562114    3.193953   -0.262841
      9          1           0       -1.482587    0.932613   -0.295171
     10          1           0       -5.311778   -0.916973    0.285855
     11          1           0       -6.403795    1.338334    0.320080
     12          7           0       -2.711750   -1.417826   -0.025665
     13          8           0       -3.439877   -2.398040    0.114512
     14          8           0       -1.493163   -1.457733   -0.180874
     15          6           0        4.714755    0.512437   -0.169317
     16          6           0        6.139071    0.720294    0.346536
     17          6           0        6.700782    2.097674   -0.007159
     18          1           0        4.703423    0.645649   -1.259762
     19          1           0        4.063607    1.293125    0.247729
     20          1           0        6.787059   -0.061373   -0.070263
     21          1           0        6.147049    0.586383    1.435856
     22          1           0        6.078177    2.889405    0.421942
     23          1           0        6.721824    2.237968   -1.092735
     24          1           0        7.719867    2.224886    0.371179
     25          6           0        4.139447   -0.859867    0.176416
     26          6           0        2.715131   -1.067725   -0.339436
     27          6           0        2.153420   -2.445104    0.014259
     28          1           0        4.790595   -1.640555   -0.240630
     29          1           0        4.150779   -0.993080    1.266862
     30          1           0        2.707152   -0.933814   -1.428757
     31          1           0        2.067143   -0.286057    0.077363
     32          1           0        2.132376   -2.585398    1.099835
     33          1           0        2.776024   -3.236836   -0.414842
     34          1           0        1.134333   -2.572316   -0.364080
 ---------------------------------------------------------------------

 SCF Done:  E(RHF) =  -669.536110885     A.U. after   15 cycles
 E2 =    -0.2090804564D+01 EUMP2 =    -0.67162691544935D+03

 The electronic state is 1-A.
 Alpha  occ. eigenvalues --  -20.60921 -20.60915 -15.85963 -11.31281 -11.27844
 Alpha  occ. eigenvalues --  -11.27840 -11.27583 -11.26852 -11.26842 -11.21304
 Alpha  occ. eigenvalues --  -11.20994 -11.20876 -11.20778 -11.20716 -11.19680
 Alpha  occ. eigenvalues --   -1.59985  -1.39542  -1.19449  -1.08854  -1.07888
 Alpha  occ. eigenvalues --   -1.04845  -1.02880  -0.95700  -0.95301  -0.86323
 Alpha  occ. eigenvalues --   -0.86244  -0.82530  -0.78988  -0.77678  -0.77581
 Alpha  occ. eigenvalues --   -0.72193  -0.71301  -0.70558  -0.65107  -0.64848
 Alpha  occ. eigenvalues --   -0.64532  -0.62192  -0.60293  -0.58713  -0.56877
 Alpha  occ. eigenvalues --   -0.55350  -0.54619  -0.53178  -0.52938  -0.51933
 Alpha  occ. eigenvalues --   -0.51728  -0.49287  -0.48941  -0.48923  -0.47265
 Alpha  occ. eigenvalues --   -0.46060  -0.45212  -0.45142  -0.44955  -0.43104
 Alpha  occ. eigenvalues --   -0.37429  -0.36447
 Alpha virt. eigenvalues --    0.04951   0.11208   0.16451   0.21190   0.23305
 Alpha virt. eigenvalues --    0.24783   0.26643   0.27344   0.27672   0.28430
 Alpha virt. eigenvalues --    0.28874   0.30622   0.31670   0.32133   0.32727

 Mulliken charges:
               1
     1  C   -0.170596
     2  C   -0.218618
     3  C   -0.171154
     4  C    0.157544
     5  C   -0.170473
     6  C   -0.218635
     7  H    0.225952
     8  H    0.223904
     9  H    0.276250
    10  H    0.275837
    11  H    0.223755
    12  N    0.493920
    13  O   -0.459101
    14  O   -0.465672
    15  C   -0.297090
    16  C   -0.299095
    17  C   -0.475233
    18  H    0.148289
    19  H    0.145831
    20  H    0.152090
    21  H    0.151538
    22  H    0.153364
    23  H    0.154482
    24  H    0.159425
    25  C   -0.297510
    26  C   -0.297105
    27  C   -0.484066
    28  H    0.148754
    29  H    0.148543
    30  H    0.148667
    31  H    0.147553
    32  H    0.151395
    33  H    0.147990
    34  H    0.189262
 Sum of Mulliken charges =  -0.00000

 Dipole moment (field-independent basis, Debye):
    X=             -2.5529    Y=              4.6235    Z=              0.0531  Tot=              5.2817
 Quadrupole moment (field-independent basis, Debye-Ang):
   XX=            -76.7478   YY=            -95.8234   ZZ=            -94.9110
   XY=            -14.3210   XZ=             -1.1981   YZ=              0.1782

 Normal termination of Gaussian 16 at Wed May  5 23:58:04 2021.
