 Gaussian 16, Revision A.03,
 Gaussian 16:  EM64L-G16RevA.03 25-Dec-2016

 -------------
 #p 6-31g* mp2
 -------------

 ------------------------------------------------------
 Input file generated by CHIRIPA (05-May-2021 14:55:20)
 ------------------------------------------------------
 Symbolic Z-matrix:
 Charge =  0 Multiplicity = 1

                         Standard orientation:
 ---------------------------------------------------------------------
 Center     Atomic      Atomic             Coordinates (Angstroms)
 Number     Number       Type             X           Y           Z
 ---------------------------------------------------------------------
      1          6           0        1.568236   -2.189422    1.237034
      2          6           0        0.769550   -1.493931    0.323299
      3          6           0        1.280701   -0.395446   -0.374271
      4          6           0        2.600722   -0.018107   -0.132510
      5          6           0        3.421479   -0.690721    0.771504
      6          6           0        2.889322   -1.786308    1.457831
      7          1           0        1.163003   -3.041626    1.774557
      8          1           0       -0.256774   -1.804747    0.149811
      9          1           0        0.684449    0.160912   -1.087271
     10          1           0        4.440875   -0.357208    0.923223
     11          1           0        3.511905   -2.324557    2.166862
     12          7           0        3.152974    1.143276   -0.865045
     13          8           0        4.319033    1.455724   -0.634135
     14          8           0        2.409312    1.719129   -1.656245
     15          6           0       -2.943152   -0.436517   -0.104613
     16          6           0       -3.919691   -1.338603   -0.859993
     17          6           0       -3.366717   -2.745115   -1.091804
     18          1           0       -2.001666   -0.373772   -0.667296
     19          1           0       -2.699549   -0.899589    0.861624
     20          1           0       -4.162454   -0.873295   -1.823928
     21          1           0       -4.859030   -1.399053   -0.295543
     22          1           0       -3.141504   -3.232595   -0.137737
     23          1           0       -2.440971   -2.703850   -1.674807
     24          1           0       -4.080998   -3.373103   -1.633369
     25          6           0       -3.481691    0.972880    0.134768
     26          6           0       -2.505153    1.874966    0.890147
     27          6           0       -3.058127    3.281478    1.121958
     28          1           0       -3.725296    1.435953   -0.831470
     29          1           0       -4.423179    0.910135    0.697450
     30          1           0       -1.565814    1.935416    0.325697
     31          1           0       -2.262389    1.409659    1.854082
     32          1           0       -3.983874    3.240213    1.704961
     33          1           0       -3.283340    3.768957    0.167891
     34          1           0       -2.343846    3.909466    1.663523
 ---------------------------------------------------------------------

 SCF Done:  E(RHF) =  -669.535127348     A.U. after   15 cycles
 E2 =    -0.2092750695D+01 EUMP2 =    -0.67162787804355D+03

 The electronic state is 1-A.
 Alpha  occ. eigenvalues --  -20.60721 -20.60715 -15.85771 -11.31109 -11.27664
 Alpha  occ. eigenvalues --  -11.27652 -11.27378 -11.26686 -11.26569 -11.22410
 Alpha  occ. eigenvalues --  -11.22338 -11.22011 -11.21980 -11.21918 -11.21253
 Alpha  occ. eigenvalues --   -1.59795  -1.39350  -1.19264  -1.09135  -1.08663
 Alpha  occ. eigenvalues --   -1.04661  -1.04128  -0.96608  -0.95510  -0.87620
 Alpha  occ. eigenvalues --   -0.86061  -0.82358  -0.80231  -0.78981  -0.77363
 Alpha  occ. eigenvalues --   -0.71990  -0.71117  -0.70384  -0.65767  -0.64910
 Alpha  occ. eigenvalues --   -0.64667  -0.62034  -0.61506  -0.59985  -0.58207
 Alpha  occ. eigenvalues --   -0.55907  -0.55167  -0.53259  -0.53079  -0.52974
 Alpha  occ. eigenvalues --   -0.52730  -0.50546  -0.48762  -0.48748  -0.48489
 Alpha  occ. eigenvalues --   -0.47270  -0.46426  -0.46360  -0.44762  -0.44409
 Alpha  occ. eigenvalues --   -0.37244  -0.36245
 Alpha virt. eigenvalues --    0.05113   0.11343   0.16590   0.19638   0.22557
 Alpha virt. eigenvalues --    0.23246   0.24467   0.26089   0.26878   0.28648
 Alpha virt. eigenvalues --    0.30165   0.30313   0.31204   0.31214   0.32041

 Mulliken charges:
               1
     1  C   -0.172795
     2  C   -0.223235
     3  C   -0.175631
     4  C    0.159130
     5  C   -0.171567
     6  C   -0.218191
     7  H    0.225304
     8  H    0.234950
     9  H    0.274898
    10  H    0.275136
    11  H    0.222920
    12  N    0.488441
    13  O   -0.460577
    14  O   -0.461323
    15  C   -0.304202
    16  C   -0.299043
    17  C   -0.479966
    18  H    0.143711
    19  H    0.147437
    20  H    0.156615
    21  H    0.155629
    22  H    0.151620
    23  H    0.153303
    24  H    0.166407
    25  C   -0.298331
    26  C   -0.301698
    27  C   -0.476205
    28  H    0.153387
    29  H    0.151819
    30  H    0.154536
    31  H    0.151329
    32  H    0.154632
    33  H    0.157769
    34  H    0.163788
 Sum of Mulliken charges =  -0.00000

 Dipole moment (field-independent basis, Debye):
    X=             -2.1784    Y=             -4.0027    Z=              2.5770  Tot=              5.2353
 Quadrupole moment (field-independent basis, Debye-Ang):
   XX=           -100.3653   YY=            -95.9519   ZZ=            -94.1987
   XY=            -10.9785   XZ=              9.3115   YZ=             -0.3109

 Normal termination of Gaussian 16 at Thu May  6 17:25:47 2021.
