 Gaussian 16, Revision A.03,
 Gaussian 16:  EM64L-G16RevA.03 25-Dec-2016

 -------------
 #p 6-31g* mp2
 -------------

 ------------------------------------------------------
 Input file generated by CHIRIPA (05-May-2021 14:55:25)
 ------------------------------------------------------
 Symbolic Z-matrix:
 Charge =  0 Multiplicity = 1

                         Standard orientation:
 ---------------------------------------------------------------------
 Center     Atomic      Atomic             Coordinates (Angstroms)
 Number     Number       Type             X           Y           Z
 ---------------------------------------------------------------------
      1          6           0       -0.313536   -1.680629    0.405686
      2          6           0       -1.089673   -1.273379    1.495768
      3          6           0       -2.291537   -0.587974    1.295040
      4          6           0       -2.688896   -0.325301   -0.015074
      5          6           0       -1.937635   -0.718005   -1.121727
      6          6           0       -0.739244   -1.402133   -0.897285
      7          1           0        0.618752   -2.212573    0.570827
      8          1           0       -0.761540   -1.488294    2.508776
      9          1           0       -2.911829   -0.261180    2.120789
     10          1           0       -2.290837   -0.489344   -2.119915
     11          1           0       -0.138522   -1.717203   -1.745761
     12          7           0       -3.959417    0.399631   -0.240128
     13          8           0       -4.287453    0.618871   -1.404157
     14          8           0       -4.603158    0.734867    0.751765
     15          6           0        3.079892   -0.173245    0.124212
     16          6           0        4.202008   -1.052350   -0.428973
     17          6           0        4.000052   -2.535273   -0.116007
     18          1           0        3.014498   -0.314339    1.211761
     19          1           0        2.120573   -0.509628   -0.292859
     20          1           0        5.159085   -0.713530   -0.012056
     21          1           0        4.264864   -0.909003   -1.515305
     22          1           0        3.059750   -2.895170   -0.546018
     23          1           0        3.959052   -2.698585    0.965773
     24          1           0        4.813617   -3.145400   -0.520626
     25          6           0        3.267625    1.311877   -0.180578
     26          6           0        2.145508    2.190983    0.372607
     27          6           0        2.347465    3.673905    0.059641
     28          1           0        4.226944    1.648259    0.236493
     29          1           0        3.333018    1.452970   -1.268127
     30          1           0        2.082652    2.047636    1.458940
     31          1           0        1.188432    1.852162   -0.044310
     32          1           0        2.388465    3.837217   -1.022139
     33          1           0        3.287766    4.033802    0.489652
     34          1           0        1.533899    4.284032    0.464260
 ---------------------------------------------------------------------

 SCF Done:  E(RHF) =  -669.534464131     A.U. after   15 cycles
 E2 =    -0.2093494030D+01 EUMP2 =    -0.67162795816147D+03

 The electronic state is 1-A.
 Alpha  occ. eigenvalues --  -20.60766 -20.60761 -15.85823 -11.31185 -11.27791
 Alpha  occ. eigenvalues --  -11.27776 -11.27468 -11.26785 -11.26746 -11.22469
 Alpha  occ. eigenvalues --  -11.22209 -11.22161 -11.21986 -11.21922 -11.21334
 Alpha  occ. eigenvalues --   -1.59843  -1.39397  -1.19377  -1.09140  -1.08754
 Alpha  occ. eigenvalues --   -1.04782  -1.04198  -0.96669  -0.95601  -0.87685
 Alpha  occ. eigenvalues --   -0.86181  -0.82441  -0.80281  -0.78927  -0.77476
 Alpha  occ. eigenvalues --   -0.72041  -0.71168  -0.70488  -0.65785  -0.65018
 Alpha  occ. eigenvalues --   -0.64774  -0.62132  -0.61589  -0.60062  -0.58270
 Alpha  occ. eigenvalues --   -0.55991  -0.55283  -0.53378  -0.53195  -0.52999
 Alpha  occ. eigenvalues --   -0.52871  -0.50628  -0.48803  -0.48795  -0.48570
 Alpha  occ. eigenvalues --   -0.47316  -0.46435  -0.46341  -0.44803  -0.44435
 Alpha  occ. eigenvalues --   -0.37245  -0.36386
 Alpha virt. eigenvalues --    0.05052   0.11138   0.16517   0.19431   0.22644
 Alpha virt. eigenvalues --    0.23785   0.25480   0.26165   0.27092   0.27726
 Alpha virt. eigenvalues --    0.29328   0.30491   0.30963   0.31256   0.32129

 Mulliken charges:
               1
     1  C   -0.170238
     2  C   -0.220937
     3  C   -0.170263
     4  C    0.157726
     5  C   -0.171151
     6  C   -0.221241
     7  H    0.233868
     8  H    0.223733
     9  H    0.275683
    10  H    0.275646
    11  H    0.222774
    12  N    0.488153
    13  O   -0.460623
    14  O   -0.460457
    15  C   -0.305193
    16  C   -0.299403
    17  C   -0.478106
    18  H    0.146393
    19  H    0.150370
    20  H    0.155918
    21  H    0.153529
    22  H    0.145563
    23  H    0.155133
    24  H    0.166462
    25  C   -0.297808
    26  C   -0.301275
    27  C   -0.476263
    28  H    0.150944
    29  H    0.150256
    30  H    0.150580
    31  H    0.155921
    32  H    0.155914
    33  H    0.155106
    34  H    0.163286
 Sum of Mulliken charges =  -0.00000

 Dipole moment (field-independent basis, Debye):
    X=              4.5585    Y=             -2.4778    Z=              0.8101  Tot=              5.2512
 Quadrupole moment (field-independent basis, Debye-Ang):
   XX=           -118.8703   YY=            -94.9434   ZZ=            -89.1524
   XY=              5.4594   XZ=             -2.6697   YZ=              0.2939

 Normal termination of Gaussian 16 at Wed May  5 22:28:43 2021.
