 Gaussian 16, Revision A.03,
 Gaussian 16:  EM64L-G16RevA.03 25-Dec-2016

 -------------
 #p 6-31g* mp2
 -------------

 ------------------------------------------------------
 Input file generated by CHIRIPA (05-May-2021 14:55:25)
 ------------------------------------------------------
 Symbolic Z-matrix:
 Charge =  0 Multiplicity = 1

                         Standard orientation:
 ---------------------------------------------------------------------
 Center     Atomic      Atomic             Coordinates (Angstroms)
 Number     Number       Type             X           Y           Z
 ---------------------------------------------------------------------
      1          6           0       -0.845411   -1.194526    0.536125
      2          6           0       -1.015997   -0.217968   -0.450667
      3          6           0       -2.292628    0.255456   -0.767888
      4          6           0       -3.381430   -0.272075   -0.075419
      5          6           0       -3.243923   -1.245662    0.912766
      6          6           0       -1.957958   -1.704357    1.213497
      7          1           0        0.149932   -1.556572    0.776145
      8          1           0       -0.153797    0.179784   -0.978350
      9          1           0       -2.453325    1.010928   -1.527399
     10          1           0       -4.122564   -1.623086    1.421647
     11          1           0       -1.828480   -2.462822    1.980316
     12          7           0       -4.737883    0.221321   -0.402519
     13          8           0       -5.680945   -0.259538    0.222017
     14          8           0       -4.832325    1.079562   -1.277242
     15          6           0        4.214054   -0.183772   -0.358750
     16          6           0        5.615779   -0.715500   -0.058056
     17          6           0        5.945144   -1.988447   -0.838388
     18          1           0        3.475215   -0.961795   -0.122653
     19          1           0        4.127413    0.012866   -1.436350
     20          1           0        5.700203   -0.909769    1.018860
     21          1           0        6.351354    0.063947   -0.294714
     22          1           0        5.888608   -1.805058   -1.916244
     23          1           0        5.233757   -2.784308   -0.595206
     24          1           0        6.951776   -2.351240   -0.608319
     25          6           0        3.870092    1.088457    0.413813
     26          6           0        2.468367    1.620186    0.113120
     27          6           0        2.139003    2.893132    0.893452
     28          1           0        3.956734    0.891819    1.491414
     29          1           0        4.608931    1.866480    0.177718
     30          1           0        1.732792    0.840738    0.349778
     31          1           0        2.383944    1.814454   -0.963796
     32          1           0        2.850390    3.688993    0.650270
     33          1           0        2.195539    2.709743    1.971308
     34          1           0        1.132370    3.255925    0.663382
 ---------------------------------------------------------------------

 SCF Done:  E(RHF) =  -669.535273724     A.U. after   15 cycles
 E2 =    -0.2091886894D+01 EUMP2 =    -0.67162716061831D+03

 The electronic state is 1-A.
 Alpha  occ. eigenvalues --  -20.60745 -20.60739 -15.85796 -11.31164 -11.27728
 Alpha  occ. eigenvalues --  -11.27708 -11.27470 -11.26753 -11.26678 -11.22656
 Alpha  occ. eigenvalues --  -11.22361 -11.22308 -11.22249 -11.21834 -11.21727
 Alpha  occ. eigenvalues --   -1.59820  -1.39373  -1.19330  -1.09325  -1.08728
 Alpha  occ. eigenvalues --   -1.04733  -1.04358  -0.96774  -0.95565  -0.87789
 Alpha  occ. eigenvalues --   -0.86135  -0.82393  -0.80462  -0.79165  -0.77433
 Alpha  occ. eigenvalues --   -0.72016  -0.71142  -0.70450  -0.65975  -0.64981
 Alpha  occ. eigenvalues --   -0.64738  -0.62126  -0.61715  -0.60138  -0.58398
 Alpha  occ. eigenvalues --   -0.56051  -0.55237  -0.53460  -0.53197  -0.53061
 Alpha  occ. eigenvalues --   -0.52820  -0.50712  -0.48835  -0.48771  -0.48674
 Alpha  occ. eigenvalues --   -0.47487  -0.46675  -0.46606  -0.44778  -0.44619
 Alpha  occ. eigenvalues --   -0.37305  -0.36322
 Alpha virt. eigenvalues --    0.05079   0.11218   0.16561   0.19562   0.22485
 Alpha virt. eigenvalues --    0.23617   0.24749   0.25683   0.26869   0.27955
 Alpha virt. eigenvalues --    0.29773   0.29975   0.30872   0.31301   0.31714

 Mulliken charges:
               1
     1  C   -0.173134
     2  C   -0.220299
     3  C   -0.172638
     4  C    0.158705
     5  C   -0.171198
     6  C   -0.218516
     7  H    0.225496
     8  H    0.230178
     9  H    0.275540
    10  H    0.275477
    11  H    0.223218
    12  N    0.488069
    13  O   -0.460490
    14  O   -0.460422
    15  C   -0.297809
    16  C   -0.300189
    17  C   -0.476033
    18  H    0.141275
    19  H    0.150930
    20  H    0.152784
    21  H    0.154763
    22  H    0.156472
    23  H    0.153831
    24  H    0.162920
    25  C   -0.298160
    26  C   -0.306379
    27  C   -0.475355
    28  H    0.151125
    29  H    0.153889
    30  H    0.146077
    31  H    0.150946
    32  H    0.158675
    33  H    0.157542
    34  H    0.162709
 Sum of Mulliken charges =  -0.00000

 Dipole moment (field-independent basis, Debye):
    X=              4.9726    Y=             -1.6455    Z=              1.1738  Tot=              5.3677
 Quadrupole moment (field-independent basis, Debye-Ang):
   XX=           -126.0330   YY=            -92.6457   ZZ=            -92.6296
   XY=              6.7582   XZ=             -5.9059   YZ=             -3.4765

 Normal termination of Gaussian 16 at Thu May  6 16:03:24 2021.
