 Gaussian 16, Revision A.03,
 Gaussian 16:  EM64L-G16RevA.03 25-Dec-2016

 -------------
 #p 6-31g* mp2
 -------------

 ------------------------------------------------------
 Input file generated by CHIRIPA (05-May-2021 14:53:15)
 ------------------------------------------------------
 Symbolic Z-matrix:
 Charge =  0 Multiplicity = 1

                         Standard orientation:
 ---------------------------------------------------------------------
 Center     Atomic      Atomic             Coordinates (Angstroms)
 Number     Number       Type             X           Y           Z
 ---------------------------------------------------------------------
      1          6           0       -2.557427   -0.580927   -0.713834
      2          6           0       -2.101523   -2.025423   -0.505108
      3          6           0       -1.060646   -2.471130   -1.532588
      4          1           0       -2.971244   -0.476390   -1.726144
      5          1           0       -1.683341    0.083018   -0.663370
      6          1           0       -2.976397   -2.686305   -0.554573
      7          1           0       -1.688918   -2.126579    0.506891
      8          1           0       -0.170580   -1.835840   -1.479763
      9          1           0       -1.465374   -2.398746   -2.547258
     10          1           0       -0.748748   -3.506713   -1.364818
     11          6           0       -3.597962   -0.120756    0.305605
     12          6           0       -4.053866    1.323741    0.096879
     13          6           0       -5.094743    1.769447    1.124359
     14          1           0       -4.472048   -0.784700    0.255141
     15          1           0       -3.184145   -0.225293    1.317915
     16          1           0       -4.466471    1.424896   -0.915120
     17          1           0       -3.178992    1.984622    0.146344
     18          1           0       -4.690015    1.697063    2.139029
     19          1           0       -5.984809    1.134157    1.071534
     20          1           0       -5.406641    2.805031    0.956589
     21          6           0        2.478420    2.222893   -1.441360
     22          6           0        2.309402    0.922714   -1.928691
     23          6           0        2.266943   -0.164611   -1.050928
     24          6           0        2.397297    0.085692    0.314226
     25          6           0        2.566878    1.369452    0.830456
     26          6           0        2.606394    2.441726   -0.065766
     27          1           0        2.510260    3.061707   -2.130397
     28          1           0        2.209752    0.749782   -2.996496
     29          1           0        2.137139   -1.181435   -1.401124
     30          1           0        2.663437    1.510387    1.900144
     31          1           0        2.737765    3.450385    0.315539
     32          7           0        2.353907   -1.057443    1.253245
     33          8           0        2.471094   -0.810371    2.451519
     34          8           0        2.203532   -2.178860    0.773195
 ---------------------------------------------------------------------

 SCF Done:  E(RHF) =  -669.535470734     A.U. after   15 cycles
 E2 =    -0.2092258742D+01 EUMP2 =    -0.67162772947631D+03

 The electronic state is 1-A.
 Alpha  occ. eigenvalues --  -20.60857 -20.60844 -15.85898 -11.31276 -11.27835
 Alpha  occ. eigenvalues --  -11.27822 -11.27571 -11.26855 -11.26845 -11.21577
 Alpha  occ. eigenvalues --  -11.21312 -11.21267 -11.21211 -11.21042 -11.20831
 Alpha  occ. eigenvalues --   -1.59923  -1.39475  -1.19446  -1.08835  -1.08291
 Alpha  occ. eigenvalues --   -1.04849  -1.03380  -0.95851  -0.95662  -0.86872
 Alpha  occ. eigenvalues --   -0.86239  -0.82497  -0.79457  -0.78107  -0.77544
 Alpha  occ. eigenvalues --   -0.72114  -0.71247  -0.70554  -0.65094  -0.64956
 Alpha  occ. eigenvalues --   -0.64818  -0.62228  -0.60760  -0.59199  -0.57446
 Alpha  occ. eigenvalues --   -0.55391  -0.55104  -0.53182  -0.52955  -0.52518
 Alpha  occ. eigenvalues --   -0.52248  -0.49792  -0.48875  -0.48867  -0.47771
 Alpha  occ. eigenvalues --   -0.46480  -0.45652  -0.45563  -0.44857  -0.43633
 Alpha  occ. eigenvalues --   -0.37418  -0.36425
 Alpha virt. eigenvalues --    0.04948   0.11102   0.16469   0.21169   0.22997
 Alpha virt. eigenvalues --    0.24411   0.26295   0.26964   0.27685   0.27798
 Alpha virt. eigenvalues --    0.28960   0.30657   0.31492   0.31895   0.32151

 Mulliken charges:
               1
     1  C   -0.298942
     2  C   -0.300960
     3  C   -0.476036
     4  H    0.146773
     5  H    0.147671
     6  H    0.151550
     7  H    0.160304
     8  H    0.149639
     9  H    0.149252
    10  H    0.167433
    11  C   -0.298598
    12  C   -0.299130
    13  C   -0.475689
    14  H    0.149887
    15  H    0.152303
    16  H    0.150537
    17  H    0.149874
    18  H    0.156196
    19  H    0.155705
    20  H    0.158792
    21  C   -0.170749
    22  C   -0.219230
    23  C   -0.171873
    24  C    0.158050
    25  C   -0.171364
    26  C   -0.218195
    27  H    0.226106
    28  H    0.224634
    29  H    0.278564
    30  H    0.275772
    31  H    0.223828
    32  N    0.488089
    33  O   -0.460171
    34  O   -0.460022
 Sum of Mulliken charges =  -0.00000

 Dipole moment (field-independent basis, Debye):
    X=              0.2259    Y=              3.9776    Z=             -3.2277  Tot=              5.1274
 Quadrupole moment (field-independent basis, Debye-Ang):
   XX=            -94.9039   YY=            -92.3410   ZZ=            -94.3471
   XY=             11.0340   XZ=             -6.7005   YZ=              3.4445

 Normal termination of Gaussian 16 at Wed May  5 18:39:33 2021.
