 Gaussian 16, Revision A.03,
 Gaussian 16:  EM64L-G16RevA.03 25-Dec-2016

 -------------
 #p 6-31g* mp2
 -------------

 ------------------------------------------------------
 Input file generated by CHIRIPA (05-May-2021 14:57:27)
 ------------------------------------------------------
 Symbolic Z-matrix:
 Charge =  0 Multiplicity = 1

                         Standard orientation:
 ---------------------------------------------------------------------
 Center     Atomic      Atomic             Coordinates (Angstroms)
 Number     Number       Type             X           Y           Z
 ---------------------------------------------------------------------
      1          6           0       -3.750165    2.437936   -0.725079
      2          6           0       -2.547665    1.759371   -0.501331
      3          6           0       -2.549584    0.399786   -0.175639
      4          6           0       -3.777685   -0.253073   -0.081648
      5          6           0       -4.992478    0.395322   -0.298792
      6          6           0       -4.966589    1.754950   -0.623275
      7          1           0       -3.739364    3.494111   -0.977615
      8          1           0       -1.601481    2.287232   -0.579705
      9          1           0       -1.633395   -0.149957    0.002681
     10          1           0       -5.919945   -0.157790   -0.213415
     11          1           0       -5.902012    2.279373   -0.796506
     12          7           0       -3.792404   -1.692427    0.262508
     13          8           0       -4.887648   -2.244874    0.339194
     14          8           0       -2.708419   -2.240891    0.449054
     15          6           0        1.635048    0.500745    1.383478
     16          6           0        1.665862   -0.501560    0.408309
     17          6           0        2.846143   -0.778833   -0.287828
     18          6           0        3.982166   -0.031028    0.017997
     19          6           0        3.983226    0.973919    0.984107
     20          6           0        2.791788    1.233994    1.667764
     21          1           0        0.713844    0.709458    1.919406
     22          1           0        0.769045   -1.072606    0.185440
     23          1           0        2.898023   -1.549203   -1.047601
     24          1           0        4.893266    1.526353    1.184265
     25          1           0        2.770795    2.012983    2.424586
     26          7           0        5.237582   -0.315460   -0.712366
     27          8           0        6.224873    0.357550   -0.424354
     28          8           0        5.210515   -1.206025   -1.559007
 ---------------------------------------------------------------------

 SCF Done:  E(RHF) =  -868.337809658     A.U. after   16 cycles
 E2 =    -0.2599810342D+01 EUMP2 =    -0.87093761999939D+03

 The electronic state is 1-A.
 Alpha  occ. eigenvalues --  -20.61585 -20.61550 -20.60915 -20.60908 -15.86620
 Alpha  occ. eigenvalues --  -15.85969 -11.31985 -11.31411 -11.28638 -11.28479
 Alpha  occ. eigenvalues --  -11.28217 -11.27991 -11.27961 -11.27785 -11.27561
 Alpha  occ. eigenvalues --  -11.27486 -11.27040 -11.27008  -1.60636  -1.59988
 Alpha  occ. eigenvalues --   -1.40196  -1.39539  -1.20137  -1.19596  -1.09518
 Alpha  occ. eigenvalues --   -1.08991  -1.05546  -1.04998  -0.96366  -0.95807
 Alpha  occ. eigenvalues --   -0.86942  -0.86403  -0.83202  -0.82625  -0.78275
 Alpha  occ. eigenvalues --   -0.77648  -0.72839  -0.72186  -0.71955  -0.71312
 Alpha  occ. eigenvalues --   -0.71255  -0.70713  -0.65787  -0.65576  -0.65247
 Alpha  occ. eigenvalues --   -0.64988  -0.62927  -0.62293  -0.56010  -0.55535
 Alpha  occ. eigenvalues --   -0.53858  -0.53658  -0.53336  -0.53054  -0.49610
 Alpha  occ. eigenvalues --   -0.49576  -0.48952  -0.48935  -0.45600  -0.44927
 Alpha  occ. eigenvalues --   -0.38086  -0.37614  -0.37147  -0.36600
 Alpha virt. eigenvalues --    0.04271   0.04867   0.10503   0.10955   0.15778
 Alpha virt. eigenvalues --    0.16323   0.18707   0.21878   0.24864   0.26870
 Alpha virt. eigenvalues --    0.27774   0.29315   0.29758   0.30983   0.31583

 Mulliken charges:
               1
     1  C   -0.170130
     2  C   -0.221672
     3  C   -0.176543
     4  C    0.159383
     5  C   -0.169428
     6  C   -0.218107
     7  H    0.228424
     8  H    0.225375
     9  H    0.271658
    10  H    0.277911
    11  H    0.226448
    12  N    0.488006
    13  O   -0.455590
    14  O   -0.466630
    15  C   -0.176097
    16  C   -0.229107
    17  C   -0.170160
    18  C    0.158938
    19  C   -0.171024
    20  C   -0.218680
    21  H    0.224545
    22  H    0.234853
    23  H    0.278944
    24  H    0.276231
    25  H    0.223464
    26  N    0.487852
    27  O   -0.460178
    28  O   -0.458687
 Sum of Mulliken charges =  -0.00000

 Dipole moment (field-independent basis, Debye):
    X=             -4.5178    Y=              6.0958    Z=              1.2932  Tot=              7.6969
 Quadrupole moment (field-independent basis, Debye-Ang):
   XX=           -133.1833   YY=           -105.5995   ZZ=           -104.5513
   XY=            -13.6476   XZ=             16.6489   YZ=              1.9155

 Normal termination of Gaussian 16 at Fri May  7 05:07:32 2021.
