 Gaussian 16, Revision A.03,
 Gaussian 16:  EM64L-G16RevA.03 25-Dec-2016

 -------------
 #p 6-31g* mp2
 -------------

 ------------------------------------------------------
 Input file generated by CHIRIPA (05-May-2021 14:55:21)
 ------------------------------------------------------
 Symbolic Z-matrix:
 Charge =  0 Multiplicity = 1

                         Standard orientation:
 ---------------------------------------------------------------------
 Center     Atomic      Atomic             Coordinates (Angstroms)
 Number     Number       Type             X           Y           Z
 ---------------------------------------------------------------------
      1          6           0       -1.500405   -0.117958   -1.155835
      2          6           0       -2.208502   -1.290284   -0.871634
      3          6           0       -3.500297   -1.228438   -0.340606
      4          6           0       -4.055989    0.028168   -0.105156
      5          6           0       -3.375912    1.214114   -0.377769
      6          6           0       -2.085338    1.128302   -0.908432
      7          1           0       -0.497382   -0.175310   -1.568209
      8          1           0       -1.756741   -2.259527   -1.062749
      9          1           0       -4.070911   -2.120194   -0.111283
     10          1           0       -3.852653    2.165757   -0.176493
     11          1           0       -1.537771    2.040404   -1.128171
     12          7           0       -5.422908    0.106328    0.456826
     13          8           0       -5.890182    1.225681    0.655170
     14          8           0       -6.001142   -0.953244    0.688322
     15          6           0        4.188093   -0.048673   -0.013420
     16          6           0        3.133626   -0.149680    1.089250
     17          6           0        1.707772   -0.207024    0.540211
     18          1           0        3.990866    0.845996   -0.619732
     19          1           0        4.087962   -0.911038   -0.686988
     20          1           0        3.236615    0.711898    1.761331
     21          1           0        3.333499   -1.044109    1.693125
     22          1           0        1.581603   -1.075577   -0.114234
     23          1           0        1.484168    0.690407   -0.045640
     24          1           0        0.970079   -0.279003    1.345498
     25          6           0        5.618509    0.009539    0.519731
     26          6           0        6.672977    0.110546   -0.582939
     27          6           0        8.098831    0.167890   -0.033899
     28          1           0        5.718640    0.871905    1.193300
     29          1           0        5.815736   -0.885130    1.126042
     30          1           0        6.473102    1.004975   -1.186813
     31          1           0        6.569987   -0.751032   -1.255019
     32          1           0        8.322435   -0.729540    0.551951
     33          1           0        8.224999    1.036444    0.620544
     34          1           0        8.836522    0.239869   -0.839187
 ---------------------------------------------------------------------

 SCF Done:  E(RHF) =  -669.535336981     A.U. after   15 cycles
 E2 =    -0.2091337349D+01 EUMP2 =    -0.67162667432947D+03

 The electronic state is 1-A.
 Alpha  occ. eigenvalues --  -20.60704 -20.60699 -15.85759 -11.31100 -11.27684
 Alpha  occ. eigenvalues --  -11.27681 -11.27363 -11.26676 -11.26665 -11.22366
 Alpha  occ. eigenvalues --  -11.22119 -11.22102 -11.22092 -11.21932 -11.21480
 Alpha  occ. eigenvalues --   -1.59781  -1.39335  -1.19278  -1.09084  -1.08668
 Alpha  occ. eigenvalues --   -1.04682  -1.04202  -0.96681  -0.95502  -0.87701
 Alpha  occ. eigenvalues --   -0.86077  -0.82346  -0.80280  -0.78879  -0.77398
 Alpha  occ. eigenvalues --   -0.71977  -0.71105  -0.70371  -0.65712  -0.64927
 Alpha  occ. eigenvalues --   -0.64688  -0.62036  -0.61598  -0.60029  -0.58284
 Alpha  occ. eigenvalues --   -0.55977  -0.55223  -0.53427  -0.53091  -0.52865
 Alpha  occ. eigenvalues --   -0.52773  -0.50631  -0.48740  -0.48733  -0.48571
 Alpha  occ. eigenvalues --   -0.47302  -0.46424  -0.46332  -0.44747  -0.44436
 Alpha  occ. eigenvalues --   -0.37206  -0.36294
 Alpha virt. eigenvalues --    0.05129   0.11341   0.16592   0.20561   0.22358
 Alpha virt. eigenvalues --    0.23835   0.25703   0.26209   0.27066   0.27115
 Alpha virt. eigenvalues --    0.29347   0.30282   0.30923   0.31324   0.32058

 Mulliken charges:
               1
     1  C   -0.165812
     2  C   -0.220765
     3  C   -0.170992
     4  C    0.157993
     5  C   -0.170984
     6  C   -0.220587
     7  H    0.229280
     8  H    0.222769
     9  H    0.275205
    10  H    0.275192
    11  H    0.222582
    12  N    0.488142
    13  O   -0.460790
    14  O   -0.460784
    15  C   -0.298652
    16  C   -0.301003
    17  C   -0.476520
    18  H    0.148204
    19  H    0.148343
    20  H    0.155024
    21  H    0.154882
    22  H    0.148247
    23  H    0.148198
    24  H    0.168528
    25  C   -0.298689
    26  C   -0.299967
    27  C   -0.476040
    28  H    0.150907
    29  H    0.151022
    30  H    0.151845
    31  H    0.151880
    32  H    0.155976
    33  H    0.155994
    34  H    0.161371
 Sum of Mulliken charges =  -0.00000

 Dipole moment (field-independent basis, Debye):
    X=              5.0056    Y=             -0.2805    Z=             -1.9063  Tot=              5.3636
 Quadrupole moment (field-independent basis, Debye-Ang):
   XX=           -135.3414   YY=            -88.7739   ZZ=            -95.1747
   XY=              1.4502   XZ=              7.4941   YZ=             -0.0970

 Normal termination of Gaussian 16 at Thu May  6 06:13:13 2021.
