 Gaussian 16, Revision A.03,
 Gaussian 16:  EM64L-G16RevA.03 25-Dec-2016

 -------------
 #p 6-31g* mp2
 -------------

 ------------------------------------------------------
 Input file generated by CHIRIPA (05-May-2021 14:55:19)
 ------------------------------------------------------
 Symbolic Z-matrix:
 Charge =  0 Multiplicity = 1

                         Standard orientation:
 ---------------------------------------------------------------------
 Center     Atomic      Atomic             Coordinates (Angstroms)
 Number     Number       Type             X           Y           Z
 ---------------------------------------------------------------------
      1          6           0        1.182006   -1.687716    1.435121
      2          6           0        0.803529   -0.427564    0.960470
      3          6           0        1.692326    0.342849    0.204790
      4          6           0        2.957394   -0.180107   -0.058667
      5          6           0        3.363963   -1.432076    0.400207
      6          6           0        2.458764   -2.185073    1.153970
      7          1           0        0.485197   -2.279427    2.021406
      8          1           0       -0.187371   -0.038773    1.177275
      9          1           0        1.425336    1.321550   -0.175050
     10          1           0        4.358560   -1.792913    0.167848
     11          1           0        2.755421   -3.163396    1.521292
     12          7           0        3.907005    0.626276   -0.857656
     13          8           0        5.015775    0.142986   -1.076053
     14          8           0        3.524560    1.726341   -1.250379
     15          6           0       -4.210587    0.037097   -0.338554
     16          6           0       -3.962522   -1.432069   -0.682059
     17          6           0       -5.223199   -2.145885   -1.170890
     18          1           0       -4.991403    0.100180    0.431701
     19          1           0       -4.604234    0.552420   -1.225616
     20          1           0       -3.568156   -1.944154    0.204993
     21          1           0       -3.182070   -1.491671   -1.451448
     22          1           0       -5.616188   -1.661016   -2.070370
     23          1           0       -6.004469   -2.116070   -0.404516
     24          1           0       -5.023152   -3.194830   -1.410798
     25          6           0       -2.959683    0.764204    0.151631
     26          6           0       -3.207749    2.233372    0.495136
     27          6           0       -1.947072    2.947187    0.983968
     28          1           0       -2.566036    0.248882    1.038693
     29          1           0       -2.178867    0.701121   -0.618624
     30          1           0       -3.988200    2.292974    1.264526
     31          1           0       -3.602113    2.745456   -0.391916
     32          1           0       -1.165802    2.917371    0.217594
     33          1           0       -1.554081    2.462318    1.883447
     34          1           0       -2.147118    3.996131    1.223877
 ---------------------------------------------------------------------

 SCF Done:  E(RHF) =  -669.535430875     A.U. after   15 cycles
 E2 =    -0.2092129939D+01 EUMP2 =    -0.67162756081331D+03

 The electronic state is 1-A.
 Alpha  occ. eigenvalues --  -20.60690 -20.60684 -15.85740 -11.31079 -11.27645
 Alpha  occ. eigenvalues --  -11.27617 -11.27367 -11.26666 -11.26551 -11.22454
 Alpha  occ. eigenvalues --  -11.22395 -11.22307 -11.22141 -11.21970 -11.21629
 Alpha  occ. eigenvalues --   -1.59765  -1.39319  -1.19240  -1.09281  -1.08642
 Alpha  occ. eigenvalues --   -1.04637  -1.04302  -0.96767  -0.95485  -0.87780
 Alpha  occ. eigenvalues --   -0.86039  -0.82322  -0.80376  -0.79146  -0.77347
 Alpha  occ. eigenvalues --   -0.71960  -0.71087  -0.70358  -0.65912  -0.64889
 Alpha  occ. eigenvalues --   -0.64636  -0.62007  -0.61685  -0.60118  -0.58385
 Alpha  occ. eigenvalues --   -0.56060  -0.55147  -0.53421  -0.53260  -0.52962
 Alpha  occ. eigenvalues --   -0.52688  -0.50705  -0.48759  -0.48717  -0.48634
 Alpha  occ. eigenvalues --   -0.47402  -0.46595  -0.46559  -0.44731  -0.44577
 Alpha  occ. eigenvalues --   -0.37225  -0.36231
 Alpha virt. eigenvalues --    0.05151   0.11397   0.16619   0.19493   0.22542
 Alpha virt. eigenvalues --    0.23429   0.24433   0.25737   0.26843   0.28421
 Alpha virt. eigenvalues --    0.29056   0.30130   0.31045   0.31401   0.31791

 Mulliken charges:
               1
     1  C   -0.173417
     2  C   -0.225473
     3  C   -0.176500
     4  C    0.159237
     5  C   -0.171464
     6  C   -0.218397
     7  H    0.224898
     8  H    0.237398
     9  H    0.276444
    10  H    0.275072
    11  H    0.222793
    12  N    0.488028
    13  O   -0.460844
    14  O   -0.460783
    15  C   -0.297666
    16  C   -0.300148
    17  C   -0.476204
    18  H    0.151560
    19  H    0.153805
    20  H    0.147272
    21  H    0.154554
    22  H    0.157601
    23  H    0.155924
    24  H    0.161672
    25  C   -0.304651
    26  C   -0.299496
    27  C   -0.480809
    28  H    0.141122
    29  H    0.151927
    30  H    0.154739
    31  H    0.157207
    32  H    0.155006
    33  H    0.151706
    34  H    0.167885
 Sum of Mulliken charges =  -0.00000

 Dipole moment (field-independent basis, Debye):
    X=             -3.6221    Y=             -2.7467    Z=              2.7390  Tot=              5.3072
 Quadrupole moment (field-independent basis, Debye-Ang):
   XX=           -112.4549   YY=            -91.3225   ZZ=            -95.0645
   XY=            -11.4705   XZ=              8.6126   YZ=             -1.1341

 Normal termination of Gaussian 16 at Wed May  5 20:31:39 2021.
