 Gaussian 16, Revision A.03,
 Gaussian 16:  EM64L-G16RevA.03 25-Dec-2016

 -------------
 #p 6-31g* mp2
 -------------

 ------------------------------------------------------
 Input file generated by CHIRIPA (05-May-2021 14:53:14)
 ------------------------------------------------------
 Symbolic Z-matrix:
 Charge =  0 Multiplicity = 1

                         Standard orientation:
 ---------------------------------------------------------------------
 Center     Atomic      Atomic             Coordinates (Angstroms)
 Number     Number       Type             X           Y           Z
 ---------------------------------------------------------------------
      1          6           0        4.647260   -0.542784   -0.034685
      2          6           0        6.115207   -0.862558    0.249680
      3          6           0        6.424102   -2.356912    0.153333
      4          1           0        4.014402   -1.095837    0.672823
      5          1           0        4.387369   -0.907931   -1.037939
      6          1           0        6.372625   -0.495684    1.251556
      7          1           0        6.744653   -0.308531   -0.458464
      8          1           0        6.194891   -2.733853   -0.848655
      9          1           0        5.820750   -2.922070    0.871082
     10          1           0        7.478889   -2.562989    0.360256
     11          6           0        4.322880    0.947165    0.057812
     12          6           0        2.854934    1.266939   -0.226554
     13          6           0        2.546039    2.761293   -0.130206
     14          1           0        4.582772    1.312312    1.061066
     15          1           0        4.955739    1.500218   -0.649697
     16          1           0        2.225488    0.712912    0.481590
     17          1           0        2.597516    0.900065   -1.228430
     18          1           0        3.149391    3.326451   -0.847955
     19          1           0        2.775250    3.138234    0.871781
     20          1           0        1.491252    2.967370   -0.337129
     21          6           0       -1.096106    0.580068   -0.162226
     22          6           0       -1.429761   -0.764517   -0.355328
     23          6           0       -2.760605   -1.184742   -0.272781
     24          6           0       -3.736743   -0.229311    0.005777
     25          6           0       -3.435986    1.117499    0.203095
     26          6           0       -2.098516    1.515137    0.115879
     27          1           0       -0.059701    0.897735   -0.228164
     28          1           0       -0.653365   -1.492904   -0.571444
     29          1           0       -3.046856   -2.219348   -0.417927
     30          1           0       -4.231949    1.820399    0.417093
     31          1           0       -1.842324    2.560021    0.266300
     32          7           0       -5.149156   -0.662228    0.095636
     33          8           0       -5.990552    0.199090    0.342259
     34          8           0       -5.388065   -1.854668   -0.082256
 ---------------------------------------------------------------------

 SCF Done:  E(RHF) =  -669.535328889     A.U. after   15 cycles
 E2 =    -0.2091607738D+01 EUMP2 =    -0.67162693662707D+03

 The electronic state is 1-A.
 Alpha  occ. eigenvalues --  -20.60699 -20.60694 -15.85753 -11.31098 -11.27672
 Alpha  occ. eigenvalues --  -11.27668 -11.27320 -11.26669 -11.26656 -11.22989
 Alpha  occ. eigenvalues --  -11.22418 -11.22413 -11.22301 -11.22232 -11.21653
 Alpha  occ. eigenvalues --   -1.59776  -1.39330  -1.19267  -1.09431  -1.08657
 Alpha  occ. eigenvalues --   -1.04671  -1.04540  -0.96960  -0.95497  -0.87968
 Alpha  occ. eigenvalues --   -0.86065  -0.82345  -0.80652  -0.79205  -0.77391
 Alpha  occ. eigenvalues --   -0.71970  -0.71099  -0.70391  -0.66045  -0.64915
 Alpha  occ. eigenvalues --   -0.64684  -0.62024  -0.61913  -0.60419  -0.58612
 Alpha  occ. eigenvalues --   -0.56208  -0.55071  -0.53668  -0.53371  -0.52999
 Alpha  occ. eigenvalues --   -0.52759  -0.50876  -0.48943  -0.48727  -0.48722
 Alpha  occ. eigenvalues --   -0.47658  -0.46736  -0.46624  -0.44776  -0.44740
 Alpha  occ. eigenvalues --   -0.37233  -0.36283
 Alpha virt. eigenvalues --    0.05137   0.11368   0.16601   0.19497   0.22258
 Alpha virt. eigenvalues --    0.23909   0.25513   0.25806   0.26073   0.27540
 Alpha virt. eigenvalues --    0.29108   0.30294   0.30540   0.31164   0.32203

 Mulliken charges:
               1
     1  C   -0.299540
     2  C   -0.300448
     3  C   -0.476326
     4  H    0.149212
     5  H    0.149590
     6  H    0.153548
     7  H    0.153533
     8  H    0.155690
     9  H    0.155711
    10  H    0.162755
    11  C   -0.297070
    12  C   -0.309836
    13  C   -0.477822
    14  H    0.152992
    15  H    0.153419
    16  H    0.147170
    17  H    0.152568
    18  H    0.162668
    19  H    0.160951
    20  H    0.151867
    21  C   -0.181877
    22  C   -0.223197
    23  C   -0.170593
    24  C    0.157946
    25  C   -0.170580
    26  C   -0.222707
    27  H    0.246702
    28  H    0.223617
    29  H    0.275206
    30  H    0.275214
    31  H    0.223090
    32  N    0.487979
    33  O   -0.460710
    34  O   -0.460723
 Sum of Mulliken charges =  -0.00000

 Dipole moment (field-independent basis, Debye):
    X=              5.3281    Y=              1.5552    Z=             -0.3068  Tot=              5.5589
 Quadrupole moment (field-independent basis, Debye-Ang):
   XX=           -131.0466   YY=            -91.9317   ZZ=            -94.4317
   XY=             -7.7745   XZ=              0.7292   YZ=              1.0172

 Normal termination of Gaussian 16 at Thu May  6 04:14:30 2021.
