 Gaussian 16, Revision A.03,
 Gaussian 16:  EM64L-G16RevA.03 25-Dec-2016

 -------------
 #p 6-31g* mp2
 -------------

 ------------------------------------------------------
 Input file generated by CHIRIPA (05-May-2021 14:51:12)
 ------------------------------------------------------
 Symbolic Z-matrix:
 Charge =  0 Multiplicity = 1

                         Standard orientation:
 ---------------------------------------------------------------------
 Center     Atomic      Atomic             Coordinates (Angstroms)
 Number     Number       Type             X           Y           Z
 ---------------------------------------------------------------------
      1          6           0        3.486745   -0.170842   -0.095337
      2          6           0        3.595869    1.245677   -0.660624
      3          6           0        4.922522    1.495035   -1.378682
      4          1           0        4.319817   -0.346935    0.598874
      5          1           0        3.603505   -0.894727   -0.913721
      6          1           0        3.477558    1.966695    0.158370
      7          1           0        2.762333    1.418485   -1.353424
      8          1           0        5.045100    0.798499   -2.214393
      9          1           0        5.764388    1.349824   -0.694009
     10          1           0        4.979286    2.513678   -1.774919
     11          6           0        2.166047   -0.435407    0.625419
     12          6           0        2.056923   -1.851927    1.190706
     13          6           0        0.730270   -2.101285    1.908764
     14          1           0        2.049287    0.288477    1.443803
     15          1           0        1.332975   -0.259314   -0.068792
     16          1           0        2.890459   -2.024735    1.883506
     17          1           0        2.175234   -2.572945    0.371712
     18          1           0       -0.111596   -1.956073    1.224091
     19          1           0        0.607692   -1.404748    2.744475
     20          1           0        0.673506   -3.119928    2.305001
     21          6           0       -2.563379    0.824950    0.226845
     22          6           0       -3.233508    2.191176    0.077383
     23          6           0       -2.696710    3.224481    1.068303
     24          1           0       -2.710514    0.461791    1.253204
     25          1           0       -1.479342    0.938883    0.087990
     26          1           0       -4.316110    2.074474    0.215109
     27          1           0       -3.084925    2.551039   -0.948793
     28          1           0       -1.620779    3.370254    0.927864
     29          1           0       -2.858960    2.890981    2.098378
     30          1           0       -3.189483    4.193794    0.943932
     31          6           0       -3.089413   -0.218701   -0.756927
     32          6           0       -2.419284   -1.584927   -0.607465
     33          6           0       -2.956082   -2.618232   -1.598385
     34          1           0       -4.173449   -0.332633   -0.618071
     35          1           0       -2.942278    0.144459   -1.783285
     36          1           0       -2.567867   -1.944789    0.418712
     37          1           0       -1.336682   -1.468225   -0.745191
     38          1           0       -2.793833   -2.284733   -2.628460
     39          1           0       -4.032013   -2.764005   -1.457945
     40          1           0       -2.463309   -3.587544   -1.474014
 ---------------------------------------------------------------------

 SCF Done:  E(RHF) =  -470.732828466     A.U. after   11 cycles
 E2 =    -0.1583744875D+01 EUMP2 =    -0.47231657334038D+03

 The electronic state is 1-A.
 Alpha  occ. eigenvalues --  -11.21667 -11.21621 -11.21605 -11.21550 -11.21431
 Alpha  occ. eigenvalues --  -11.21411 -11.21361 -11.21351 -11.21123 -11.21085
 Alpha  occ. eigenvalues --  -11.21063 -11.20876  -1.08475  -1.08412  -1.03579
 Alpha  occ. eigenvalues --   -1.03485  -0.96007  -0.95941  -0.87040  -0.86946
 Alpha  occ. eigenvalues --   -0.79721  -0.79505  -0.78372  -0.78141  -0.65156
 Alpha  occ. eigenvalues --   -0.64995  -0.61007  -0.60873  -0.59401  -0.59297
 Alpha  occ. eigenvalues --   -0.57650  -0.57530  -0.55300  -0.55226  -0.52718
 Alpha  occ. eigenvalues --   -0.52632  -0.52476  -0.52318  -0.49963  -0.49912
 Alpha  occ. eigenvalues --   -0.48130  -0.47733  -0.46731  -0.46596  -0.46095
 Alpha  occ. eigenvalues --   -0.45751  -0.45714  -0.45250  -0.43809  -0.43760
 Alpha virt. eigenvalues --    0.20520   0.23299   0.23709   0.24446   0.25362
 Alpha virt. eigenvalues --    0.26202   0.27050   0.27850   0.28339   0.29758
 Alpha virt. eigenvalues --    0.30758   0.31044   0.31727   0.31856   0.32025

 Mulliken charges:
               1
     1  C   -0.298188
     2  C   -0.299591
     3  C   -0.475686
     4  H    0.150011
     5  H    0.149438
     6  H    0.152005
     7  H    0.151249
     8  H    0.155191
     9  H    0.155333
    10  H    0.160240
    11  C   -0.301592
    12  C   -0.299019
    13  C   -0.485415
    14  H    0.150003
    15  H    0.150960
    16  H    0.151661
    17  H    0.151126
    18  H    0.167374
    19  H    0.154200
    20  H    0.158880
    21  C   -0.301281
    22  C   -0.299540
    23  C   -0.475778
    24  H    0.150386
    25  H    0.152067
    26  H    0.151938
    27  H    0.151792
    28  H    0.155594
    29  H    0.155221
    30  H    0.160166
    31  C   -0.297541
    32  C   -0.306387
    33  C   -0.475147
    34  H    0.149780
    35  H    0.149375
    36  H    0.154890
    37  H    0.154958
    38  H    0.155110
    39  H    0.155608
    40  H    0.160614
 Sum of Mulliken charges =  -0.00000

 Dipole moment (field-independent basis, Debye):
    X=             -0.0511    Y=              0.0037    Z=             -0.0124  Tot=              0.0527
 Quadrupole moment (field-independent basis, Debye-Ang):
   XX=            -84.9468   YY=            -85.4897   ZZ=            -84.3454
   XY=             -0.1052   XZ=              0.1500   YZ=             -0.2079

 Normal termination of Gaussian 16 at Wed May  5 19:54:45 2021.
