 Gaussian 16, Revision A.03,
 Gaussian 16:  EM64L-G16RevA.03 25-Dec-2016

 -------------
 #p 6-31g* mp2
 -------------

 ------------------------------------------------------
 Input file generated by CHIRIPA (05-May-2021 14:53:12)
 ------------------------------------------------------
 Symbolic Z-matrix:
 Charge =  0 Multiplicity = 1

                         Standard orientation:
 ---------------------------------------------------------------------
 Center     Atomic      Atomic             Coordinates (Angstroms)
 Number     Number       Type             X           Y           Z
 ---------------------------------------------------------------------
      1          6           0        3.497464    0.768855    0.276376
      2          6           0        4.051360    2.036327   -0.375313
      3          6           0        3.230685    3.281532   -0.038044
      4          1           0        2.457486    0.622785   -0.046198
      5          1           0        3.470227    0.907105    1.366120
      6          1           0        4.078839    1.895210   -1.463407
      7          1           0        5.090202    2.179291   -0.051301
      8          1           0        3.213247    3.450110    1.043566
      9          1           0        2.196137    3.164414   -0.376563
     10          1           0        3.644246    4.176021   -0.514190
     11          6           0        4.307189   -0.484387   -0.051434
     12          6           0        3.753294   -1.751859    0.600256
     13          6           0        4.573969   -2.997064    0.262986
     14          1           0        4.334426   -0.622637   -1.141177
     15          1           0        5.347167   -0.338317    0.271140
     16          1           0        2.714451   -1.894824    0.276244
     17          1           0        3.725815   -1.610742    1.688349
     18          1           0        5.608516   -2.879947    0.601506
     19          1           0        4.591407   -3.165643   -0.818623
     20          1           0        4.160408   -3.891554    0.739132
     21          6           0       -0.589392   -0.376270   -0.585321
     22          6           0       -1.453183   -1.467725   -0.723563
     23          6           0       -2.817644   -1.332354   -0.450670
     24          6           0       -3.286449   -0.085487   -0.039776
     25          6           0       -2.451075    1.020771    0.107316
     26          6           0       -1.090211    0.862311   -0.171053
     27          1           0        0.469156   -0.490397   -0.799437
     28          1           0       -1.067030   -2.430811   -1.045119
     29          1           0       -3.508636   -2.160721   -0.549437
     30          1           0       -2.865418    1.968310    0.429662
     31          1           0       -0.421715    1.711690   -0.062826
     32          7           0       -4.729038    0.070047    0.252022
     33          8           0       -5.117229    1.179102    0.612495
     34          8           0       -5.444233   -0.920047    0.114734
 ---------------------------------------------------------------------

 SCF Done:  E(RHF) =  -669.535311007     A.U. after   15 cycles
 E2 =    -0.2091960580D+01 EUMP2 =    -0.67162727158662D+03

 The electronic state is 1-A.
 Alpha  occ. eigenvalues --  -20.60732 -20.60727 -15.85786 -11.31149 -11.27718
 Alpha  occ. eigenvalues --  -11.27714 -11.27440 -11.26735 -11.26721 -11.22630
 Alpha  occ. eigenvalues --  -11.22625 -11.22567 -11.22399 -11.22098 -11.21902
 Alpha  occ. eigenvalues --   -1.59808  -1.39361  -1.19321  -1.09502  -1.08716
 Alpha  occ. eigenvalues --   -1.04724  -1.04525  -0.96975  -0.95554  -0.87985
 Alpha  occ. eigenvalues --   -0.86123  -0.82389  -0.80588  -0.79330  -0.77431
 Alpha  occ. eigenvalues --   -0.72004  -0.71131  -0.70466  -0.66150  -0.64973
 Alpha  occ. eigenvalues --   -0.64718  -0.62098  -0.61901  -0.60332  -0.58587
 Alpha  occ. eigenvalues --   -0.56310  -0.55223  -0.53627  -0.53391  -0.53051
 Alpha  occ. eigenvalues --   -0.52815  -0.50920  -0.48905  -0.48760  -0.48757
 Alpha  occ. eigenvalues --   -0.47637  -0.46851  -0.46759  -0.44797  -0.44767
 Alpha  occ. eigenvalues --   -0.37295  -0.36327
 Alpha virt. eigenvalues --    0.05092   0.11314   0.16518   0.18100   0.21752
 Alpha virt. eigenvalues --    0.23050   0.25002   0.25421   0.26228   0.27753
 Alpha virt. eigenvalues --    0.29491   0.30713   0.30912   0.31220   0.31901

 Mulliken charges:
               1
     1  C   -0.302175
     2  C   -0.300368
     3  C   -0.476948
     4  H    0.139448
     5  H    0.154616
     6  H    0.153309
     7  H    0.156757
     8  H    0.158374
     9  H    0.148256
    10  H    0.165608
    11  C   -0.299551
    12  C   -0.300275
    13  C   -0.476412
    14  H    0.149596
    15  H    0.154657
    16  H    0.143508
    17  H    0.156303
    18  H    0.158549
    19  H    0.155362
    20  H    0.162627
    21  C   -0.176507
    22  C   -0.219280
    23  C   -0.170842
    24  C    0.158458
    25  C   -0.171237
    26  C   -0.223023
    27  H    0.233144
    28  H    0.223299
    29  H    0.275432
    30  H    0.275804
    31  H    0.226489
    32  N    0.488024
    33  O   -0.460459
    34  O   -0.460543
 Sum of Mulliken charges =  -0.00000

 Dipole moment (field-independent basis, Debye):
    X=              5.3782    Y=             -0.5249    Z=             -0.9600  Tot=              5.4884
 Quadrupole moment (field-independent basis, Debye-Ang):
   XX=           -127.2301   YY=            -90.6005   ZZ=            -94.5444
   XY=              2.9181   XZ=              4.1773   YZ=              1.3675

 Normal termination of Gaussian 16 at Thu May  6 12:01:23 2021.
