 Gaussian 16, Revision A.03,
 Gaussian 16:  EM64L-G16RevA.03 25-Dec-2016

 -------------
 #p 6-31g* mp2
 -------------

 ------------------------------------------------------
 Input file generated by CHIRIPA (05-May-2021 14:51:11)
 ------------------------------------------------------
 Symbolic Z-matrix:
 Charge =  0 Multiplicity = 1

                         Standard orientation:
 ---------------------------------------------------------------------
 Center     Atomic      Atomic             Coordinates (Angstroms)
 Number     Number       Type             X           Y           Z
 ---------------------------------------------------------------------
      1          6           0        4.842810   -0.552884    0.269901
      2          6           0        6.073501   -0.069870   -0.498268
      3          6           0        7.355709   -0.784153   -0.069856
      4          1           0        5.006925   -0.401073    1.345524
      5          1           0        4.727822   -1.635473    0.120991
      6          1           0        6.185338    1.011726   -0.349077
      7          1           0        5.906360   -0.222672   -1.572201
      8          1           0        7.269200   -1.863001   -0.234793
      9          1           0        7.549763   -0.621590    0.995281
     10          1           0        8.223026   -0.423538   -0.631618
     11          6           0        3.553198    0.151857   -0.147193
     12          6           0        2.322507   -0.331157    0.620976
     13          6           0        1.040299    0.383126    0.192564
     14          1           0        3.668186    1.234445    0.001717
     15          1           0        3.389083    0.000046   -1.222816
     16          1           0        2.489648   -0.178355    1.694909
     17          1           0        2.210670   -1.412753    0.471785
     18          1           0        0.846245    0.220562   -0.872573
     19          1           0        1.126808    1.461974    0.357501
     20          1           0        0.172982    0.022510    0.754326
     21          6           0       -4.351878   -0.512839   -0.286925
     22          6           0       -5.670638   -1.052904    0.267318
     23          6           0       -5.964564   -2.481077   -0.192813
     24          1           0       -4.381349   -0.547194   -1.384603
     25          1           0       -3.532519   -1.175388    0.024646
     26          1           0       -6.487091   -0.388771   -0.044048
     27          1           0       -5.638097   -1.017081    1.363801
     28          1           0       -5.170145   -3.161300    0.130909
     29          1           0       -6.023961   -2.529420   -1.284938
     30          1           0       -6.911881   -2.847312    0.215013
     31          6           0       -4.044130    0.913867    0.164217
     32          6           0       -2.725370    1.453931   -0.390026
     33          6           0       -2.431444    2.882105    0.070105
     34          1           0       -4.863489    1.576415   -0.147354
     35          1           0       -4.014658    0.948221    1.261894
     36          1           0       -2.757910    1.418108   -1.486508
     37          1           0       -1.908918    0.789798   -0.078661
     38          1           0       -2.372046    2.930447    1.162230
     39          1           0       -3.225863    3.562327   -0.253618
     40          1           0       -1.484126    3.248340   -0.337721
 ---------------------------------------------------------------------

 SCF Done:  E(RHF) =  -470.732971367     A.U. after   11 cycles
 E2 =    -0.1582710486D+01 EUMP2 =    -0.47231568185262D+03

 The electronic state is 1-A.
 Alpha  occ. eigenvalues --  -11.21628 -11.21614 -11.21568 -11.21427 -11.21425
 Alpha  occ. eigenvalues --  -11.21366 -11.21345 -11.21275 -11.21110 -11.21081
 Alpha  occ. eigenvalues --  -11.21048 -11.20973  -1.08453  -1.08359  -1.03567
 Alpha  occ. eigenvalues --   -1.03444  -0.96023  -0.95899  -0.87036  -0.86925
 Alpha  occ. eigenvalues --   -0.79681  -0.79467  -0.78273  -0.78158  -0.65081
 Alpha  occ. eigenvalues --   -0.65003  -0.60949  -0.60894  -0.59429  -0.59223
 Alpha  occ. eigenvalues --   -0.57621  -0.57519  -0.55297  -0.55204  -0.52756
 Alpha  occ. eigenvalues --   -0.52596  -0.52437  -0.52315  -0.49962  -0.49836
 Alpha  occ. eigenvalues --   -0.47942  -0.47824  -0.46659  -0.46540  -0.45823
 Alpha  occ. eigenvalues --   -0.45736  -0.45700  -0.45640  -0.43766  -0.43671
 Alpha virt. eigenvalues --    0.21909   0.22998   0.23660   0.24806   0.26220
 Alpha virt. eigenvalues --    0.26590   0.26957   0.27301   0.27849   0.28995
 Alpha virt. eigenvalues --    0.30457   0.31075   0.31383   0.31784   0.32365

 Mulliken charges:
               1
     1  C   -0.298304
     2  C   -0.299635
     3  C   -0.475713
     4  H    0.149673
     5  H    0.149555
     6  H    0.151965
     7  H    0.151979
     8  H    0.155198
     9  H    0.155192
    10  H    0.160309
    11  C   -0.298731
    12  C   -0.300081
    13  C   -0.477295
    14  H    0.149571
    15  H    0.149759
    16  H    0.151921
    17  H    0.151957
    18  H    0.156356
    19  H    0.156514
    20  H    0.160649
    21  C   -0.298051
    22  C   -0.299550
    23  C   -0.475657
    24  H    0.149571
    25  H    0.148840
    26  H    0.151929
    27  H    0.151781
    28  H    0.155030
    29  H    0.155110
    30  H    0.160129
    31  C   -0.297798
    32  C   -0.307901
    33  C   -0.475421
    34  H    0.149050
    35  H    0.148907
    36  H    0.150857
    37  H    0.162875
    38  H    0.154348
    39  H    0.154443
    40  H    0.160669
 Sum of Mulliken charges =  -0.00000

 Dipole moment (field-independent basis, Debye):
    X=              0.0530    Y=             -0.0068    Z=             -0.0033  Tot=              0.0535
 Quadrupole moment (field-independent basis, Debye-Ang):
   XX=            -85.8907   YY=            -85.4556   ZZ=            -83.7062
   XY=              0.0623   XZ=              0.2393   YZ=              0.0549

 Normal termination of Gaussian 16 at Wed May  5 23:04:39 2021.
