 Gaussian 16, Revision A.03,
 Gaussian 16:  EM64L-G16RevA.03 25-Dec-2016

 -------------
 #p 6-31g* mp2
 -------------

 ------------------------------------------------------
 Input file generated by CHIRIPA (05-May-2021 14:53:16)
 ------------------------------------------------------
 Symbolic Z-matrix:
 Charge =  0 Multiplicity = 1

                         Standard orientation:
 ---------------------------------------------------------------------
 Center     Atomic      Atomic             Coordinates (Angstroms)
 Number     Number       Type             X           Y           Z
 ---------------------------------------------------------------------
      1          6           0        3.376386    1.111823   -0.054515
      2          6           0        2.037420    1.722798    0.360048
      3          6           0        2.133597    3.222779    0.640404
      4          1           0        4.115321    1.291456    0.738361
      5          1           0        3.746456    1.630152   -0.949936
      6          1           0        1.669316    1.202549    1.253611
      7          1           0        1.301537    1.541522   -0.433823
      8          1           0        2.477132    3.759794   -0.249652
      9          1           0        2.847001    3.418895    1.447370
     10          1           0        1.165213    3.639022    0.935080
     11          6           0        3.296393   -0.387129   -0.338192
     12          6           0        4.635359   -0.998105   -0.752755
     13          6           0        4.539182   -2.498086   -1.033111
     14          1           0        2.926323   -0.905459    0.557229
     15          1           0        2.557458   -0.566763   -1.131068
     16          1           0        5.371242   -0.816829    0.041116
     17          1           0        5.003464   -0.477855   -1.646318
     18          1           0        3.825778   -2.694201   -1.840077
     19          1           0        4.195647   -3.035101   -0.143055
     20          1           0        5.507566   -2.914329   -1.327787
     21          6           0       -1.263393   -1.301704    2.030701
     22          6           0       -1.119058    0.055097    1.722835
     23          6           0       -1.858161    0.630143    0.684762
     24          6           0       -2.736406   -0.184607   -0.028089
     25          6           0       -2.902367   -1.539537    0.254600
     26          6           0       -2.153018   -2.093294    1.296894
     27          1           0       -0.685260   -1.740144    2.838741
     28          1           0       -0.428913    0.672268    2.291030
     29          1           0       -1.765972    1.677784    0.425208
     30          1           0       -3.598241   -2.129357   -0.329599
     31          1           0       -2.267159   -3.147291    1.533762
     32          7           0       -3.524285    0.412901   -1.129285
     33          8           0       -4.291347   -0.326345   -1.742285
     34          8           0       -3.359843    1.609159   -1.358551
 ---------------------------------------------------------------------

 SCF Done:  E(RHF) =  -669.535008107     A.U. after   15 cycles
 E2 =    -0.2092155315D+01 EUMP2 =    -0.67162716342124D+03

 The electronic state is 1-A.
 Alpha  occ. eigenvalues --  -20.60756 -20.60751 -15.85809 -11.31166 -11.27723
 Alpha  occ. eigenvalues --  -11.27715 -11.27464 -11.26750 -11.26714 -11.22214
 Alpha  occ. eigenvalues --  -11.21955 -11.21865 -11.21783 -11.21642 -11.21402
 Alpha  occ. eigenvalues --   -1.59832  -1.39385  -1.19333  -1.08901  -1.08730
 Alpha  occ. eigenvalues --   -1.04737  -1.04003  -0.96439  -0.95568  -0.87451
 Alpha  occ. eigenvalues --   -0.86137  -0.82408  -0.80086  -0.78716  -0.77434
 Alpha  occ. eigenvalues --   -0.72027  -0.71155  -0.70443  -0.65562  -0.64985
 Alpha  occ. eigenvalues --   -0.64734  -0.62123  -0.61380  -0.59810  -0.58056
 Alpha  occ. eigenvalues --   -0.55714  -0.55238  -0.53180  -0.53047  -0.52901
 Alpha  occ. eigenvalues --   -0.52793  -0.50364  -0.48792  -0.48783  -0.48373
 Alpha  occ. eigenvalues --   -0.47098  -0.46239  -0.46158  -0.44792  -0.44251
 Alpha  occ. eigenvalues --   -0.37310  -0.36289
 Alpha virt. eigenvalues --    0.05067   0.11232   0.16514   0.20093   0.22690
 Alpha virt. eigenvalues --    0.23755   0.25628   0.26162   0.27065   0.28325
 Alpha virt. eigenvalues --    0.29026   0.29704   0.31224   0.31385   0.32018

 Mulliken charges:
               1
     1  C   -0.298511
     2  C   -0.303237
     3  C   -0.476242
     4  H    0.149369
     5  H    0.152966
     6  H    0.142379
     7  H    0.157358
     8  H    0.160898
     9  H    0.155731
    10  H    0.156478
    11  C   -0.297695
    12  C   -0.300109
    13  C   -0.475720
    14  H    0.144946
    15  H    0.153096
    16  H    0.151593
    17  H    0.153950
    18  H    0.156778
    19  H    0.152985
    20  H    0.161526
    21  C   -0.172240
    22  C   -0.214966
    23  C   -0.171560
    24  C    0.157996
    25  C   -0.171244
    26  C   -0.218213
    27  H    0.225083
    28  H    0.225199
    29  H    0.275748
    30  H    0.275409
    31  H    0.223295
    32  N    0.488074
    33  O   -0.460495
    34  O   -0.460623
 Sum of Mulliken charges =  -0.00000

 Dipole moment (field-independent basis, Debye):
    X=              2.8719    Y=             -2.0958    Z=              3.7829  Tot=              5.1913
 Quadrupole moment (field-independent basis, Debye-Ang):
   XX=           -109.5098   YY=            -91.2229   ZZ=            -94.6455
   XY=              7.6600   XZ=            -10.3539   YZ=             -0.3717

 Normal termination of Gaussian 16 at Wed May  5 15:42:16 2021.
