 Gaussian 16, Revision A.03,
 Gaussian 16:  EM64L-G16RevA.03 25-Dec-2016

 -------------
 #p 6-31g* mp2
 -------------

 ------------------------------------------------------
 Input file generated by CHIRIPA (05-May-2021 14:51:10)
 ------------------------------------------------------
 Symbolic Z-matrix:
 Charge =  0 Multiplicity = 1

                         Standard orientation:
 ---------------------------------------------------------------------
 Center     Atomic      Atomic             Coordinates (Angstroms)
 Number     Number       Type             X           Y           Z
 ---------------------------------------------------------------------
      1          6           0        3.562264   -0.062722   -0.252882
      2          6           0        5.002675   -0.563595   -0.363910
      3          6           0        5.785607    0.130464   -1.478851
      4          1           0        3.051643   -0.218318   -1.213092
      5          1           0        3.571140    1.021677   -0.075701
      6          1           0        4.991111   -1.646954   -0.539450
      7          1           0        5.509869   -0.406964    0.596734
      8          1           0        5.826861    1.210707   -1.305720
      9          1           0        5.305156   -0.036329   -2.448360
     10          1           0        6.812642   -0.242710   -1.540505
     11          6           0        2.766752   -0.747141    0.857280
     12          6           0        1.326341   -0.246268    0.968308
     13          6           0        0.543409   -0.940327    2.083249
     14          1           0        2.757877   -1.831540    0.680099
     15          1           0        3.277373   -0.591545    1.817490
     16          1           0        0.819147   -0.402899    0.007664
     17          1           0        1.337905    0.837091    1.143848
     18          1           0        1.023861   -0.773534    3.052758
     19          1           0        0.502155   -2.020570    1.910118
     20          1           0       -0.483626   -0.567153    2.144903
     21          6           0       -3.215668   -0.292718   -0.608956
     22          6           0       -4.510142   -1.021203   -0.246147
     23          6           0       -4.597800   -2.415582   -0.867289
     24          1           0       -3.140711   -0.214063   -1.702180
     25          1           0       -2.358687   -0.896418   -0.279523
     26          1           0       -5.364445   -0.415658   -0.574929
     27          1           0       -4.582119   -1.097964    0.846347
     28          1           0       -3.764610   -3.040613   -0.530049
     29          1           0       -4.551380   -2.354431   -1.959400
     30          1           0       -5.531007   -2.918424   -0.595013
     31          6           0       -3.113348    1.102581    0.004558
     32          6           0       -1.818874    1.831066   -0.358251
     33          6           0       -1.731216    3.225445    0.262891
     34          1           0       -3.970330    1.706280   -0.324874
     35          1           0       -3.188305    1.023926    1.097783
     36          1           0       -1.746897    1.907827   -1.450744
     37          1           0       -0.964571    1.225521   -0.029468
     38          1           0       -1.777636    3.164294    1.355003
     39          1           0       -2.564406    3.850476   -0.074349
     40          1           0       -0.798009    3.728288   -0.009384
 ---------------------------------------------------------------------

 SCF Done:  E(RHF) =  -470.732854705     A.U. after   11 cycles
 E2 =    -0.1583765786D+01 EUMP2 =    -0.47231662049150D+03

 The electronic state is 1-A.
 Alpha  occ. eigenvalues --  -11.21677 -11.21626 -11.21585 -11.21452 -11.21448
 Alpha  occ. eigenvalues --  -11.21386 -11.21373 -11.21310 -11.21181 -11.21088
 Alpha  occ. eigenvalues --  -11.21060 -11.21022  -1.08494  -1.08382  -1.03613
 Alpha  occ. eigenvalues --   -1.03467  -0.96040  -0.95944  -0.87053  -0.86959
 Alpha  occ. eigenvalues --   -0.79764  -0.79475  -0.78376  -0.78118  -0.65131
 Alpha  occ. eigenvalues --   -0.65031  -0.60987  -0.60934  -0.59448  -0.59249
 Alpha  occ. eigenvalues --   -0.57659  -0.57534  -0.55336  -0.55223  -0.52740
 Alpha  occ. eigenvalues --   -0.52629  -0.52461  -0.52368  -0.49983  -0.49883
 Alpha  occ. eigenvalues --   -0.48167  -0.47756  -0.46720  -0.46578  -0.46002
 Alpha  occ. eigenvalues --   -0.45764  -0.45719  -0.45346  -0.43834  -0.43739
 Alpha virt. eigenvalues --    0.20196   0.23049   0.23937   0.24536   0.25979
 Alpha virt. eigenvalues --    0.26592   0.26753   0.27523   0.28144   0.29500
 Alpha virt. eigenvalues --    0.31022   0.31269   0.31382   0.31843   0.32347

 Mulliken charges:
               1
     1  C   -0.298530
     2  C   -0.299719
     3  C   -0.475733
     4  H    0.149981
     5  H    0.149624
     6  H    0.151991
     7  H    0.151983
     8  H    0.155235
     9  H    0.155279
    10  H    0.160343
    11  C   -0.296832
    12  C   -0.305236
    13  C   -0.478574
    14  H    0.149636
    15  H    0.149768
    16  H    0.154426
    17  H    0.153354
    18  H    0.156054
    19  H    0.155578
    20  H    0.161567
    21  C   -0.300948
    22  C   -0.299444
    23  C   -0.475721
    24  H    0.149473
    25  H    0.151354
    26  H    0.152007
    27  H    0.151921
    28  H    0.155159
    29  H    0.155025
    30  H    0.160237
    31  C   -0.297554
    32  C   -0.312635
    33  C   -0.475152
    34  H    0.149301
    35  H    0.148764
    36  H    0.150880
    37  H    0.168105
    38  H    0.154427
    39  H    0.154903
    40  H    0.159705
 Sum of Mulliken charges =  -0.00000

 Dipole moment (field-independent basis, Debye):
    X=              0.0574    Y=             -0.0221    Z=              0.0052  Tot=              0.0617
 Quadrupole moment (field-independent basis, Debye-Ang):
   XX=            -85.1100   YY=            -85.4290   ZZ=            -84.3829
   XY=             -0.3965   XZ=              1.0382   YZ=              0.0805

 Normal termination of Gaussian 16 at Thu May  6 03:47:08 2021.
