 Gaussian 16, Revision A.03,
 Gaussian 16:  EM64L-G16RevA.03 25-Dec-2016

 -------------
 #p 6-31g* mp2
 -------------

 ------------------------------------------------------
 Input file generated by CHIRIPA (05-May-2021 14:57:25)
 ------------------------------------------------------
 Symbolic Z-matrix:
 Charge =  0 Multiplicity = 1

                         Standard orientation:
 ---------------------------------------------------------------------
 Center     Atomic      Atomic             Coordinates (Angstroms)
 Number     Number       Type             X           Y           Z
 ---------------------------------------------------------------------
      1          6           0        3.585059   -1.726991   -0.962843
      2          6           0        4.146661   -1.131544    0.171426
      3          6           0        3.641570    0.075717    0.663314
      4          6           0        2.569299    0.662665   -0.006774
      5          6           0        1.988205    0.094080   -1.139175
      6          6           0        2.509519   -1.113361   -1.613376
      7          1           0        3.983727   -2.664890   -1.338083
      8          1           0        4.982003   -1.605838    0.678669
      9          1           0        4.057324    0.558464    1.539397
     10          1           0        1.156162    0.590686   -1.623432
     11          1           0        2.071377   -1.573511   -2.494477
     12          7           0        2.025994    1.940833    0.504604
     13          8           0        1.080760    2.437836   -0.103801
     14          8           0        2.555675    2.421455    1.504142
     15          6           0       -1.089050   -2.121891    1.146120
     16          6           0       -0.865714   -1.681060   -0.162433
     17          6           0       -1.728984   -0.756025   -0.757094
     18          6           0       -2.810604   -0.290569   -0.010944
     19          6           0       -3.059755   -0.710661    1.294711
     20          6           0       -2.183428   -1.636142    1.869241
     21          1           0       -0.413370   -2.840654    1.600247
     22          1           0       -0.016613   -2.056588   -0.726393
     23          1           0       -1.579589   -0.397877   -1.768445
     24          1           0       -3.914696   -0.318277    1.831861
     25          1           0       -2.359338   -1.976729    2.885656
     26          7           0       -3.731421    0.688960   -0.629830
     27          8           0       -4.677141    1.083798    0.048665
     28          8           0       -3.490001    1.043330   -1.781687
 ---------------------------------------------------------------------

 SCF Done:  E(RHF) =  -868.335124117     A.U. after   16 cycles
 E2 =    -0.2603335438D+01 EUMP2 =    -0.87093845955440D+03

 The electronic state is 1-A.
 Alpha  occ. eigenvalues --  -20.61168 -20.61144 -20.60542 -20.60537 -15.86223
 Alpha  occ. eigenvalues --  -15.85600 -11.31838 -11.31094 -11.28508 -11.28457
 Alpha  occ. eigenvalues --  -11.28290 -11.27729 -11.27619 -11.27557 -11.27480
 Alpha  occ. eigenvalues --  -11.27422 -11.26699 -11.26689  -1.60230  -1.59607
 Alpha  occ. eigenvalues --   -1.39776  -1.39161  -1.20085  -1.19264  -1.09414
 Alpha  occ. eigenvalues --   -1.08636  -1.05562  -1.04696  -0.96200  -0.95459
 Alpha  occ. eigenvalues --   -0.86904  -0.86097  -0.83055  -0.82302  -0.78054
 Alpha  occ. eigenvalues --   -0.77321  -0.72435  -0.71826  -0.71560  -0.71172
 Alpha  occ. eigenvalues --   -0.70915  -0.70397  -0.65734  -0.65549  -0.64929
 Alpha  occ. eigenvalues --   -0.64736  -0.62917  -0.62038  -0.56000  -0.55221
 Alpha  occ. eigenvalues --   -0.53999  -0.53646  -0.52934  -0.52658  -0.49216
 Alpha  occ. eigenvalues --   -0.49175  -0.48589  -0.48569  -0.45127  -0.44542
 Alpha  occ. eigenvalues --   -0.38112  -0.37472  -0.37102  -0.36000
 Alpha virt. eigenvalues --    0.04448   0.05268   0.10332   0.11351   0.15787
 Alpha virt. eigenvalues --    0.16753   0.19779   0.22008   0.25295   0.26939
 Alpha virt. eigenvalues --    0.28123   0.29372   0.29831   0.31253   0.31866

 Mulliken charges:
               1
     1  C   -0.172332
     2  C   -0.220040
     3  C   -0.169973
     4  C    0.160060
     5  C   -0.167488
     6  C   -0.231841
     7  H    0.227269
     8  H    0.225404
     9  H    0.278109
    10  H    0.278975
    11  H    0.222853
    12  N    0.488024
    13  O   -0.455328
    14  O   -0.459568
    15  C   -0.174146
    16  C   -0.217207
    17  C   -0.173207
    18  C    0.163295
    19  C   -0.169805
    20  C   -0.217093
    21  H    0.223537
    22  H    0.221799
    23  H    0.269096
    24  H    0.276720
    25  H    0.223523
    26  N    0.489113
    27  O   -0.459255
    28  O   -0.460492
 Sum of Mulliken charges =  -0.00000

 Dipole moment (field-independent basis, Debye):
    X=              5.1978    Y=             -7.7211    Z=              0.5324  Tot=              9.3228
 Quadrupole moment (field-independent basis, Debye-Ang):
   XX=           -109.7346   YY=           -110.3324   ZZ=            -99.2285
   XY=             -1.7646   XZ=            -10.6538   YZ=             -1.8636

 Normal termination of Gaussian 16 at Wed May  5 17:58:16 2021.
