 Gaussian 16, Revision A.03,
 Gaussian 16:  EM64L-G16RevA.03 25-Dec-2016

 -------------
 #p 6-31g* mp2
 -------------

 ------------------------------------------------------
 Input file generated by CHIRIPA (05-May-2021 14:57:24)
 ------------------------------------------------------
 Symbolic Z-matrix:
 Charge =  0 Multiplicity = 1

                         Standard orientation:
 ---------------------------------------------------------------------
 Center     Atomic      Atomic             Coordinates (Angstroms)
 Number     Number       Type             X           Y           Z
 ---------------------------------------------------------------------
      1          6           0       -6.207617    0.274862    0.202807
      2          6           0       -5.327518    1.295981    0.575983
      3          6           0       -3.944914    1.111252    0.482015
      4          6           0       -3.474792   -0.112714    0.008537
      5          6           0       -4.326145   -1.149266   -0.371001
      6          6           0       -5.705008   -0.942357   -0.268663
      7          1           0       -7.280204    0.426979    0.279054
      8          1           0       -5.715017    2.242327    0.942479
      9          1           0       -3.241059    1.884840    0.764093
     10          1           0       -3.910006   -2.081695   -0.732696
     11          1           0       -6.386146   -1.737146   -0.559192
     12          7           0       -2.013072   -0.320019   -0.095373
     13          8           0       -1.624104   -1.407568   -0.515586
     14          8           0       -1.284020    0.608969    0.245363
     15          6           0        4.109378   -2.387941    0.331232
     16          6           0        5.146115   -1.474767    0.549893
     17          6           0        4.939340   -0.105854    0.355291
     18          6           0        3.677642    0.316999   -0.060166
     19          6           0        2.624714   -0.568138   -0.286360
     20          6           0        2.854200   -1.932514   -0.085462
     21          1           0        4.278827   -3.449583    0.484849
     22          1           0        6.121932   -1.825599    0.873531
     23          1           0        5.724296    0.622872    0.517215
     24          1           0        1.662818   -0.188298   -0.608691
     25          1           0        2.047207   -2.639415   -0.256049
     26          7           0        3.446717    1.763805   -0.269515
     27          8           0        2.326001    2.110916   -0.635776
     28          8           0        4.390807    2.523305   -0.063378
 ---------------------------------------------------------------------

 SCF Done:  E(RHF) =  -868.340255792     A.U. after   16 cycles
 E2 =    -0.2599082026D+01 EUMP2 =    -0.87093933781713D+03

 The electronic state is 1-A.
 Alpha  occ. eigenvalues --  -20.61308 -20.61210 -20.59551 -20.59496 -15.86237
 Alpha  occ. eigenvalues --  -15.84572 -11.31406 -11.29837 -11.27977 -11.27909
 Alpha  occ. eigenvalues --  -11.27667 -11.26939 -11.26896 -11.26537 -11.26257
 Alpha  occ. eigenvalues --  -11.26189 -11.25561 -11.25315  -1.60304  -1.58610
 Alpha  occ. eigenvalues --   -1.39856  -1.38157  -1.19560  -1.18037  -1.09000
 Alpha  occ. eigenvalues --   -1.07478  -1.04929  -1.03399  -0.95865  -0.94308
 Alpha  occ. eigenvalues --   -0.86338  -0.84819  -0.82697  -0.81121  -0.77769
 Alpha  occ. eigenvalues --   -0.76150  -0.72457  -0.71589  -0.70797  -0.70668
 Alpha  occ. eigenvalues --   -0.69934  -0.69162  -0.65214  -0.64934  -0.63687
 Alpha  occ. eigenvalues --   -0.63406  -0.62274  -0.60706  -0.55449  -0.53986
 Alpha  occ. eigenvalues --   -0.53272  -0.53018  -0.51788  -0.51482  -0.49264
 Alpha  occ. eigenvalues --   -0.49202  -0.47574  -0.47529  -0.45294  -0.43584
 Alpha  occ. eigenvalues --   -0.37533  -0.36522  -0.36086  -0.35009
 Alpha virt. eigenvalues --    0.04753   0.06336   0.11136   0.12628   0.16284
 Alpha virt. eigenvalues --    0.17812   0.21283   0.22761   0.27218   0.28147
 Alpha virt. eigenvalues --    0.28747   0.29704   0.30883   0.32189   0.32448

 Mulliken charges:
               1
     1  C   -0.170037
     2  C   -0.218772
     3  C   -0.170053
     4  C    0.158106
     5  C   -0.170752
     6  C   -0.218729
     7  H    0.226591
     8  H    0.225459
     9  H    0.279979
    10  H    0.273975
    11  H    0.223623
    12  N    0.489051
    13  O   -0.470758
    14  O   -0.452562
    15  C   -0.171742
    16  C   -0.220122
    17  C   -0.172501
    18  C    0.155086
    19  C   -0.173805
    20  C   -0.223107
    21  H    0.220593
    22  H    0.217860
    23  H    0.271042
    24  H    0.296619
    25  H    0.230297
    26  N    0.487071
    27  O   -0.454280
    28  O   -0.468132
 Sum of Mulliken charges =  -0.00000

 Dipole moment (field-independent basis, Debye):
    X=             -4.9533    Y=             -4.2290    Z=              1.0848  Tot=              6.6028
 Quadrupole moment (field-independent basis, Debye-Ang):
   XX=            -60.8228   YY=           -104.8441   ZZ=           -105.6084
   XY=            -19.0728   XZ=              2.7616   YZ=              2.7745

 Normal termination of Gaussian 16 at Fri May  7 00:19:00 2021.
