 Gaussian 16, Revision A.03,
 Gaussian 16:  EM64L-G16RevA.03 25-Dec-2016

 -------------
 #p 6-31g* mp2
 -------------

 ------------------------------------------------------
 Input file generated by CHIRIPA (05-May-2021 14:53:12)
 ------------------------------------------------------
 Symbolic Z-matrix:
 Charge =  0 Multiplicity = 1

                         Standard orientation:
 ---------------------------------------------------------------------
 Center     Atomic      Atomic             Coordinates (Angstroms)
 Number     Number       Type             X           Y           Z
 ---------------------------------------------------------------------
      1          6           0       -3.529240    1.084423   -0.387139
      2          6           0       -2.306014    1.562140    0.396117
      3          6           0       -1.744453    2.882505   -0.132163
      4          1           0       -3.257810    0.971696   -1.445706
      5          1           0       -4.308178    1.858287   -0.344886
      6          1           0       -1.530131    0.787021    0.353559
      7          1           0       -2.580338    1.673560    1.452975
      8          1           0       -2.499697    3.672983   -0.074270
      9          1           0       -1.443524    2.781407   -1.179933
     10          1           0       -0.870559    3.205513    0.442151
     11          6           0       -4.102047   -0.234333    0.129101
     12          6           0       -5.325272   -0.712050   -0.654155
     13          6           0       -5.886834   -2.032415   -0.125875
     14          1           0       -3.323109   -1.008197    0.086848
     15          1           0       -4.373477   -0.121605    1.187668
     16          1           0       -5.050949   -0.823469   -1.711013
     17          1           0       -6.101155    0.063069   -0.611597
     18          1           0       -6.187763   -1.931317    0.921895
     19          1           0       -5.131589   -2.822893   -0.183768
     20          1           0       -6.760727   -2.355422   -0.700189
     21          6           0        0.747584   -0.558325    1.252626
     22          6           0        1.907048   -0.353402    2.007723
     23          6           0        3.149884   -0.226627    1.380160
     24          6           0        3.196887   -0.310193   -0.010559
     25          6           0        2.059515   -0.513745   -0.790456
     26          6           0        0.827377   -0.637702   -0.141595
     27          1           0       -0.213725   -0.655713    1.748405
     28          1           0        1.848086   -0.291343    3.090643
     29          1           0        4.063235   -0.067437    1.940398
     30          1           0        2.149961   -0.571242   -1.868385
     31          1           0       -0.071429   -0.796791   -0.730564
     32          7           0        4.506958   -0.177473   -0.686205
     33          8           0        4.521630   -0.254780   -1.912763
     34          8           0        5.494315    0.001348    0.023575
 ---------------------------------------------------------------------

 SCF Done:  E(RHF) =  -669.533982296     A.U. after   15 cycles
 E2 =    -0.2093228411D+01 EUMP2 =    -0.67162721070698D+03

 The electronic state is 1-A.
 Alpha  occ. eigenvalues --  -20.60770 -20.60765 -15.85825 -11.31197 -11.27777
 Alpha  occ. eigenvalues --  -11.27774 -11.27483 -11.26780 -11.26768 -11.22480
 Alpha  occ. eigenvalues --  -11.22360 -11.22303 -11.22219 -11.21731 -11.21713
 Alpha  occ. eigenvalues --   -1.59846  -1.39399  -1.19380  -1.09298  -1.08770
 Alpha  occ. eigenvalues --   -1.04792  -1.04300  -0.96729  -0.95607  -0.87744
 Alpha  occ. eigenvalues --   -0.86200  -0.82438  -0.80399  -0.79139  -0.77481
 Alpha  occ. eigenvalues --   -0.72045  -0.71169  -0.70500  -0.66015  -0.65029
 Alpha  occ. eigenvalues --   -0.64774  -0.62198  -0.61626  -0.60098  -0.58353
 Alpha  occ. eigenvalues --   -0.56022  -0.55286  -0.53398  -0.53151  -0.53104
 Alpha  occ. eigenvalues --   -0.52881  -0.50670  -0.48808  -0.48800  -0.48674
 Alpha  occ. eigenvalues --   -0.47429  -0.46639  -0.46590  -0.44804  -0.44570
 Alpha  occ. eigenvalues --   -0.37293  -0.36375
 Alpha virt. eigenvalues --    0.05042   0.11134   0.16504   0.19418   0.22671
 Alpha virt. eigenvalues --    0.23788   0.25155   0.25899   0.27195   0.27854
 Alpha virt. eigenvalues --    0.29883   0.30345   0.30925   0.31472   0.31975

 Mulliken charges:
               1
     1  C   -0.298454
     2  C   -0.307414
     3  C   -0.474641
     4  H    0.149477
     5  H    0.153767
     6  H    0.148102
     7  H    0.150947
     8  H    0.157806
     9  H    0.156218
    10  H    0.163585
    11  C   -0.298225
    12  C   -0.299967
    13  C   -0.476208
    14  H    0.140456
    15  H    0.150739
    16  H    0.153013
    17  H    0.154821
    18  H    0.155846
    19  H    0.154488
    20  H    0.163125
    21  C   -0.169255
    22  C   -0.220324
    23  C   -0.170747
    24  C    0.158089
    25  C   -0.172047
    26  C   -0.218502
    27  H    0.228848
    28  H    0.223658
    29  H    0.275709
    30  H    0.275639
    31  H    0.224121
    32  N    0.488149
    33  O   -0.460422
    34  O   -0.460396
 Sum of Mulliken charges =  -0.00000

 Dipole moment (field-independent basis, Debye):
    X=             -4.7240    Y=             -0.3883    Z=              2.3734  Tot=              5.3010
 Quadrupole moment (field-independent basis, Debye-Ang):
   XX=           -123.0565   YY=            -95.6233   ZZ=            -90.6016
   XY=             -0.6656   XZ=              9.8762   YZ=              0.4294

 Normal termination of Gaussian 16 at Thu May  6 16:59:59 2021.
