 Gaussian 16, Revision A.03,
 Gaussian 16:  EM64L-G16RevA.03 25-Dec-2016

 -------------
 #p 6-31g* mp2
 -------------

 ------------------------------------------------------
 Input file generated by CHIRIPA (05-May-2021 14:57:24)
 ------------------------------------------------------
 Symbolic Z-matrix:
 Charge =  0 Multiplicity = 1

                         Standard orientation:
 ---------------------------------------------------------------------
 Center     Atomic      Atomic             Coordinates (Angstroms)
 Number     Number       Type             X           Y           Z
 ---------------------------------------------------------------------
      1          6           0        1.388666    0.128519    0.720622
      2          6           0        1.903779    0.796585   -0.395114
      3          6           0        3.255673    0.679073   -0.731448
      4          6           0        4.067600   -0.118396    0.073603
      5          6           0        3.584111   -0.796468    1.191525
      6          6           0        2.228995   -0.664477    1.508991
      7          1           0        0.337230    0.225429    0.974566
      8          1           0        1.253509    1.413120   -1.009182
      9          1           0        3.680690    1.185272   -1.589667
     10          1           0        4.257002   -1.403861    1.784576
     11          1           0        1.831701   -1.184459    2.376067
     12          7           0        5.500496   -0.250465   -0.272471
     13          8           0        6.194976   -0.959115    0.452891
     14          8           0        5.901987    0.357169   -1.262533
     15          6           0       -2.673174    2.324427    0.116860
     16          6           0       -2.177807    1.373944   -0.781868
     17          6           0       -2.811493    0.136260   -0.927230
     18          6           0       -3.943419   -0.118745   -0.154568
     19          6           0       -4.461109    0.807660    0.749345
     20          6           0       -3.811237    2.038756    0.878256
     21          1           0       -2.174624    3.283331    0.223392
     22          1           0       -1.294152    1.593060   -1.374479
     23          1           0       -2.449301   -0.617736   -1.615507
     24          1           0       -5.343886    0.560371    1.326382
     25          1           0       -4.198179    2.775010    1.577005
     26          7           0       -4.622841   -1.425538   -0.299749
     27          8           0       -5.618460   -1.625831    0.392539
     28          8           0       -4.146888   -2.224766   -1.103080
 ---------------------------------------------------------------------

 SCF Done:  E(RHF) =  -868.337147562     A.U. after   16 cycles
 E2 =    -0.2600269623D+01 EUMP2 =    -0.87093741718487D+03

 The electronic state is 1-A.
 Alpha  occ. eigenvalues --  -20.61547 -20.61541 -20.61061 -20.61053 -15.86610
 Alpha  occ. eigenvalues --  -15.86120 -11.32169 -11.31559 -11.28827 -11.28748
 Alpha  occ. eigenvalues --  -11.28585 -11.28209 -11.28124 -11.27939 -11.27879
 Alpha  occ. eigenvalues --  -11.27758 -11.27301 -11.27114  -1.60621  -1.60135
 Alpha  occ. eigenvalues --   -1.40168  -1.39686  -1.20392  -1.19755  -1.09746
 Alpha  occ. eigenvalues --   -1.09132  -1.05825  -1.05185  -0.96533  -0.95947
 Alpha  occ. eigenvalues --   -0.87215  -0.86581  -0.83363  -0.82788  -0.78381
 Alpha  occ. eigenvalues --   -0.77826  -0.72820  -0.72335  -0.71953  -0.71462
 Alpha  occ. eigenvalues --   -0.71460  -0.70841  -0.66033  -0.65931  -0.65405
 Alpha  occ. eigenvalues --   -0.65163  -0.63161  -0.62511  -0.56297  -0.55690
 Alpha  occ. eigenvalues --   -0.54107  -0.53936  -0.53494  -0.53255  -0.49597
 Alpha  occ. eigenvalues --   -0.49564  -0.49101  -0.49084  -0.45529  -0.45075
 Alpha  occ. eigenvalues --   -0.38386  -0.37750  -0.37421  -0.36793
 Alpha virt. eigenvalues --    0.04161   0.04744   0.10109   0.10840   0.15541
 Alpha virt. eigenvalues --    0.16210   0.18504   0.21831   0.24493   0.27362
 Alpha virt. eigenvalues --    0.27738   0.28467   0.29311   0.31208   0.31680

 Mulliken charges:
               1
     1  C   -0.174600
     2  C   -0.222185
     3  C   -0.170188
     4  C    0.158611
     5  C   -0.169563
     6  C   -0.218485
     7  H    0.229949
     8  H    0.213431
     9  H    0.275911
    10  H    0.277410
    11  H    0.226217
    12  N    0.488063
    13  O   -0.458872
    14  O   -0.460252
    15  C   -0.173128
    16  C   -0.228565
    17  C   -0.172734
    18  C    0.158436
    19  C   -0.169425
    20  C   -0.218878
    21  H    0.228424
    22  H    0.222411
    23  H    0.279489
    24  H    0.279074
    25  H    0.227338
    26  N    0.487893
    27  O   -0.457756
    28  O   -0.458024
 Sum of Mulliken charges =  -0.00000

 Dipole moment (field-independent basis, Debye):
    X=             -2.8664    Y=              4.9692    Z=              1.8489  Tot=              6.0273
 Quadrupole moment (field-independent basis, Debye-Ang):
   XX=           -161.8906   YY=           -104.7982   ZZ=            -99.9588
   XY=            -17.8374   XZ=              0.1586   YZ=             -2.4559

 Normal termination of Gaussian 16 at Fri May  7 01:50:51 2021.
