 Gaussian 16, Revision A.03,
 Gaussian 16:  EM64L-G16RevA.03 25-Dec-2016

 -------------
 #p 6-31g* mp2
 -------------

 ------------------------------------------------------
 Input file generated by CHIRIPA (05-May-2021 14:51:13)
 ------------------------------------------------------
 Symbolic Z-matrix:
 Charge =  0 Multiplicity = 1

                         Standard orientation:
 ---------------------------------------------------------------------
 Center     Atomic      Atomic             Coordinates (Angstroms)
 Number     Number       Type             X           Y           Z
 ---------------------------------------------------------------------
      1          6           0       -3.733176   -0.482023    0.079088
      2          6           0       -4.808306    0.448898   -0.482576
      3          6           0       -6.065262   -0.299801   -0.926767
      4          1           0       -3.467668   -1.227188   -0.683263
      5          1           0       -4.148816   -1.039627    0.929802
      6          1           0       -4.390338    1.005592   -1.331110
      7          1           0       -5.071147    1.192052    0.281134
      8          1           0       -6.508433   -0.841848   -0.085111
      9          1           0       -5.823755   -1.029368   -1.706516
     10          1           0       -6.820678    0.384792   -1.324936
     11          6           0       -2.470496    0.251708    0.527428
     12          6           0       -1.395366   -0.679212    1.089091
     13          6           0       -0.138410    0.069486    1.533283
     14          1           0       -2.054856    0.809313   -0.323287
     15          1           0       -2.736004    0.996874    1.289779
     16          1           0       -1.132524   -1.422366    0.325382
     17          1           0       -1.813334   -1.235906    1.937626
     18          1           0       -0.379917    0.799053    2.313031
     19          1           0        0.304761    0.611534    0.691627
     20          1           0        0.617007   -0.615107    1.931451
     21          6           0        3.167568    0.790062    0.048330
     22          6           0        2.609394    1.956082   -0.768263
     23          6           0        2.748143    3.299578   -0.051632
     24          1           0        2.648617    0.746580    1.015669
     25          1           0        4.226744    0.980707    0.270134
     26          1           0        1.551950    1.762641   -0.989641
     27          1           0        3.129601    1.996677   -1.733848
     28          1           0        3.800586    3.518854    0.155446
     29          1           0        2.213970    3.283489    0.903881
     30          1           0        2.342815    4.119183   -0.653144
     31          6           0        3.036104   -0.559748   -0.654846
     32          6           0        3.594278   -1.725767    0.161748
     33          6           0        3.455529   -3.069263   -0.554884
     34          1           0        1.976928   -0.750392   -0.876650
     35          1           0        3.555055   -0.516265   -1.622184
     36          1           0        3.074070   -1.766362    1.127332
     37          1           0        4.651722   -1.532327    0.383126
     38          1           0        3.989701   -3.053175   -1.510396
     39          1           0        2.403085   -3.288539   -0.761961
     40          1           0        3.860857   -3.888868    0.046628
 ---------------------------------------------------------------------

 SCF Done:  E(RHF) =  -470.731657223     A.U. after   11 cycles
 E2 =    -0.1584886234D+01 EUMP2 =    -0.47231654345701D+03

 The electronic state is 1-A.
 Alpha  occ. eigenvalues --  -11.21673 -11.21632 -11.21589 -11.21580 -11.21460
 Alpha  occ. eigenvalues --  -11.21397 -11.21330 -11.21220 -11.21113 -11.21094
 Alpha  occ. eigenvalues --  -11.21060 -11.21042  -1.08509  -1.08373  -1.03596
 Alpha  occ. eigenvalues --   -1.03500  -0.96088  -0.95903  -0.87100  -0.86939
 Alpha  occ. eigenvalues --   -0.79673  -0.79570  -0.78303  -0.78193  -0.65385
 Alpha  occ. eigenvalues --   -0.64880  -0.61100  -0.60819  -0.59405  -0.59311
 Alpha  occ. eigenvalues --   -0.57637  -0.57553  -0.55535  -0.55018  -0.52760
 Alpha  occ. eigenvalues --   -0.52647  -0.52452  -0.52356  -0.50111  -0.49743
 Alpha  occ. eigenvalues --   -0.48032  -0.47813  -0.46707  -0.46598  -0.45901
 Alpha  occ. eigenvalues --   -0.45780  -0.45689  -0.45562  -0.43796  -0.43725
 Alpha virt. eigenvalues --    0.20268   0.23101   0.23330   0.24731   0.25474
 Alpha virt. eigenvalues --    0.26260   0.27423   0.27710   0.27918   0.30095
 Alpha virt. eigenvalues --    0.30148   0.30561   0.31413   0.31939   0.32376

 Mulliken charges:
               1
     1  C   -0.298335
     2  C   -0.299707
     3  C   -0.475748
     4  H    0.149728
     5  H    0.149723
     6  H    0.152038
     7  H    0.152023
     8  H    0.155231
     9  H    0.155258
    10  H    0.160390
    11  C   -0.298601
    12  C   -0.300505
    13  C   -0.485307
    14  H    0.149187
    15  H    0.149974
    16  H    0.151700
    17  H    0.152255
    18  H    0.155176
    19  H    0.164939
    20  H    0.161753
    21  C   -0.305729
    22  C   -0.302362
    23  C   -0.475906
    24  H    0.158590
    25  H    0.149922
    26  H    0.150960
    27  H    0.152617
    28  H    0.155383
    29  H    0.156065
    30  H    0.159933
    31  C   -0.298750
    32  C   -0.301398
    33  C   -0.475596
    34  H    0.150444
    35  H    0.149500
    36  H    0.152937
    37  H    0.152043
    38  H    0.155169
    39  H    0.154877
    40  H    0.160131
 Sum of Mulliken charges =  -0.00000

 Dipole moment (field-independent basis, Debye):
    X=             -0.0168    Y=              0.0110    Z=              0.0268  Tot=              0.0334
 Quadrupole moment (field-independent basis, Debye-Ang):
   XX=            -84.7702   YY=            -86.0682   ZZ=            -84.0068
   XY=             -0.3247   XZ=             -1.0726   YZ=             -0.4695

 Normal termination of Gaussian 16 at Wed May  5 23:11:54 2021.
