 Gaussian 16, Revision A.03,
 Gaussian 16:  EM64L-G16RevA.03 25-Dec-2016

 -------------
 #p 6-31g* mp2
 -------------

 ------------------------------------------------------
 Input file generated by CHIRIPA (05-May-2021 14:55:21)
 ------------------------------------------------------
 Symbolic Z-matrix:
 Charge =  0 Multiplicity = 1

                         Standard orientation:
 ---------------------------------------------------------------------
 Center     Atomic      Atomic             Coordinates (Angstroms)
 Number     Number       Type             X           Y           Z
 ---------------------------------------------------------------------
      1          6           0       -3.764479    0.857880   -1.425012
      2          6           0       -3.175376    1.719454   -0.493793
      3          6           0       -2.288323    1.226364    0.467741
      4          6           0       -2.011631   -0.139919    0.469245
      5          6           0       -2.582540   -1.023710   -0.445231
      6          6           0       -3.466706   -0.508543   -1.397807
      7          1           0       -4.452442    1.249499   -2.168476
      8          1           0       -3.404783    2.781087   -0.512553
      9          1           0       -1.818116    1.870968    1.200414
     10          1           0       -2.334378   -2.077241   -0.401580
     11          1           0       -3.922728   -1.180000   -2.119772
     12          7           0       -1.074076   -0.673616    1.482436
     13          8           0       -0.846755   -1.881330    1.462697
     14          8           0       -0.584294    0.125891    2.277131
     15          6           0        3.205662    0.695362   -0.364638
     16          6           0        2.408547    1.970999   -0.090149
     17          6           0        3.288641    3.220600   -0.048626
     18          1           0        3.975524    0.577786    0.410238
     19          1           0        3.737650    0.802207   -1.320131
     20          1           0        1.877119    1.861235    0.863870
     21          1           0        1.640367    2.085451   -0.865659
     22          1           0        3.808091    3.357815   -1.002535
     23          1           0        4.046190    3.132325    0.736822
     24          1           0        2.698478    4.120912    0.148877
     25          6           0        2.339687   -0.562348   -0.409145
     26          6           0        3.136802   -1.837985   -0.683634
     27          6           0        2.256708   -3.087586   -0.725157
     28          1           0        1.807697   -0.669194    0.546347
     29          1           0        1.569824   -0.444771   -1.184020
     30          1           0        3.904981   -1.952437    0.091877
     31          1           0        3.668229   -1.728221   -1.637654
     32          1           0        1.499159   -2.999311   -1.510604
     33          1           0        1.737257   -3.224801    0.228753
     34          1           0        2.846870   -3.987898   -0.922659
 ---------------------------------------------------------------------

 SCF Done:  E(RHF) =  -669.536927221     A.U. after   15 cycles
 E2 =    -0.2092854159D+01 EUMP2 =    -0.67162978138063D+03

 The electronic state is 1-A.
 Alpha  occ. eigenvalues --  -20.61000 -20.60991 -15.85989 -11.31275 -11.27834
 Alpha  occ. eigenvalues --  -11.27830 -11.27573 -11.26835 -11.26826 -11.21032
 Alpha  occ. eigenvalues --  -11.20825 -11.20743 -11.20678 -11.20556 -11.20137
 Alpha  occ. eigenvalues --   -1.60036  -1.39592  -1.19439  -1.08853  -1.07734
 Alpha  occ. eigenvalues --   -1.04830  -1.02853  -0.95703  -0.95304  -0.86322
 Alpha  occ. eigenvalues --   -0.86232  -0.82542  -0.78931  -0.77628  -0.77545
 Alpha  occ. eigenvalues --   -0.72224  -0.71329  -0.70552  -0.65098  -0.64837
 Alpha  occ. eigenvalues --   -0.64343  -0.62178  -0.60241  -0.58697  -0.56920
 Alpha  occ. eigenvalues --   -0.55343  -0.54575  -0.53161  -0.52923  -0.52024
 Alpha  occ. eigenvalues --   -0.51730  -0.49230  -0.49002  -0.48991  -0.47261
 Alpha  occ. eigenvalues --   -0.45980  -0.45133  -0.44957  -0.44885  -0.43109
 Alpha  occ. eigenvalues --   -0.37411  -0.36427
 Alpha virt. eigenvalues --    0.04860   0.11211   0.16328   0.21290   0.23596
 Alpha virt. eigenvalues --    0.24902   0.27076   0.27410   0.27487   0.28422
 Alpha virt. eigenvalues --    0.28952   0.31094   0.31822   0.32081   0.32442

 Mulliken charges:
               1
     1  C   -0.170443
     2  C   -0.218883
     3  C   -0.169989
     4  C    0.159636
     5  C   -0.170820
     6  C   -0.218864
     7  H    0.225945
     8  H    0.223836
     9  H    0.276030
    10  H    0.276273
    11  H    0.223794
    12  N    0.489152
    13  O   -0.459347
    14  O   -0.460417
    15  C   -0.296133
    16  C   -0.305336
    17  C   -0.474695
    18  H    0.151046
    19  H    0.145553
    20  H    0.163784
    21  H    0.145076
    22  H    0.152862
    23  H    0.156536
    24  H    0.156109
    25  C   -0.308854
    26  C   -0.297926
    27  C   -0.480162
    28  H    0.169341
    29  H    0.141163
    30  H    0.152475
    31  H    0.146731
    32  H    0.146807
    33  H    0.174535
    34  H    0.155186
 Sum of Mulliken charges =  -0.00000

 Dipole moment (field-independent basis, Debye):
    X=             -3.4821    Y=              1.8007    Z=             -3.3341  Tot=              5.1462
 Quadrupole moment (field-independent basis, Debye-Ang):
   XX=            -82.6154   YY=            -92.4442   ZZ=            -97.2404
   XY=             -3.4091   XZ=              6.8240   YZ=              2.9583

 Normal termination of Gaussian 16 at Thu May  6 01:26:04 2021.
