 Gaussian 16, Revision A.03,
 Gaussian 16:  EM64L-G16RevA.03 25-Dec-2016

 -------------
 #p 6-31g* mp2
 -------------

 ------------------------------------------------------
 Input file generated by CHIRIPA (05-May-2021 14:51:12)
 ------------------------------------------------------
 Symbolic Z-matrix:
 Charge =  0 Multiplicity = 1

                         Standard orientation:
 ---------------------------------------------------------------------
 Center     Atomic      Atomic             Coordinates (Angstroms)
 Number     Number       Type             X           Y           Z
 ---------------------------------------------------------------------
      1          6           0        3.084618   -0.597367   -0.471671
      2          6           0        4.305155    0.140099    0.080072
      3          6           0        5.251929    0.621647   -1.019712
      4          1           0        3.421758   -1.455584   -1.068952
      5          1           0        2.542534    0.067610   -1.158217
      6          1           0        4.844006   -0.525599    0.766441
      7          1           0        3.965066    0.996548    0.676268
      8          1           0        4.735419    1.306380   -1.700123
      9          1           0        5.619354   -0.224416   -1.609438
     10          1           0        6.117484    1.146131   -0.603070
     11          6           0        2.128730   -1.084915    0.615666
     12          6           0        0.908193   -1.822381    0.063923
     13          6           0       -0.038580   -2.303929    1.163707
     14          1           0        2.670814   -1.749892    1.302212
     15          1           0        1.791590   -0.226698    1.212948
     16          1           0        1.248283   -2.678831   -0.532273
     17          1           0        0.369342   -1.156683   -0.622446
     18          1           0       -0.406006   -1.457866    1.753433
     19          1           0        0.477929   -2.988662    1.844118
     20          1           0       -0.904136   -2.828413    0.747065
     21          6           0       -2.121473    1.172799    0.415870
     22          6           0       -1.447979    2.421802   -0.153675
     23          6           0       -0.480179    3.074064    0.834106
     24          1           0       -2.659337    1.441051    1.335484
     25          1           0       -1.348379    0.447889    0.706088
     26          1           0       -2.222160    3.143581   -0.444012
     27          1           0       -0.911815    2.150581   -1.072143
     28          1           0        0.312893    2.373843    1.115760
     29          1           0       -1.004898    3.372484    1.747460
     30          1           0       -0.009959    3.965064    0.406470
     31          6           0       -3.091875    0.509484   -0.559866
     32          6           0       -3.765369   -0.739519    0.009680
     33          6           0       -4.733169   -1.391782   -0.978101
     34          1           0       -3.864970    1.234394   -0.850083
     35          1           0       -2.554011    0.241230   -1.479479
     36          1           0       -4.301533   -0.468300    0.928148
     37          1           0       -2.991188   -1.461298    0.300017
     38          1           0       -4.208451   -1.690202   -1.891456
     39          1           0       -5.526241   -0.691561   -1.259755
     40          1           0       -5.203390   -2.282782   -0.550465
 ---------------------------------------------------------------------

 SCF Done:  E(RHF) =  -470.732583824     A.U. after   11 cycles
 E2 =    -0.1584834185D+01 EUMP2 =    -0.47231741800862D+03

 The electronic state is 1-A.
 Alpha  occ. eigenvalues --  -11.21705 -11.21638 -11.21637 -11.21532 -11.21486
 Alpha  occ. eigenvalues --  -11.21418 -11.21388 -11.21327 -11.21144 -11.21136
 Alpha  occ. eigenvalues --  -11.21095 -11.21044  -1.08528  -1.08410  -1.03604
 Alpha  occ. eigenvalues --   -1.03534  -0.96070  -0.95973  -0.87071  -0.87004
 Alpha  occ. eigenvalues --   -0.79678  -0.79587  -0.78331  -0.78233  -0.65442
 Alpha  occ. eigenvalues --   -0.64821  -0.61036  -0.60918  -0.59469  -0.59298
 Alpha  occ. eigenvalues --   -0.57704  -0.57560  -0.55545  -0.55090  -0.52781
 Alpha  occ. eigenvalues --   -0.52664  -0.52525  -0.52350  -0.50041  -0.49898
 Alpha  occ. eigenvalues --   -0.48069  -0.47839  -0.46741  -0.46627  -0.45955
 Alpha  occ. eigenvalues --   -0.45810  -0.45734  -0.45459  -0.43836  -0.43779
 Alpha virt. eigenvalues --    0.18911   0.22226   0.24006   0.24247   0.25777
 Alpha virt. eigenvalues --    0.26085   0.26843   0.28005   0.28343   0.29834
 Alpha virt. eigenvalues --    0.30585   0.31508   0.31773   0.31971   0.32383

 Mulliken charges:
               1
     1  C   -0.298260
     2  C   -0.299834
     3  C   -0.475766
     4  H    0.149891
     5  H    0.149561
     6  H    0.152053
     7  H    0.152278
     8  H    0.155357
     9  H    0.155170
    10  H    0.160488
    11  C   -0.301108
    12  C   -0.302915
    13  C   -0.481511
    14  H    0.150394
    15  H    0.151211
    16  H    0.153075
    17  H    0.153022
    18  H    0.158252
    19  H    0.156417
    20  H    0.162520
    21  C   -0.308191
    22  C   -0.299099
    23  C   -0.477739
    24  H    0.149429
    25  H    0.160161
    26  H    0.152323
    27  H    0.151154
    28  H    0.155492
    29  H    0.155657
    30  H    0.160543
    31  C   -0.297649
    32  C   -0.306562
    33  C   -0.475549
    34  H    0.149497
    35  H    0.149056
    36  H    0.151571
    37  H    0.159675
    38  H    0.154853
    39  H    0.155050
    40  H    0.160032
 Sum of Mulliken charges =  -0.00000

 Dipole moment (field-independent basis, Debye):
    X=              0.0322    Y=             -0.0310    Z=              0.0228  Tot=              0.0502
 Quadrupole moment (field-independent basis, Debye-Ang):
   XX=            -85.1242   YY=            -84.1367   ZZ=            -85.4768
   XY=             -1.6579   XZ=             -0.2149   YZ=              0.0687

 Normal termination of Gaussian 16 at Wed May  5 15:19:31 2021.
