 Gaussian 16, Revision A.03,
 Gaussian 16:  EM64L-G16RevA.03 25-Dec-2016

 -------------
 #p 6-31g* mp2
 -------------

 ------------------------------------------------------
 Input file generated by CHIRIPA (05-May-2021 14:57:26)
 ------------------------------------------------------
 Symbolic Z-matrix:
 Charge =  0 Multiplicity = 1

                         Standard orientation:
 ---------------------------------------------------------------------
 Center     Atomic      Atomic             Coordinates (Angstroms)
 Number     Number       Type             X           Y           Z
 ---------------------------------------------------------------------
      1          6           0        1.926049    1.461034    0.950745
      2          6           0        2.877894    2.151343    0.193128
      3          6           0        4.003968    1.489802   -0.305740
      4          6           0        4.147190    0.131540   -0.026632
      5          6           0        3.216365   -0.583837    0.725093
      6          6           0        2.098019    0.098050    1.213846
      7          1           0        1.054289    1.982838    1.334349
      8          1           0        2.746941    3.209881   -0.012770
      9          1           0        4.756316    1.999858   -0.895005
     10          1           0        3.374307   -1.638760    0.913799
     11          1           0        1.360423   -0.440606    1.801935
     12          7           0        5.335223   -0.579574   -0.549407
     13          8           0        5.438267   -1.776441   -0.289546
     14          8           0        6.140864    0.073388   -1.209120
     15          6           0       -5.909978    1.269897   -0.532378
     16          6           0       -4.680418    1.813114   -0.145574
     17          6           0       -3.588392    0.981219    0.118958
     18          6           0       -3.762038   -0.395556   -0.013814
     19          6           0       -4.974333   -0.966991   -0.397341
     20          6           0       -6.052760   -0.115979   -0.656807
     21          1           0       -6.753007    1.923559   -0.735905
     22          1           0       -4.566629    2.889033   -0.048127
     23          1           0       -2.625261    1.375101    0.420046
     24          1           0       -5.057174   -2.043426   -0.485906
     25          1           0       -7.006474   -0.540643   -0.957033
     26          7           0       -2.613158   -1.286366    0.263553
     27          8           0       -2.791966   -2.496008    0.139340
     28          8           0       -1.555612   -0.758072    0.599914
 ---------------------------------------------------------------------

 SCF Done:  E(RHF) =  -868.339110248     A.U. after   16 cycles
 E2 =    -0.2598781568D+01 EUMP2 =    -0.87093789181618D+03

 The electronic state is 1-A.
 Alpha  occ. eigenvalues --  -20.61629 -20.61580 -20.60095 -20.60080 -15.86651
 Alpha  occ. eigenvalues --  -15.85134 -11.31868 -11.30370 -11.28467 -11.28380
 Alpha  occ. eigenvalues --  -11.28109 -11.27413 -11.27360 -11.26956 -11.26803
 Alpha  occ. eigenvalues --  -11.26624 -11.26007 -11.25708  -1.60668  -1.59167
 Alpha  occ. eigenvalues --   -1.40230  -1.38724  -1.20019  -1.18508  -1.09436
 Alpha  occ. eigenvalues --   -1.07934  -1.05405  -1.03871  -0.96302  -0.94799
 Alpha  occ. eigenvalues --   -0.86808  -0.85277  -0.83145  -0.81622  -0.78215
 Alpha  occ. eigenvalues --   -0.76682  -0.72888  -0.71973  -0.71358  -0.71127
 Alpha  occ. eigenvalues --   -0.70486  -0.69645  -0.65679  -0.65405  -0.64156
 Alpha  occ. eigenvalues --   -0.63843  -0.62763  -0.61206  -0.55897  -0.54418
 Alpha  occ. eigenvalues --   -0.53733  -0.53497  -0.52227  -0.51945  -0.49647
 Alpha  occ. eigenvalues --   -0.49601  -0.48120  -0.48101  -0.45666  -0.44158
 Alpha  occ. eigenvalues --   -0.37978  -0.36999  -0.36494  -0.35453
 Alpha virt. eigenvalues --    0.04323   0.05815   0.10659   0.12185   0.15851
 Alpha virt. eigenvalues --    0.17350   0.20556   0.22207   0.26324   0.27246
 Alpha virt. eigenvalues --    0.28373   0.28956   0.30638   0.31395   0.33032

 Mulliken charges:
               1
     1  C   -0.171018
     2  C   -0.219013
     3  C   -0.173192
     4  C    0.158306
     5  C   -0.172859
     6  C   -0.212519
     7  H    0.219961
     8  H    0.217720
     9  H    0.272083
    10  H    0.276188
    11  H    0.239322
    12  N    0.488071
    13  O   -0.460565
    14  O   -0.463619
    15  C   -0.170063
    16  C   -0.218015
    17  C   -0.169609
    18  C    0.158847
    19  C   -0.170108
    20  C   -0.218240
    21  H    0.227768
    22  H    0.223676
    23  H    0.268973
    24  H    0.277414
    25  H    0.225906
    26  N    0.491451
    27  O   -0.455361
    28  O   -0.471508
 Sum of Mulliken charges =  -0.00000

 Dipole moment (field-independent basis, Debye):
    X=             -8.7088    Y=              5.4339    Z=              0.9037  Tot=             10.3047
 Quadrupole moment (field-independent basis, Debye-Ang):
   XX=           -107.9028   YY=           -100.3891   ZZ=           -105.2700
   XY=              3.3332   XZ=             11.9552   YZ=             -0.6547

 Normal termination of Gaussian 16 at Thu May  6 22:54:48 2021.
