 Gaussian 16, Revision A.03,
 Gaussian 16:  EM64L-G16RevA.03 25-Dec-2016

 -------------
 #p 6-31g* mp2
 -------------

 ------------------------------------------------------
 Input file generated by CHIRIPA (05-May-2021 14:51:11)
 ------------------------------------------------------
 Symbolic Z-matrix:
 Charge =  0 Multiplicity = 1

                         Standard orientation:
 ---------------------------------------------------------------------
 Center     Atomic      Atomic             Coordinates (Angstroms)
 Number     Number       Type             X           Y           Z
 ---------------------------------------------------------------------
      1          6           0        4.338297   -0.692847    0.183816
      2          6           0        5.590778   -0.492929   -0.670181
      3          6           0        6.424461   -1.767595   -0.804322
      4          1           0        4.634733   -1.045455    1.181182
      5          1           0        3.724038   -1.488892   -0.259346
      6          1           0        6.201815    0.303454   -0.226309
      7          1           0        5.291338   -0.140573   -1.665569
      8          1           0        5.835873   -2.565865   -1.267929
      9          1           0        6.751524   -2.119315    0.179509
     10          1           0        7.314959   -1.602082   -1.418715
     11          6           0        3.494510    0.572533    0.327213
     12          6           0        2.242030    0.372615    1.181210
     13          6           0        1.408347    1.647281    1.315351
     14          1           0        4.108769    1.368579    0.770375
     15          1           0        3.198074    0.925141   -0.670152
     16          1           0        2.541469    0.020259    2.176598
     17          1           0        1.630992   -0.423768    0.737338
     18          1           0        1.081283    1.999001    0.331520
     19          1           0        1.996934    2.445551    1.778958
     20          1           0        0.517848    1.481768    1.929744
     21          6           0       -4.574265   -0.305814   -0.384799
     22          6           0       -4.749218   -1.559749    0.472536
     23          6           0       -6.070095   -2.280957    0.202468
     24          1           0       -5.412611    0.378922   -0.197026
     25          1           0       -4.630364   -0.584958   -1.446084
     26          1           0       -4.691423   -1.278527    1.531870
     27          1           0       -3.910257   -2.241496    0.282842
     28          1           0       -6.133122   -2.589608   -0.846037
     29          1           0       -6.918725   -1.621167    0.410088
     30          1           0       -6.174485   -3.174374    0.825982
     31          6           0       -3.258542    0.426128   -0.126230
     32          6           0       -3.083590    1.680063   -0.983565
     33          6           0       -1.762712    2.401271   -0.713498
     34          1           0       -3.202442    0.705273    0.935054
     35          1           0       -2.420196   -0.258608   -0.314003
     36          1           0       -3.922549    2.361810   -0.793871
     37          1           0       -3.141385    1.398841   -2.042900
     38          1           0       -0.914082    1.741482   -0.921118
     39          1           0       -1.699686    2.709922    0.335008
     40          1           0       -1.658322    3.294687   -1.337012
 ---------------------------------------------------------------------

 SCF Done:  E(RHF) =  -470.732672522     A.U. after   11 cycles
 E2 =    -0.1582658892D+01 EUMP2 =    -0.47231533141418D+03

 The electronic state is 1-A.
 Alpha  occ. eigenvalues --  -11.21603 -11.21589 -11.21581 -11.21547 -11.21404
 Alpha  occ. eigenvalues --  -11.21382 -11.21345 -11.21321 -11.21073 -11.21063
 Alpha  occ. eigenvalues --  -11.21010 -11.20916  -1.08428  -1.08397  -1.03542
 Alpha  occ. eigenvalues --   -1.03467  -0.96026  -0.95882  -0.87082  -0.86863
 Alpha  occ. eigenvalues --   -0.79674  -0.79468  -0.78250  -0.78200  -0.65074
 Alpha  occ. eigenvalues --   -0.65019  -0.60997  -0.60834  -0.59372  -0.59272
 Alpha  occ. eigenvalues --   -0.57614  -0.57535  -0.55382  -0.55126  -0.52740
 Alpha  occ. eigenvalues --   -0.52662  -0.52439  -0.52213  -0.50027  -0.49758
 Alpha  occ. eigenvalues --   -0.47970  -0.47772  -0.46664  -0.46505  -0.45821
 Alpha  occ. eigenvalues --   -0.45722  -0.45700  -0.45621  -0.43778  -0.43735
 Alpha virt. eigenvalues --    0.21914   0.23054   0.23616   0.24937   0.26189
 Alpha virt. eigenvalues --    0.26547   0.27161   0.27313   0.27846   0.29288
 Alpha virt. eigenvalues --    0.29770   0.31158   0.31742   0.31990   0.32499

 Mulliken charges:
               1
     1  C   -0.298185
     2  C   -0.299619
     3  C   -0.475677
     4  H    0.149667
     5  H    0.149231
     6  H    0.151958
     7  H    0.151846
     8  H    0.155080
     9  H    0.155180
    10  H    0.160208
    11  C   -0.298220
    12  C   -0.300264
    13  C   -0.478837
    14  H    0.149616
    15  H    0.149226
    16  H    0.151653
    17  H    0.151014
    18  H    0.161771
    19  H    0.154009
    20  H    0.159890
    21  C   -0.298244
    22  C   -0.299622
    23  C   -0.475703
    24  H    0.149702
    25  H    0.149465
    26  H    0.151932
    27  H    0.151856
    28  H    0.155153
    29  H    0.155202
    30  H    0.160257
    31  C   -0.298011
    32  C   -0.300240
    33  C   -0.477088
    34  H    0.149351
    35  H    0.149321
    36  H    0.151775
    37  H    0.151491
    38  H    0.156638
    39  H    0.157713
    40  H    0.159509
 Sum of Mulliken charges =  -0.00000

 Dipole moment (field-independent basis, Debye):
    X=             -0.0149    Y=              0.0232    Z=             -0.0020  Tot=              0.0277
 Quadrupole moment (field-independent basis, Debye-Ang):
   XX=            -85.7590   YY=            -85.4950   ZZ=            -83.6373
   XY=             -0.1041   XZ=              0.1226   YZ=              0.4342

 Normal termination of Gaussian 16 at Thu May  6 02:17:18 2021.
