 Gaussian 16, Revision A.03,
 Gaussian 16:  EM64L-G16RevA.03 25-Dec-2016

 -------------
 #p 6-31g* mp2
 -------------

 ------------------------------------------------------
 Input file generated by CHIRIPA (05-May-2021 14:57:26)
 ------------------------------------------------------
 Symbolic Z-matrix:
 Charge =  0 Multiplicity = 1

                         Standard orientation:
 ---------------------------------------------------------------------
 Center     Atomic      Atomic             Coordinates (Angstroms)
 Number     Number       Type             X           Y           Z
 ---------------------------------------------------------------------
      1          6           0       -3.472871    2.613506    0.131854
      2          6           0       -4.519452    1.686074    0.164416
      3          6           0       -4.261928    0.319554    0.020014
      4          6           0       -2.939995   -0.086394   -0.156022
      5          6           0       -1.875737    0.813211   -0.192853
      6          6           0       -2.156675    2.174888   -0.046363
      7          1           0       -3.682016    3.673170    0.244840
      8          1           0       -5.542606    2.023839    0.302680
      9          1           0       -5.053165   -0.419978    0.041349
     10          1           0       -0.866112    0.446243   -0.332169
     11          1           0       -1.341896    2.892885   -0.072057
     12          7           0       -2.654972   -1.530504   -0.309999
     13          8           0       -1.481647   -1.862590   -0.463831
     14          8           0       -3.610293   -2.302966   -0.273939
     15          6           0        1.688603   -2.218759    0.768669
     16          6           0        1.822600   -1.166952    1.680955
     17          6           0        2.539764   -0.016838    1.338230
     18          6           0        3.112491    0.048231    0.068963
     19          6           0        2.996688   -0.982917   -0.861958
     20          6           0        2.275041   -2.123552   -0.497644
     21          1           0        1.129752   -3.108514    1.043291
     22          1           0        1.368234   -1.238136    2.665094
     23          1           0        2.659120    0.812254    2.025092
     24          1           0        3.460886   -0.882928   -1.835581
     25          1           0        2.172615   -2.938846   -1.208172
     26          7           0        3.874094    1.260788   -0.305293
     27          8           0        4.369159    1.293605   -1.429779
     28          8           0        3.961551    2.155414    0.532939
 ---------------------------------------------------------------------

 SCF Done:  E(RHF) =  -868.339919394     A.U. after   16 cycles
 E2 =    -0.2599826360D+01 EUMP2 =    -0.87093974575371D+03

 The electronic state is 1-A.
 Alpha  occ. eigenvalues --  -20.61351 -20.61314 -20.60664 -20.60645 -15.86369
 Alpha  occ. eigenvalues --  -15.85706 -11.31495 -11.30835 -11.28051 -11.27992
 Alpha  occ. eigenvalues --  -11.27727 -11.27449 -11.27351 -11.27010 -11.26950
 Alpha  occ. eigenvalues --  -11.26915 -11.26306 -11.26176  -1.60413  -1.59746
 Alpha  occ. eigenvalues --   -1.39971  -1.39303  -1.19646  -1.18979  -1.09087
 Alpha  occ. eigenvalues --   -1.08358  -1.05005  -1.04345  -0.95964  -0.95241
 Alpha  occ. eigenvalues --   -0.86412  -0.85722  -0.82802  -0.82092  -0.77871
 Alpha  occ. eigenvalues --   -0.77215  -0.72622  -0.71920  -0.71728  -0.71083
 Alpha  occ. eigenvalues --   -0.70741  -0.69960  -0.65297  -0.64994  -0.64595
 Alpha  occ. eigenvalues --   -0.64303  -0.62347  -0.61704  -0.55512  -0.54702
 Alpha  occ. eigenvalues --   -0.53361  -0.53116  -0.52644  -0.52406  -0.49360
 Alpha  occ. eigenvalues --   -0.49342  -0.48693  -0.48655  -0.45434  -0.44763
 Alpha  occ. eigenvalues --   -0.37621  -0.36792  -0.36609  -0.35972
 Alpha virt. eigenvalues --    0.04590   0.05360   0.11044   0.11717   0.16106
 Alpha virt. eigenvalues --    0.17008   0.21219   0.22008   0.27107   0.27802
 Alpha virt. eigenvalues --    0.28009   0.28948   0.30776   0.31639   0.32109

 Mulliken charges:
               1
     1  C   -0.170168
     2  C   -0.218877
     3  C   -0.171216
     4  C    0.156248
     5  C   -0.173642
     6  C   -0.219947
     7  H    0.227785
     8  H    0.224269
     9  H    0.275134
    10  H    0.279145
    11  H    0.228758
    12  N    0.490107
    13  O   -0.468807
    14  O   -0.459781
    15  C   -0.152374
    16  C   -0.224535
    17  C   -0.178074
    18  C    0.153043
    19  C   -0.174295
    20  C   -0.215491
    21  H    0.235334
    22  H    0.222119
    23  H    0.271540
    24  H    0.274057
    25  H    0.227659
    26  N    0.487843
    27  O   -0.461148
    28  O   -0.464685
 Sum of Mulliken charges =  -0.00000

 Dipole moment (field-independent basis, Debye):
    X=             -3.9041    Y=              0.5848    Z=              1.8274  Tot=              4.3501
 Quadrupole moment (field-independent basis, Debye-Ang):
   XX=           -112.1471   YY=           -105.3804   ZZ=           -101.8477
   XY=            -28.7407   XZ=              0.8711   YZ=              0.7563

 Normal termination of Gaussian 16 at Thu May  6 00:25:18 2021.
