 Gaussian 16, Revision A.03,
 Gaussian 16:  EM64L-G16RevA.03 25-Dec-2016

 -------------
 #p 6-31g* mp2
 -------------

 ------------------------------------------------------
 Input file generated by CHIRIPA (05-May-2021 14:55:24)
 ------------------------------------------------------
 Symbolic Z-matrix:
 Charge =  0 Multiplicity = 1

                         Standard orientation:
 ---------------------------------------------------------------------
 Center     Atomic      Atomic             Coordinates (Angstroms)
 Number     Number       Type             X           Y           Z
 ---------------------------------------------------------------------
      1          6           0        3.764799   -2.157140   -0.198843
      2          6           0        2.522920   -1.732285   -0.682326
      3          6           0        2.162955   -0.382554   -0.625778
      4          6           0        3.073261    0.519272   -0.076831
      5          6           0        4.317965    0.126902    0.413116
      6          6           0        4.656785   -1.227829    0.346374
      7          1           0        4.036215   -3.207585   -0.246731
      8          1           0        1.828193   -2.451774   -1.106279
      9          1           0        1.208053   -0.026360   -0.992803
     10          1           0        4.989454    0.867582    0.830145
     11          1           0        5.621928   -1.554916    0.722615
     12          7           0        2.703375    1.950818   -0.011570
     13          8           0        3.523128    2.725523    0.476771
     14          8           0        1.600710    2.271053   -0.449994
     15          6           0       -4.510542    0.092740   -0.244675
     16          6           0       -5.885207    0.128116    0.423926
     17          6           0       -6.871980    1.043511   -0.301418
     18          1           0       -4.103973    1.112483   -0.286758
     19          1           0       -4.625103   -0.241268   -1.285207
     20          1           0       -5.767921    0.460633    1.463297
     21          1           0       -6.288467   -0.891858    0.464596
     22          1           0       -7.018460    0.710786   -1.334103
     23          1           0       -6.494956    2.070960   -0.329728
     24          1           0       -7.848159    1.053853    0.193382
     25          6           0       -3.513070   -0.818080    0.468897
     26          6           0       -2.138404   -0.853455   -0.199704
     27          6           0       -1.151631   -1.768850    0.525640
     28          1           0       -3.398509   -0.484070    1.509430
     29          1           0       -3.919638   -1.837823    0.510981
     30          1           0       -1.735144    0.166518   -0.240374
     31          1           0       -2.255690   -1.185971   -1.239075
     32          1           0       -1.528654   -2.796300    0.553950
     33          1           0       -1.005151   -1.436125    1.558326
     34          1           0       -0.175452   -1.779193    0.030840
 ---------------------------------------------------------------------

 SCF Done:  E(RHF) =  -669.534057773     A.U. after   15 cycles
 E2 =    -0.2092812066D+01 EUMP2 =    -0.67162686983978D+03

 The electronic state is 1-A.
 Alpha  occ. eigenvalues --  -20.60788 -20.60783 -15.85841 -11.31192 -11.27769
 Alpha  occ. eigenvalues --  -11.27750 -11.27509 -11.26778 -11.26759 -11.21829
 Alpha  occ. eigenvalues --  -11.21555 -11.21488 -11.21463 -11.21338 -11.20985
 Alpha  occ. eigenvalues --   -1.59862  -1.39416  -1.19378  -1.08769  -1.08505
 Alpha  occ. eigenvalues --   -1.04803  -1.03651  -0.96124  -0.95601  -0.87140
 Alpha  occ. eigenvalues --   -0.86177  -0.82455  -0.79719  -0.78293  -0.77502
 Alpha  occ. eigenvalues --   -0.72061  -0.71184  -0.70492  -0.65129  -0.65048
 Alpha  occ. eigenvalues --   -0.64788  -0.62282  -0.61032  -0.59455  -0.57714
 Alpha  occ. eigenvalues --   -0.55381  -0.55269  -0.53330  -0.52896  -0.52650
 Alpha  occ. eigenvalues --   -0.52452  -0.50026  -0.48817  -0.48814  -0.48033
 Alpha  occ. eigenvalues --   -0.46725  -0.45840  -0.45740  -0.44823  -0.43911
 Alpha  occ. eigenvalues --   -0.37354  -0.36306
 Alpha virt. eigenvalues --    0.05019   0.11237   0.16395   0.20562   0.22962
 Alpha virt. eigenvalues --    0.24107   0.26309   0.26735   0.27241   0.28002
 Alpha virt. eigenvalues --    0.29371   0.29658   0.31314   0.31626   0.32409

 Mulliken charges:
               1
     1  C   -0.171609
     2  C   -0.219065
     3  C   -0.169362
     4  C    0.155960
     5  C   -0.170938
     6  C   -0.218850
     7  H    0.225880
     8  H    0.224721
     9  H    0.280039
    10  H    0.275600
    11  H    0.223510
    12  N    0.488177
    13  O   -0.460260
    14  O   -0.461110
    15  C   -0.299364
    16  C   -0.299866
    17  C   -0.475953
    18  H    0.154274
    19  H    0.148724
    20  H    0.152765
    21  H    0.150793
    22  H    0.154768
    23  H    0.157057
    24  H    0.160132
    25  C   -0.298332
    26  C   -0.305358
    27  C   -0.480053
    28  H    0.151795
    29  H    0.148460
    30  H    0.161725
    31  H    0.148982
    32  H    0.154020
    33  H    0.160733
    34  H    0.152005
 Sum of Mulliken charges =  -0.00000

 Dipole moment (field-independent basis, Debye):
    X=              1.2754    Y=             -4.9600    Z=             -0.1809  Tot=              5.1245
 Quadrupole moment (field-independent basis, Debye-Ang):
   XX=            -83.2570   YY=           -100.3203   ZZ=            -94.3863
   XY=            -13.5138   XZ=              1.1427   YZ=              1.4836

 Normal termination of Gaussian 16 at Thu May  6 06:20:16 2021.
