 Gaussian 16, Revision A.03,
 Gaussian 16:  EM64L-G16RevA.03 25-Dec-2016

 -------------
 #p 6-31g* mp2
 -------------

 ------------------------------------------------------
 Input file generated by CHIRIPA (05-May-2021 14:51:13)
 ------------------------------------------------------
 Symbolic Z-matrix:
 Charge =  0 Multiplicity = 1

                         Standard orientation:
 ---------------------------------------------------------------------
 Center     Atomic      Atomic             Coordinates (Angstroms)
 Number     Number       Type             X           Y           Z
 ---------------------------------------------------------------------
      1          6           0        4.279908   -0.397494    0.222850
      2          6           0        3.050051    0.234315   -0.430032
      3          6           0        1.736732   -0.305232    0.137308
      4          1           0        4.240295   -1.486960    0.087058
      5          1           0        4.245336   -0.216053    1.306030
      6          1           0        3.087642    0.052928   -1.511836
      7          1           0        3.092694    1.322421   -0.292836
      8          1           0        1.672947   -0.110761    1.212814
      9          1           0        1.667866   -1.387467   -0.013113
     10          1           0        0.870533    0.159918   -0.343519
     11          6           0        5.600454    0.131724   -0.333762
     12          6           0        6.830311   -0.500085    0.319120
     13          6           0        8.143630    0.039462   -0.248220
     14          1           0        5.635027   -0.049717   -1.416942
     15          1           0        5.640067    1.221190   -0.197970
     16          1           0        6.787668   -1.588191    0.181924
     17          1           0        6.792720   -0.318698    1.400925
     18          1           0        8.212496    1.121697   -0.097799
     19          1           0        8.207415   -0.155009   -1.323726
     20          1           0        9.009830   -0.425687    0.232607
     21          6           0       -5.643725    0.274629   -0.206013
     22          6           0       -6.638467   -0.848097    0.090571
     23          6           0       -8.041569   -0.549854   -0.438721
     24          1           0       -6.013156    1.209677    0.236877
     25          1           0       -5.599864    0.438904   -1.291594
     26          1           0       -6.679408   -1.011145    1.175170
     27          1           0       -6.266530   -1.780622   -0.352913
     28          1           0       -8.021772   -0.408003   -1.524118
     29          1           0       -8.436996    0.365846    0.012648
     30          1           0       -8.736515   -1.365459   -0.215787
     31          6           0       -4.236637   -0.008859    0.316925
     32          6           0       -3.241895    1.113867    0.020341
     33          6           0       -1.838793    0.815623    0.549632
     34          1           0       -4.280498   -0.173135    1.402505
     35          1           0       -3.867206   -0.943907   -0.125965
     36          1           0       -3.613832    2.046391    0.463825
     37          1           0       -3.200954    1.276915   -1.064258
     38          1           0       -1.443367   -0.100076    0.098264
     39          1           0       -1.858590    0.673772    1.635029
     40          1           0       -1.143847    1.631229    0.326699
 ---------------------------------------------------------------------

 SCF Done:  E(RHF) =  -470.732473855     A.U. after   11 cycles
 E2 =    -0.1582512592D+01 EUMP2 =    -0.47231498644683D+03

 The electronic state is 1-A.
 Alpha  occ. eigenvalues --  -11.21591 -11.21568 -11.21567 -11.21515 -11.21390
 Alpha  occ. eigenvalues --  -11.21352 -11.21330 -11.21290 -11.21064 -11.21046
 Alpha  occ. eigenvalues --  -11.21008 -11.20879  -1.08415  -1.08371  -1.03531
 Alpha  occ. eigenvalues --   -1.03447  -0.96029  -0.95852  -0.87106  -0.86814
 Alpha  occ. eigenvalues --   -0.79669  -0.79442  -0.78230  -0.78182  -0.65048
 Alpha  occ. eigenvalues --   -0.65004  -0.60942  -0.60863  -0.59488  -0.59160
 Alpha  occ. eigenvalues --   -0.57580  -0.57526  -0.55270  -0.55198  -0.52999
 Alpha  occ. eigenvalues --   -0.52488  -0.52315  -0.52177  -0.49873  -0.49844
 Alpha  occ. eigenvalues --   -0.47890  -0.47841  -0.46604  -0.46564  -0.45774
 Alpha  occ. eigenvalues --   -0.45723  -0.45695  -0.45657  -0.43901  -0.43509
 Alpha virt. eigenvalues --    0.22564   0.22993   0.23708   0.24854   0.26590
 Alpha virt. eigenvalues --    0.26694   0.27015   0.27475   0.27608   0.29013
 Alpha virt. eigenvalues --    0.30915   0.31193   0.31406   0.31865   0.32127

 Mulliken charges:
               1
     1  C   -0.298373
     2  C   -0.299765
     3  C   -0.480176
     4  H    0.149393
     5  H    0.149362
     6  H    0.151167
     7  H    0.151295
     8  H    0.155139
     9  H    0.153254
    10  H    0.168314
    11  C   -0.298151
    12  C   -0.299554
    13  C   -0.475655
    14  H    0.149326
    15  H    0.149476
    16  H    0.151845
    17  H    0.151860
    18  H    0.155110
    19  H    0.155100
    20  H    0.160130
    21  C   -0.298239
    22  C   -0.299628
    23  C   -0.475692
    24  H    0.149619
    25  H    0.149447
    26  H    0.151923
    27  H    0.151926
    28  H    0.155151
    29  H    0.155156
    30  H    0.160223
    31  C   -0.298570
    32  C   -0.300120
    33  C   -0.477669
    34  H    0.149529
    35  H    0.149821
    36  H    0.151626
    37  H    0.151524
    38  H    0.159167
    39  H    0.155240
    40  H    0.160468
 Sum of Mulliken charges =  -0.00000

 Dipole moment (field-independent basis, Debye):
    X=             -0.0386    Y=              0.0019    Z=              0.0089  Tot=              0.0397
 Quadrupole moment (field-independent basis, Debye-Ang):
   XX=            -87.2693   YY=            -84.1610   ZZ=            -83.6818
   XY=             -0.2881   XZ=             -0.2434   YZ=              1.0701

 Normal termination of Gaussian 16 at Thu May  6 05:32:45 2021.
