 Gaussian 16, Revision A.03,
 Gaussian 16:  EM64L-G16RevA.03 25-Dec-2016

 -------------
 #p 6-31g* mp2
 -------------

 ------------------------------------------------------
 Input file generated by CHIRIPA (05-May-2021 14:53:16)
 ------------------------------------------------------
 Symbolic Z-matrix:
 Charge =  0 Multiplicity = 1

                         Standard orientation:
 ---------------------------------------------------------------------
 Center     Atomic      Atomic             Coordinates (Angstroms)
 Number     Number       Type             X           Y           Z
 ---------------------------------------------------------------------
      1          6           0       -5.320713    0.029173    0.273043
      2          6           0       -6.583429   -0.686720   -0.207612
      3          6           0       -7.852684   -0.161377    0.463805
      4          1           0       -5.234786   -0.084181    1.362406
      5          1           0       -5.421193    1.105821    0.077778
      6          1           0       -6.480018   -1.761873   -0.012758
      7          1           0       -6.666259   -0.571811   -1.295983
      8          1           0       -7.983274    0.906135    0.258952
      9          1           0       -7.795975   -0.290689    1.549467
     10          1           0       -8.743341   -0.687004    0.105604
     11          6           0       -4.043608   -0.484934   -0.389093
     12          6           0       -2.780892    0.230960    0.091562
     13          6           0       -1.511637   -0.294384   -0.579855
     14          1           0       -3.943128   -1.561582   -0.193829
     15          1           0       -4.129535   -0.371580   -1.478456
     16          1           0       -2.698063    0.116050    1.179933
     17          1           0       -2.884304    1.306113   -0.103292
     18          1           0       -1.568347   -0.165072   -1.665518
     19          1           0       -1.381047   -1.361896   -0.375002
     20          1           0       -0.620980    0.231243   -0.221654
     21          6           0        1.703857    1.768229   -0.091634
     22          6           0        2.186647    1.358263    1.155508
     23          6           0        3.268785    0.477468    1.243380
     24          6           0        3.846852    0.024298    0.058574
     25          6           0        3.388659    0.414416   -1.198868
     26          6           0        2.305344    1.295830   -1.262777
     27          1           0        0.862768    2.452693   -0.150589
     28          1           0        1.721486    1.723517    2.066694
     29          1           0        3.662683    0.143902    2.195744
     30          1           0        3.873025    0.033265   -2.089671
     31          1           0        1.932513    1.612518   -2.232700
     32          7           0        4.993087   -0.908490    0.138916
     33          8           0        5.484911   -1.293341   -0.919684
     34          8           0        5.377976   -1.237093    1.258967
 ---------------------------------------------------------------------

 SCF Done:  E(RHF) =  -669.534985903     A.U. after   15 cycles
 E2 =    -0.2091884754D+01 EUMP2 =    -0.67162687065634D+03

 The electronic state is 1-A.
 Alpha  occ. eigenvalues --  -20.60783 -20.60777 -15.85837 -11.31220 -11.27797
 Alpha  occ. eigenvalues --  -11.27787 -11.27536 -11.26820 -11.26802 -11.22178
 Alpha  occ. eigenvalues --  -11.21931 -11.21838 -11.21759 -11.21519 -11.21363
 Alpha  occ. eigenvalues --   -1.59858  -1.39411  -1.19406  -1.08870  -1.08800
 Alpha  occ. eigenvalues --   -1.04804  -1.03962  -0.96404  -0.95629  -0.87414
 Alpha  occ. eigenvalues --   -0.86203  -0.82457  -0.80031  -0.78673  -0.77493
 Alpha  occ. eigenvalues --   -0.72056  -0.71181  -0.70532  -0.65494  -0.65057
 Alpha  occ. eigenvalues --   -0.64804  -0.62147  -0.61359  -0.59818  -0.58042
 Alpha  occ. eigenvalues --   -0.55681  -0.55317  -0.53553  -0.52902  -0.52891
 Alpha  occ. eigenvalues --   -0.52584  -0.50336  -0.48816  -0.48809  -0.48343
 Alpha  occ. eigenvalues --   -0.47072  -0.46213  -0.46137  -0.44813  -0.44226
 Alpha  occ. eigenvalues --   -0.37300  -0.36406
 Alpha virt. eigenvalues --    0.05007   0.11225   0.16425   0.20971   0.22558
 Alpha virt. eigenvalues --    0.24031   0.26195   0.26893   0.27206   0.27430
 Alpha virt. eigenvalues --    0.28809   0.30606   0.30994   0.31640   0.32203

 Mulliken charges:
               1
     1  C   -0.298371
     2  C   -0.299949
     3  C   -0.475879
     4  H    0.149858
     5  H    0.148556
     6  H    0.152993
     7  H    0.152197
     8  H    0.154941
     9  H    0.155499
    10  H    0.161348
    11  C   -0.298217
    12  C   -0.299577
    13  C   -0.482956
    14  H    0.151679
    15  H    0.149836
    16  H    0.151625
    17  H    0.146663
    18  H    0.152217
    19  H    0.159302
    20  H    0.163201
    21  C   -0.173263
    22  C   -0.218450
    23  C   -0.170535
    24  C    0.158826
    25  C   -0.170783
    26  C   -0.215925
    27  H    0.227646
    28  H    0.224082
    29  H    0.275845
    30  H    0.275909
    31  H    0.224226
    32  N    0.488064
    33  O   -0.460244
    34  O   -0.460364
 Sum of Mulliken charges =  -0.00000

 Dipole moment (field-independent basis, Debye):
    X=             -4.0285    Y=              3.2602    Z=             -0.2836  Tot=              5.1902
 Quadrupole moment (field-independent basis, Debye-Ang):
   XX=           -127.3480   YY=            -94.9168   ZZ=            -89.3816
   XY=             12.9887   XZ=             -1.1886   YZ=             -0.3155

 Normal termination of Gaussian 16 at Wed May  5 21:57:24 2021.
