 Gaussian 16, Revision A.03,
 Gaussian 16:  EM64L-G16RevA.03 25-Dec-2016

 -------------
 #p 6-31g* mp2
 -------------

 ------------------------------------------------------
 Input file generated by CHIRIPA (05-May-2021 14:53:15)
 ------------------------------------------------------
 Symbolic Z-matrix:
 Charge =  0 Multiplicity = 1

                         Standard orientation:
 ---------------------------------------------------------------------
 Center     Atomic      Atomic             Coordinates (Angstroms)
 Number     Number       Type             X           Y           Z
 ---------------------------------------------------------------------
      1          6           0       -3.001907    0.904729    0.136047
      2          6           0       -3.653666    2.126462    0.784556
      3          6           0       -2.669775    3.276824    1.000011
      4          1           0       -2.169051    0.563635    0.766088
      5          1           0       -2.564330    1.199573   -0.827794
      6          1           0       -4.091088    1.829097    1.746248
      7          1           0       -4.485188    2.464571    0.152994
      8          1           0       -2.241847    3.601524    0.046046
      9          1           0       -1.845508    2.962438    1.648352
     10          1           0       -3.156708    4.139863    1.464682
     11          6           0       -3.972812   -0.253651   -0.085818
     12          6           0       -3.321053   -1.475384   -0.734326
     13          6           0       -4.304944   -2.625746   -0.949781
     14          1           0       -4.410389   -0.548495    0.878023
     15          1           0       -4.805668    0.087442   -0.715859
     16          1           0       -2.489531   -1.813493   -0.102765
     17          1           0       -2.883631   -1.178019   -1.696018
     18          1           0       -5.129211   -2.311361   -1.598123
     19          1           0       -4.732872   -2.950446    0.004184
     20          1           0       -3.818011   -3.488785   -1.414453
     21          6           0        1.707138   -2.320227    1.011376
     22          6           0        0.942220   -1.511163    0.164713
     23          6           0        1.495548   -0.364141   -0.412102
     24          6           0        2.822855   -0.054604   -0.119294
     25          6           0        3.610648   -0.840623    0.720257
     26          6           0        3.036566   -1.982970    1.285961
     27          1           0        1.269237   -3.209446    1.455145
     28          1           0       -0.090488   -1.770632   -0.050312
     29          1           0        0.926041    0.279920   -1.071090
     30          1           0        4.637410   -0.556163    0.915861
     31          1           0        3.632986   -2.609443    1.943121
     32          7           0        3.419624    1.157223   -0.724062
     33          8           0        4.591255    1.408137   -0.450273
     34          8           0        2.704441    1.833191   -1.460415
 ---------------------------------------------------------------------

 SCF Done:  E(RHF) =  -669.535741348     A.U. after   15 cycles
 E2 =    -0.2091518166D+01 EUMP2 =    -0.67162725951389D+03

 The electronic state is 1-A.
 Alpha  occ. eigenvalues --  -20.60717 -20.60711 -15.85769 -11.31124 -11.27702
 Alpha  occ. eigenvalues --  -11.27677 -11.27437 -11.26718 -11.26655 -11.22569
 Alpha  occ. eigenvalues --  -11.22050 -11.21964 -11.21906 -11.21824 -11.21198
 Alpha  occ. eigenvalues --   -1.59792  -1.39346  -1.19297  -1.09051  -1.08695
 Alpha  occ. eigenvalues --   -1.04694  -1.04090  -0.96498  -0.95531  -0.87518
 Alpha  occ. eigenvalues --   -0.86097  -0.82364  -0.80205  -0.78861  -0.77401
 Alpha  occ. eigenvalues --   -0.71988  -0.71115  -0.70409  -0.65704  -0.64947
 Alpha  occ. eigenvalues --   -0.64691  -0.62064  -0.61464  -0.59901  -0.58119
 Alpha  occ. eigenvalues --   -0.55765  -0.55207  -0.53215  -0.53035  -0.52943
 Alpha  occ. eigenvalues --   -0.52757  -0.50439  -0.48762  -0.48743  -0.48464
 Alpha  occ. eigenvalues --   -0.47236  -0.46371  -0.46281  -0.44753  -0.44347
 Alpha  occ. eigenvalues --   -0.37284  -0.36294
 Alpha virt. eigenvalues --    0.05111   0.11335   0.16551   0.19833   0.22737
 Alpha virt. eigenvalues --    0.23682   0.24940   0.25730   0.27487   0.28272
 Alpha virt. eigenvalues --    0.29706   0.29999   0.31137   0.31415   0.32103

 Mulliken charges:
               1
     1  C   -0.301506
     2  C   -0.300045
     3  C   -0.476818
     4  H    0.147150
     5  H    0.150268
     6  H    0.152101
     7  H    0.153552
     8  H    0.159206
     9  H    0.156177
    10  H    0.161855
    11  C   -0.297510
    12  C   -0.306390
    13  C   -0.475234
    14  H    0.151053
    15  H    0.153638
    16  H    0.144290
    17  H    0.153375
    18  H    0.159581
    19  H    0.156669
    20  H    0.160111
    21  C   -0.173157
    22  C   -0.227103
    23  C   -0.173826
    24  C    0.158706
    25  C   -0.171228
    26  C   -0.218545
    27  H    0.225464
    28  H    0.236160
    29  H    0.276708
    30  H    0.275348
    31  H    0.223075
    32  N    0.488110
    33  O   -0.460771
    34  O   -0.460465
 Sum of Mulliken charges =  -0.00000

 Dipole moment (field-independent basis, Debye):
    X=             -2.2948    Y=             -4.1785    Z=              2.1137  Tot=              5.2148
 Quadrupole moment (field-independent basis, Debye-Ang):
   XX=           -102.6343   YY=            -95.2152   ZZ=            -94.0049
   XY=            -13.7117   XZ=              8.8623   YZ=             -0.6813

 Normal termination of Gaussian 16 at Thu May  6 05:52:32 2021.
