 Gaussian 16, Revision A.03,
 Gaussian 16:  EM64L-G16RevA.03 25-Dec-2016

 -------------
 #p 6-31g* mp2
 -------------

 ------------------------------------------------------
 Input file generated by CHIRIPA (05-May-2021 14:53:13)
 ------------------------------------------------------
 Symbolic Z-matrix:
 Charge =  0 Multiplicity = 1

                         Standard orientation:
 ---------------------------------------------------------------------
 Center     Atomic      Atomic             Coordinates (Angstroms)
 Number     Number       Type             X           Y           Z
 ---------------------------------------------------------------------
      1          6           0        4.292720    0.065749    0.451816
      2          6           0        3.008408    0.474625   -0.270229
      3          6           0        1.837149    0.696920    0.687127
      4          1           0        4.106833   -0.852555    1.025497
      5          1           0        4.557512    0.842547    1.182477
      6          1           0        2.746874   -0.302057   -1.000285
      7          1           0        3.197426    1.391955   -0.842411
      8          1           0        2.073251    1.486424    1.407918
      9          1           0        1.620139   -0.217213    1.249148
     10          1           0        0.929272    0.988454    0.149885
     11          6           0        5.472616   -0.160117   -0.491877
     12          6           0        6.756927   -0.568993    0.230168
     13          6           0        7.928187   -0.791289   -0.727188
     14          1           0        5.207823   -0.936915   -1.222538
     15          1           0        5.658502    0.758186   -1.065559
     16          1           0        6.567909   -1.486324    0.802350
     17          1           0        7.018461    0.207689    0.960223
     18          1           0        8.145196    0.122845   -1.289209
     19          1           0        7.692084   -1.580793   -1.447979
     20          1           0        8.836063   -1.082822   -0.189946
     21          6           0       -1.878093    1.597826    0.439114
     22          6           0       -2.915854    1.985468   -0.414882
     23          6           0       -3.993794    1.128694   -0.656816
     24          6           0       -4.001797   -0.114046   -0.025290
     25          6           0       -2.982870   -0.528998    0.830802
     26          6           0       -1.914849    0.344041    1.058139
     27          1           0       -1.044577    2.269707    0.621385
     28          1           0       -2.889955    2.958578   -0.896992
     29          1           0       -4.810445    1.403436   -1.313333
     30          1           0       -3.036576   -1.505318    1.296992
     31          1           0       -1.110301    0.040335    1.721847
     32          7           0       -5.137713   -1.029683   -0.273688
     33          8           0       -5.121218   -2.119241    0.294844
     34          8           0       -6.023031   -0.640466   -1.032213
 ---------------------------------------------------------------------

 SCF Done:  E(RHF) =  -669.534731122     A.U. after   15 cycles
 E2 =    -0.2091964162D+01 EUMP2 =    -0.67162669528388D+03

 The electronic state is 1-A.
 Alpha  occ. eigenvalues --  -20.60735 -20.60729 -15.85787 -11.31149 -11.27710
 Alpha  occ. eigenvalues --  -11.27691 -11.27406 -11.26728 -11.26673 -11.22425
 Alpha  occ. eigenvalues --  -11.22200 -11.22035 -11.22019 -11.21874 -11.21414
 Alpha  occ. eigenvalues --   -1.59810  -1.39364  -1.19315  -1.09050  -1.08712
 Alpha  occ. eigenvalues --   -1.04714  -1.04193  -0.96684  -0.95546  -0.87722
 Alpha  occ. eigenvalues --   -0.86099  -0.82379  -0.80279  -0.78821  -0.77423
 Alpha  occ. eigenvalues --   -0.72005  -0.71133  -0.70448  -0.65675  -0.64969
 Alpha  occ. eigenvalues --   -0.64726  -0.62080  -0.61577  -0.60066  -0.58266
 Alpha  occ. eigenvalues --   -0.55979  -0.55226  -0.53499  -0.53163  -0.52851
 Alpha  occ. eigenvalues --   -0.52755  -0.50601  -0.48766  -0.48760  -0.48571
 Alpha  occ. eigenvalues --   -0.47276  -0.46375  -0.46270  -0.44770  -0.44439
 Alpha  occ. eigenvalues --   -0.37259  -0.36307
 Alpha virt. eigenvalues --    0.05065   0.11281   0.16491   0.20666   0.22402
 Alpha virt. eigenvalues --    0.23913   0.25635   0.26183   0.26999   0.27605
 Alpha virt. eigenvalues --    0.29013   0.29651   0.30962   0.31593   0.32241

 Mulliken charges:
               1
     1  C   -0.299290
     2  C   -0.298941
     3  C   -0.485887
     4  H    0.150592
     5  H    0.149703
     6  H    0.156072
     7  H    0.153013
     8  H    0.154343
     9  H    0.154057
    10  H    0.161096
    11  C   -0.298875
    12  C   -0.300062
    13  C   -0.476048
    14  H    0.151041
    15  H    0.150167
    16  H    0.152651
    17  H    0.152094
    18  H    0.155515
    19  H    0.156076
    20  H    0.161471
    21  C   -0.174483
    22  C   -0.219465
    23  C   -0.171334
    24  C    0.158756
    25  C   -0.172234
    26  C   -0.217598
    27  H    0.227949
    28  H    0.223236
    29  H    0.275370
    30  H    0.275351
    31  H    0.228668
    32  N    0.488057
    33  O   -0.460514
    34  O   -0.460546
 Sum of Mulliken charges =  -0.00000

 Dipole moment (field-independent basis, Debye):
    X=              4.1821    Y=              3.1983    Z=              0.8405  Tot=              5.3316
 Quadrupole moment (field-independent basis, Debye-Ang):
   XX=           -126.7728   YY=            -92.6595   ZZ=            -93.8415
   XY=            -14.7255   XZ=             -1.7569   YZ=             -2.6382

 Normal termination of Gaussian 16 at Wed May  5 17:02:18 2021.
