 Gaussian 16, Revision A.03,
 Gaussian 16:  EM64L-G16RevA.03 25-Dec-2016

 -------------
 #p 6-31g* mp2
 -------------

 ------------------------------------------------------
 Input file generated by CHIRIPA (05-May-2021 14:53:17)
 ------------------------------------------------------
 Symbolic Z-matrix:
 Charge =  0 Multiplicity = 1

                         Standard orientation:
 ---------------------------------------------------------------------
 Center     Atomic      Atomic             Coordinates (Angstroms)
 Number     Number       Type             X           Y           Z
 ---------------------------------------------------------------------
      1          6           0        3.516101   -0.623067   -0.041714
      2          6           0        3.120207   -1.545426    1.111761
      3          6           0        3.942031   -2.834290    1.146837
      4          1           0        3.396200   -1.162033   -0.991495
      5          1           0        4.583322   -0.376281    0.045065
      6          1           0        2.053727   -1.789284    1.023611
      7          1           0        3.240881   -1.004138    2.058894
      8          1           0        5.007533   -2.608855    1.258581
      9          1           0        3.813634   -3.398462    0.217415
     10          1           0        3.642534   -3.478870    1.979110
     11          6           0        2.703385    0.669559   -0.090089
     12          6           0        3.099279    1.591919   -1.243564
     13          6           0        2.277455    2.880782   -1.278640
     14          1           0        1.636164    0.422774   -0.176869
     15          1           0        2.823286    1.208526    0.859692
     16          1           0        2.978605    1.050631   -2.190697
     17          1           0        4.165759    1.835776   -1.155414
     18          1           0        2.405852    3.444954   -0.349218
     19          1           0        1.211953    2.655347   -1.390384
     20          1           0        2.576952    3.525362   -2.110913
     21          6           0       -1.924061    1.725864    1.803298
     22          6           0       -1.018664    1.496718    0.762015
     23          6           0       -1.288351    0.532905   -0.214140
     24          6           0       -2.478349   -0.186767   -0.117873
     25          6           0       -3.400318    0.018426    0.907388
     26          6           0       -3.109908    0.987288    1.872539
     27          1           0       -1.706513    2.476538    2.557325
     28          1           0       -0.096933    2.068809    0.705719
     29          1           0       -0.604981    0.335117   -1.031026
     30          1           0       -4.310852   -0.567640    0.936919
     31          1           0       -3.814892    1.163107    2.680084
     32          7           0       -2.774825   -1.209786   -1.145460
     33          8           0       -3.830216   -1.830496   -1.038203
     34          8           0       -1.946197   -1.371546   -2.038683
 ---------------------------------------------------------------------

 SCF Done:  E(RHF) =  -669.534464946     A.U. after   15 cycles
 E2 =    -0.2093645907D+01 EUMP2 =    -0.67162811085267D+03

 The electronic state is 1-A.
 Alpha  occ. eigenvalues --  -20.60770 -20.60765 -15.85821 -11.31172 -11.27728
 Alpha  occ. eigenvalues --  -11.27709 -11.27439 -11.26750 -11.26652 -11.22272
 Alpha  occ. eigenvalues --  -11.22098 -11.21994 -11.21863 -11.21762 -11.21204
 Alpha  occ. eigenvalues --   -1.59845  -1.39399  -1.19334  -1.08987  -1.08724
 Alpha  occ. eigenvalues --   -1.04742  -1.04038  -0.96517  -0.95571  -0.87532
 Alpha  occ. eigenvalues --   -0.86126  -0.82431  -0.80132  -0.78819  -0.77418
 Alpha  occ. eigenvalues --   -0.72041  -0.71168  -0.70456  -0.65660  -0.64961
 Alpha  occ. eigenvalues --   -0.64733  -0.62169  -0.61355  -0.59872  -0.58126
 Alpha  occ. eigenvalues --   -0.55841  -0.55227  -0.53204  -0.53130  -0.52934
 Alpha  occ. eigenvalues --   -0.52746  -0.50460  -0.48804  -0.48799  -0.48399
 Alpha  occ. eigenvalues --   -0.47145  -0.46284  -0.46196  -0.44808  -0.44290
 Alpha  occ. eigenvalues --   -0.37306  -0.36295
 Alpha virt. eigenvalues --    0.05022   0.11299   0.16431   0.19661   0.22734
 Alpha virt. eigenvalues --    0.23787   0.25179   0.26305   0.27222   0.28414
 Alpha virt. eigenvalues --    0.29708   0.30481   0.31000   0.31428   0.32325

 Mulliken charges:
               1
     1  C   -0.298377
     2  C   -0.300609
     3  C   -0.476357
     4  H    0.154861
     5  H    0.150802
     6  H    0.154971
     7  H    0.149880
     8  H    0.154762
     9  H    0.158501
    10  H    0.161459
    11  C   -0.306940
    12  C   -0.300059
    13  C   -0.481787
    14  H    0.147816
    15  H    0.146768
    16  H    0.157770
    17  H    0.155678
    18  H    0.152644
    19  H    0.150179
    20  H    0.167707
    21  C   -0.172454
    22  C   -0.220065
    23  C   -0.176940
    24  C    0.158611
    25  C   -0.171562
    26  C   -0.218110
    27  H    0.225790
    28  H    0.233298
    29  H    0.275988
    30  H    0.275427
    31  H    0.223344
    32  N    0.488498
    33  O   -0.460291
    34  O   -0.461203
 Sum of Mulliken charges =  -0.00000

 Dipole moment (field-independent basis, Debye):
    X=              1.1963    Y=              3.5449    Z=              3.5795  Tot=              5.1779
 Quadrupole moment (field-independent basis, Debye-Ang):
   XX=            -95.6344   YY=            -97.1370   ZZ=            -94.6445
   XY=             -7.4281   XZ=            -11.5062   YZ=             -1.2527

 Normal termination of Gaussian 16 at Thu May  6 09:07:22 2021.
