 Gaussian 16, Revision A.03,
 Gaussian 16:  EM64L-G16RevA.03 25-Dec-2016

 -------------
 #p 6-31g* mp2
 -------------

 ------------------------------------------------------
 Input file generated by CHIRIPA (05-May-2021 14:55:21)
 ------------------------------------------------------
 Symbolic Z-matrix:
 Charge =  0 Multiplicity = 1

                         Standard orientation:
 ---------------------------------------------------------------------
 Center     Atomic      Atomic             Coordinates (Angstroms)
 Number     Number       Type             X           Y           Z
 ---------------------------------------------------------------------
      1          6           0        1.076109   -1.871298    0.399663
      2          6           0        1.211480   -1.282201   -0.861750
      3          6           0        2.165759   -0.284196   -1.080575
      4          6           0        2.971622    0.102249   -0.010745
      5          6           0        2.860898   -0.465627    1.257540
      6          6           0        1.899798   -1.461852    1.453424
      7          1           0        0.332153   -2.645881    0.560741
      8          1           0        0.573161   -1.598194   -1.681959
      9          1           0        2.291867    0.188677   -2.046963
     10          1           0        3.511628   -0.129681    2.055731
     11          1           0        1.796900   -1.917590    2.434117
     12          7           0        3.985485    1.157850   -0.230262
     13          8           0        4.683275    1.480621    0.728667
     14          8           0        4.063164    1.642471   -1.357092
     15          6           0       -3.737776   -0.653044   -0.114557
     16          6           0       -2.478545   -1.511018   -0.241845
     17          6           0       -2.790943   -2.998802   -0.405251
     18          1           0       -4.326296   -1.002151    0.744927
     19          1           0       -4.365513   -0.801300   -1.004142
     20          1           0       -1.852715   -1.360130    0.647078
     21          1           0       -1.892859   -1.159705   -1.101011
     22          1           0       -3.395493   -3.169281   -1.301944
     23          1           0       -3.355120   -3.370844    0.456078
     24          1           0       -1.876540   -3.593590   -0.494445
     25          6           0       -3.441808    0.836666    0.049447
     26          6           0       -4.701039    1.694639    0.176735
     27          6           0       -4.388642    3.182423    0.340141
     28          1           0       -2.814071    0.984922    0.939031
     29          1           0       -2.853288    1.185772   -0.810037
     30          1           0       -5.286725    1.343327    1.035901
     31          1           0       -5.326870    1.543752   -0.712189
     32          1           0       -3.824464    3.554465   -0.521189
     33          1           0       -3.784092    3.352902    1.236834
     34          1           0       -5.303044    3.777211    0.429335
 ---------------------------------------------------------------------

 SCF Done:  E(RHF) =  -669.534265430     A.U. after   15 cycles
 E2 =    -0.2093000914D+01 EUMP2 =    -0.67162726634371D+03

 The electronic state is 1-A.
 Alpha  occ. eigenvalues --  -20.60726 -20.60720 -15.85780 -11.31131 -11.27713
 Alpha  occ. eigenvalues --  -11.27699 -11.27407 -11.26716 -11.26684 -11.22599
 Alpha  occ. eigenvalues --  -11.22263 -11.22112 -11.22005 -11.21890 -11.21349
 Alpha  occ. eigenvalues --   -1.59802  -1.39356  -1.19310  -1.09131  -1.08696
 Alpha  occ. eigenvalues --   -1.04717  -1.04253  -0.96698  -0.95538  -0.87700
 Alpha  occ. eigenvalues --   -0.86115  -0.82380  -0.80353  -0.78879  -0.77421
 Alpha  occ. eigenvalues --   -0.71998  -0.71125  -0.70443  -0.65758  -0.64962
 Alpha  occ. eigenvalues --   -0.64736  -0.62100  -0.61626  -0.60126  -0.58307
 Alpha  occ. eigenvalues --   -0.55970  -0.55162  -0.53414  -0.53168  -0.52984
 Alpha  occ. eigenvalues --   -0.52812  -0.50607  -0.48772  -0.48754  -0.48624
 Alpha  occ. eigenvalues --   -0.47349  -0.46418  -0.46305  -0.44765  -0.44486
 Alpha  occ. eigenvalues --   -0.37221  -0.36308
 Alpha virt. eigenvalues --    0.05089   0.11269   0.16488   0.19444   0.22593
 Alpha virt. eigenvalues --    0.24051   0.25332   0.26106   0.26678   0.27604
 Alpha virt. eigenvalues --    0.29251   0.29758   0.30818   0.31370   0.31838

 Mulliken charges:
               1
     1  C   -0.170303
     2  C   -0.217403
     3  C   -0.172074
     4  C    0.158271
     5  C   -0.170523
     6  C   -0.221347
     7  H    0.230622
     8  H    0.223696
     9  H    0.275171
    10  H    0.275309
    11  H    0.223181
    12  N    0.488098
    13  O   -0.460680
    14  O   -0.460676
    15  C   -0.298340
    16  C   -0.304651
    17  C   -0.479894
    18  H    0.151057
    19  H    0.151097
    20  H    0.152448
    21  H    0.149533
    22  H    0.161167
    23  H    0.159920
    24  H    0.150634
    25  C   -0.298656
    26  C   -0.300331
    27  C   -0.476141
    28  H    0.151180
    29  H    0.150566
    30  H    0.152183
    31  H    0.152389
    32  H    0.156622
    33  H    0.156304
    34  H    0.161569
 Sum of Mulliken charges =  -0.00000

 Dipole moment (field-independent basis, Debye):
    X=             -3.7538    Y=             -3.6395    Z=              0.7905  Tot=              5.2879
 Quadrupole moment (field-independent basis, Debye-Ang):
   XX=           -115.9004   YY=            -97.4950   ZZ=            -89.2335
   XY=            -11.7504   XZ=              3.9357   YZ=             -0.5907

 Normal termination of Gaussian 16 at Thu May  6 15:48:54 2021.
