 Gaussian 16, Revision A.03,
 Gaussian 16:  EM64L-G16RevA.03 25-Dec-2016

 -------------
 #p 6-31g* mp2
 -------------

 ------------------------------------------------------
 Input file generated by CHIRIPA (05-May-2021 14:53:15)
 ------------------------------------------------------
 Symbolic Z-matrix:
 Charge =  0 Multiplicity = 1

                         Standard orientation:
 ---------------------------------------------------------------------
 Center     Atomic      Atomic             Coordinates (Angstroms)
 Number     Number       Type             X           Y           Z
 ---------------------------------------------------------------------
      1          6           0        2.925781   -0.869463    0.521125
      2          6           0        2.212276   -1.991922   -0.233184
      3          6           0        1.209687   -2.746809    0.640175
      4          1           0        3.442880   -1.293172    1.392919
      5          1           0        2.177253   -0.166792    0.912731
      6          1           0        2.962008   -2.691523   -0.624432
      7          1           0        1.696973   -1.565520   -1.103391
      8          1           0        0.440366   -2.066472    1.019499
      9          1           0        1.712589   -3.198873    1.501179
     10          1           0        0.711155   -3.544735    0.081032
     11          6           0        3.931249   -0.105562   -0.338652
     12          6           0        4.644754    1.016896    0.415657
     13          6           0        5.647342    1.771784   -0.457702
     14          1           0        4.679777   -0.808233   -0.730258
     15          1           0        3.414150    0.318146   -1.210446
     16          1           0        5.160057    0.590494    1.285864
     17          1           0        3.895022    1.716498    0.806905
     18          1           0        5.144441    2.223848   -1.318706
     19          1           0        6.416663    1.091446   -0.837026
     20          1           0        6.145874    2.569709    0.101441
     21          6           0       -2.246802    2.855149    0.168463
     22          6           0       -1.185556    1.981135   -0.089178
     23          6           0       -1.413066    0.608316   -0.223910
     24          6           0       -2.720265    0.141665   -0.094456
     25          6           0       -3.798518    0.987137    0.162134
     26          6           0       -3.547602    2.356240    0.293077
     27          1           0       -2.060976    3.920145    0.271655
     28          1           0       -0.174303    2.365781   -0.186445
     29          1           0       -0.609934   -0.090667   -0.423459
     30          1           0       -4.795689    0.574051    0.253932
     31          1           0       -4.373713    3.032667    0.493156
     32          7           0       -2.973509   -1.309710   -0.235085
     33          8           0       -4.134351   -1.695797   -0.116678
     34          8           0       -2.006364   -2.033731   -0.461054
 ---------------------------------------------------------------------

 SCF Done:  E(RHF) =  -669.535307990     A.U. after   15 cycles
 E2 =    -0.2092549954D+01 EUMP2 =    -0.67162785794398D+03

 The electronic state is 1-A.
 Alpha  occ. eigenvalues --  -20.60846 -20.60839 -15.85881 -11.31246 -11.27811
 Alpha  occ. eigenvalues --  -11.27804 -11.27554 -11.26832 -11.26822 -11.21928
 Alpha  occ. eigenvalues --  -11.21643 -11.21546 -11.21430 -11.21376 -11.20336
 Alpha  occ. eigenvalues --   -1.59915  -1.39470  -1.19418  -1.08815  -1.08579
 Alpha  occ. eigenvalues --   -1.04821  -1.03536  -0.95952  -0.95639  -0.86950
 Alpha  occ. eigenvalues --   -0.86220  -0.82483  -0.79613  -0.78375  -0.77531
 Alpha  occ. eigenvalues --   -0.72114  -0.71234  -0.70531  -0.65279  -0.65073
 Alpha  occ. eigenvalues --   -0.64807  -0.62209  -0.60894  -0.59344  -0.57537
 Alpha  occ. eigenvalues --   -0.55346  -0.55222  -0.53149  -0.52904  -0.52555
 Alpha  occ. eigenvalues --   -0.52356  -0.49955  -0.48867  -0.48822  -0.47895
 Alpha  occ. eigenvalues --   -0.46695  -0.45895  -0.45876  -0.44804  -0.43779
 Alpha  occ. eigenvalues --   -0.37398  -0.36421
 Alpha virt. eigenvalues --    0.04968   0.11180   0.16459   0.19228   0.22986
 Alpha virt. eigenvalues --    0.23655   0.25788   0.26881   0.27788   0.28277
 Alpha virt. eigenvalues --    0.29902   0.30498   0.31482   0.31697   0.32189

 Mulliken charges:
               1
     1  C   -0.298309
     2  C   -0.305054
     3  C   -0.471766
     4  H    0.152662
     5  H    0.139788
     6  H    0.153599
     7  H    0.148219
     8  H    0.156615
     9  H    0.149270
    10  H    0.174340
    11  C   -0.297691
    12  C   -0.298623
    13  C   -0.475571
    14  H    0.152571
    15  H    0.145243
    16  H    0.154128
    17  H    0.146425
    18  H    0.153497
    19  H    0.157221
    20  H    0.160348
    21  C   -0.170379
    22  C   -0.220925
    23  C   -0.176969
    24  C    0.157054
    25  C   -0.170187
    26  C   -0.218733
    27  H    0.225901
    28  H    0.223986
    29  H    0.285482
    30  H    0.275783
    31  H    0.223733
    32  N    0.489334
    33  O   -0.459809
    34  O   -0.461181
 Sum of Mulliken charges =  -0.00000

 Dipole moment (field-independent basis, Debye):
    X=              0.8042    Y=              4.9502    Z=              0.4814  Tot=              5.0381
 Quadrupole moment (field-independent basis, Debye-Ang):
   XX=            -94.7050   YY=            -93.2093   ZZ=            -95.9132
   XY=            -15.9405   XZ=             -1.7867   YZ=             -0.0490

 Normal termination of Gaussian 16 at Thu May  6 15:27:25 2021.
