 Gaussian 16, Revision A.03,
 Gaussian 16:  EM64L-G16RevA.03 25-Dec-2016

 -------------
 #p 6-31g* mp2
 -------------

 ------------------------------------------------------
 Input file generated by CHIRIPA (05-May-2021 14:51:11)
 ------------------------------------------------------
 Symbolic Z-matrix:
 Charge =  0 Multiplicity = 1

                         Standard orientation:
 ---------------------------------------------------------------------
 Center     Atomic      Atomic             Coordinates (Angstroms)
 Number     Number       Type             X           Y           Z
 ---------------------------------------------------------------------
      1          6           0        3.294477    1.083303    0.015539
      2          6           0        2.347620    2.270914    0.191684
      3          6           0        3.087435    3.602836    0.319943
      4          1           0        3.982691    1.041222    0.870837
      5          1           0        3.914482    1.246826   -0.876789
      6          1           0        1.728627    2.104550    1.082631
      7          1           0        1.661455    2.310058   -0.664038
      8          1           0        3.691808    3.795301   -0.572409
      9          1           0        3.759362    3.588625    1.184184
     10          1           0        2.391483    4.438224    0.444997
     11          6           0        2.569768   -0.255250   -0.114080
     12          6           0        3.516624   -1.442861   -0.290225
     13          6           0        2.776809   -2.774783   -0.418484
     14          1           0        1.949763   -0.418773    0.778248
     15          1           0        1.881553   -0.213169   -0.969378
     16          1           0        4.202790   -1.482006    0.565497
     17          1           0        4.135617   -1.276497   -1.181172
     18          1           0        2.104883   -2.760572   -1.282725
     19          1           0        2.172437   -2.967248    0.473868
     20          1           0        3.472762   -3.610171   -0.543538
     21          6           0       -3.072054    0.277971   -0.242260
     22          6           0       -4.454717    0.820611    0.120743
     23          6           0       -4.719855    2.205809   -0.469783
     24          1           0       -2.305082    0.981252    0.110013
     25          1           0       -2.978198    0.235312   -1.336229
     26          1           0       -4.546445    0.860932    1.213709
     27          1           0       -5.218479    0.115864   -0.232266
     28          1           0       -4.655525    2.177581   -1.562333
     29          1           0       -3.979673    2.926883   -0.108143
     30          1           0       -5.713791    2.574617   -0.197875
     31          6           0       -2.792190   -1.106024    0.340801
     32          6           0       -1.409528   -1.648664   -0.022201
     33          6           0       -1.144389   -3.033863    0.568324
     34          1           0       -2.886047   -1.063365    1.434769
     35          1           0       -3.559162   -1.809304   -0.011471
     36          1           0       -0.645765   -0.943916    0.330807
     37          1           0       -1.317799   -1.688984   -1.115169
     38          1           0       -1.884571   -3.754935    0.206683
     39          1           0       -1.208719   -3.005634    1.660874
     40          1           0       -0.150454   -3.402670    0.296417
 ---------------------------------------------------------------------

 SCF Done:  E(RHF) =  -470.732773510     A.U. after   11 cycles
 E2 =    -0.1583745541D+01 EUMP2 =    -0.47231651905060D+03

 The electronic state is 1-A.
 Alpha  occ. eigenvalues --  -11.21635 -11.21634 -11.21566 -11.21474 -11.21427
 Alpha  occ. eigenvalues --  -11.21367 -11.21345 -11.21282 -11.21096 -11.21095
 Alpha  occ. eigenvalues --  -11.21046 -11.20910  -1.08467  -1.08358  -1.03578
 Alpha  occ. eigenvalues --   -1.03443  -0.96034  -0.95893  -0.87079  -0.86884
 Alpha  occ. eigenvalues --   -0.79634  -0.79527  -0.78347  -0.78105  -0.65107
 Alpha  occ. eigenvalues --   -0.64983  -0.60988  -0.60840  -0.59502  -0.59207
 Alpha  occ. eigenvalues --   -0.57763  -0.57391  -0.55311  -0.55194  -0.52857
 Alpha  occ. eigenvalues --   -0.52700  -0.52450  -0.52096  -0.49968  -0.49834
 Alpha  occ. eigenvalues --   -0.47948  -0.47787  -0.46668  -0.46598  -0.45991
 Alpha  occ. eigenvalues --   -0.45773  -0.45642  -0.45399  -0.43815  -0.43689
 Alpha virt. eigenvalues --    0.21441   0.23268   0.23313   0.24929   0.25621
 Alpha virt. eigenvalues --    0.26199   0.26813   0.27190   0.28900   0.29449
 Alpha virt. eigenvalues --    0.30603   0.31075   0.31354   0.31727   0.31983

 Mulliken charges:
               1
     1  C   -0.298042
     2  C   -0.299938
     3  C   -0.475646
     4  H    0.149566
     5  H    0.149675
     6  H    0.151126
     7  H    0.152473
     8  H    0.155369
     9  H    0.155211
    10  H    0.160299
    11  C   -0.301360
    12  C   -0.299617
    13  C   -0.480205
    14  H    0.151249
    15  H    0.152118
    16  H    0.151883
    17  H    0.152012
    18  H    0.156279
    19  H    0.159317
    20  H    0.160544
    21  C   -0.298312
    22  C   -0.299544
    23  C   -0.475666
    24  H    0.149893
    25  H    0.149087
    26  H    0.151785
    27  H    0.151862
    28  H    0.155026
    29  H    0.155142
    30  H    0.160112
    31  C   -0.297934
    32  C   -0.303590
    33  C   -0.482782
    34  H    0.148987
    35  H    0.149327
    36  H    0.157674
    37  H    0.150441
    38  H    0.154379
    39  H    0.153348
    40  H    0.168452
 Sum of Mulliken charges =  -0.00000

 Dipole moment (field-independent basis, Debye):
    X=              0.0707    Y=              0.0028    Z=             -0.0136  Tot=              0.0720
 Quadrupole moment (field-independent basis, Debye-Ang):
   XX=            -85.0012   YY=            -86.6902   ZZ=            -83.1724
   XY=              0.0038   XZ=              0.2192   YZ=              0.5141

 Normal termination of Gaussian 16 at Thu May  6 05:26:12 2021.
