 Gaussian 16, Revision A.03,
 Gaussian 16:  EM64L-G16RevA.03 25-Dec-2016

 -------------
 #p 6-31g* mp2
 -------------

 ------------------------------------------------------
 Input file generated by CHIRIPA (05-May-2021 14:53:14)
 ------------------------------------------------------
 Symbolic Z-matrix:
 Charge =  0 Multiplicity = 1

                         Standard orientation:
 ---------------------------------------------------------------------
 Center     Atomic      Atomic             Coordinates (Angstroms)
 Number     Number       Type             X           Y           Z
 ---------------------------------------------------------------------
      1          6           0       -2.235811    1.110736   -0.572480
      2          6           0       -1.749280    2.291251    0.268742
      3          6           0       -1.030430    3.353625   -0.563370
      4          1           0       -1.377684    0.656929   -1.086896
      5          1           0       -2.910043    1.481623   -1.356859
      6          1           0       -1.077256    1.918083    1.052161
      7          1           0       -2.608638    2.742182    0.781366
      8          1           0       -1.695783    3.753641   -1.335312
      9          1           0       -0.155700    2.924859   -1.062978
     10          1           0       -0.691072    4.188365    0.057843
     11          6           0       -2.956433    0.040346    0.245259
     12          6           0       -3.442963   -1.140170   -0.595964
     13          6           0       -4.161813   -2.202543    0.236148
     14          1           0       -2.282201   -0.330541    1.029637
     15          1           0       -3.814559    0.494153    0.759674
     16          1           0       -2.583606   -1.591101   -1.108587
     17          1           0       -4.114988   -0.767001   -1.379382
     18          1           0       -5.036543   -1.773777    0.735756
     19          1           0       -3.496460   -2.602559    1.008090
     20          1           0       -4.501172   -3.037283   -0.385065
     21          6           0        2.338330    2.039450    0.400187
     22          6           0        2.875925    1.384705   -0.712837
     23          6           0        2.710278    0.005892   -0.874031
     24          6           0        1.998240   -0.690277    0.101489
     25          6           0        1.450655   -0.066471    1.221448
     26          6           0        1.628661    1.313053    1.362081
     27          1           0        2.471810    3.110820    0.517420
     28          1           0        3.427523    1.946285   -1.461444
     29          1           0        3.115907   -0.526165   -1.725969
     30          1           0        0.905646   -0.653138    1.950970
     31          1           0        1.210051    1.818897    2.227489
     32          7           0        1.816334   -2.150341   -0.058276
     33          8           0        1.184933   -2.740993    0.815279
     34          8           0        2.308603   -2.676441   -1.054031
 ---------------------------------------------------------------------

 SCF Done:  E(RHF) =  -669.534471033     A.U. after   15 cycles
 E2 =    -0.2094994985D+01 EUMP2 =    -0.67162946601739D+03

 The electronic state is 1-A.
 Alpha  occ. eigenvalues --  -20.60887 -20.60882 -15.85942 -11.31333 -11.27902
 Alpha  occ. eigenvalues --  -11.27890 -11.27613 -11.26906 -11.26890 -11.21851
 Alpha  occ. eigenvalues --  -11.21480 -11.21474 -11.21398 -11.21339 -11.20742
 Alpha  occ. eigenvalues --   -1.59963  -1.39515  -1.19513  -1.08906  -1.08469
 Alpha  occ. eigenvalues --   -1.04921  -1.03561  -0.96041  -0.95710  -0.87049
 Alpha  occ. eigenvalues --   -0.86308  -0.82561  -0.79662  -0.78278  -0.77594
 Alpha  occ. eigenvalues --   -0.72157  -0.71289  -0.70595  -0.65187  -0.65151
 Alpha  occ. eigenvalues --   -0.64881  -0.62263  -0.60997  -0.59436  -0.57630
 Alpha  occ. eigenvalues --   -0.55445  -0.55305  -0.53171  -0.53006  -0.52724
 Alpha  occ. eigenvalues --   -0.52437  -0.49972  -0.48919  -0.48911  -0.47955
 Alpha  occ. eigenvalues --   -0.46701  -0.45810  -0.45721  -0.44913  -0.43828
 Alpha  occ. eigenvalues --   -0.37414  -0.36435
 Alpha virt. eigenvalues --    0.04909   0.11029   0.16321   0.20485   0.22996
 Alpha virt. eigenvalues --    0.24237   0.25587   0.26833   0.27103   0.28633
 Alpha virt. eigenvalues --    0.29290   0.29903   0.31356   0.31534   0.32383

 Mulliken charges:
               1
     1  C   -0.298805
     2  C   -0.299168
     3  C   -0.479307
     4  H    0.151529
     5  H    0.149929
     6  H    0.147032
     7  H    0.151374
     8  H    0.157148
     9  H    0.157941
    10  H    0.151335
    11  C   -0.298499
    12  C   -0.299909
    13  C   -0.476457
    14  H    0.147522
    15  H    0.148483
    16  H    0.156789
    17  H    0.150445
    18  H    0.152275
    19  H    0.160032
    20  H    0.161823
    21  C   -0.168519
    22  C   -0.220209
    23  C   -0.171072
    24  C    0.158227
    25  C   -0.170681
    26  C   -0.216851
    27  H    0.227809
    28  H    0.224559
    29  H    0.276226
    30  H    0.276162
    31  H    0.225195
    32  N    0.487936
    33  O   -0.460472
    34  O   -0.459822
 Sum of Mulliken charges =  -0.00000

 Dipole moment (field-independent basis, Debye):
    X=              0.7459    Y=              5.0164    Z=              0.5329  Tot=              5.0995
 Quadrupole moment (field-independent basis, Debye-Ang):
   XX=            -90.9088   YY=           -103.3175   ZZ=            -91.3727
   XY=              9.5997   XZ=             -0.8577   YZ=              0.3076

 Normal termination of Gaussian 16 at Thu May  6 10:32:57 2021.
