 Gaussian 16, Revision A.03,
 Gaussian 16:  EM64L-G16RevA.03 25-Dec-2016

 -------------
 #p 6-31g* mp2
 -------------

 ------------------------------------------------------
 Input file generated by CHIRIPA (05-May-2021 14:51:10)
 ------------------------------------------------------
 Symbolic Z-matrix:
 Charge =  0 Multiplicity = 1

                         Standard orientation:
 ---------------------------------------------------------------------
 Center     Atomic      Atomic             Coordinates (Angstroms)
 Number     Number       Type             X           Y           Z
 ---------------------------------------------------------------------
      1          6           0        4.222428    0.429622    0.196053
      2          6           0        5.730443    0.307853   -0.025412
      3          6           0        6.512055    1.478470    0.571691
      4          1           0        3.868405    1.371604   -0.244723
      5          1           0        4.021251    0.494046    1.274372
      6          1           0        5.928612    0.242286   -1.102931
      7          1           0        6.080885   -0.634039    0.415775
      8          1           0        6.343734    1.543222    1.651541
      9          1           0        6.190596    2.424527    0.124206
     10          1           0        7.587924    1.371110    0.401869
     11          6           0        3.427439   -0.733191   -0.395205
     12          6           0        1.919424   -0.611421   -0.173740
     13          6           0        1.137812   -1.782039   -0.770842
     14          1           0        3.628616   -0.797614   -1.473524
     15          1           0        3.781462   -1.675172    0.045572
     16          1           0        1.568982    0.330471   -0.614927
     17          1           0        1.721256   -0.545854    0.903779
     18          1           0        1.459271   -2.728095   -0.323358
     19          1           0        1.306133   -1.846791   -1.850692
     20          1           0        0.061943   -1.674679   -0.601021
     21          6           0       -3.802669    0.788770   -0.321359
     22          6           0       -4.315226    2.023829    0.420191
     23          6           0       -4.264426    3.290257   -0.435013
     24          1           0       -2.770344    0.969081   -0.651115
     25          1           0       -4.400407    0.641876   -1.231593
     26          1           0       -3.717592    2.167548    1.329473
     27          1           0       -5.346385    1.840483    0.748387
     28          1           0       -4.875646    3.171756   -1.335550
     29          1           0       -3.237598    3.500679   -0.751162
     30          1           0       -4.635356    4.160992    0.114616
     31          6           0       -3.847198   -0.485201    0.520511
     32          6           0       -3.334641   -1.720261   -0.221039
     33          6           0       -3.385442   -2.986688    0.634164
     34          1           0       -3.249460   -0.338307    1.430746
     35          1           0       -4.879523   -0.665512    0.850267
     36          1           0       -2.303483   -1.536915   -0.549235
     37          1           0       -3.932276   -1.863979   -1.130321
     38          1           0       -4.412269   -3.197110    0.950313
     39          1           0       -2.774221   -2.868187    1.534702
     40          1           0       -3.014512   -3.857423    0.084535
 ---------------------------------------------------------------------

 SCF Done:  E(RHF) =  -470.733357515     A.U. after   11 cycles
 E2 =    -0.1582465957D+01 EUMP2 =    -0.47231582347235D+03

 The electronic state is 1-A.
 Alpha  occ. eigenvalues --  -11.21645 -11.21620 -11.21599 -11.21594 -11.21432
 Alpha  occ. eigenvalues --  -11.21403 -11.21372 -11.21344 -11.21096 -11.21086
 Alpha  occ. eigenvalues --  -11.21069 -11.21060  -1.08459  -1.08428  -1.03565
 Alpha  occ. eigenvalues --   -1.03521  -0.96012  -0.95969  -0.87030  -0.86985
 Alpha  occ. eigenvalues --   -0.79647  -0.79567  -0.78270  -0.78243  -0.65087
 Alpha  occ. eigenvalues --   -0.65072  -0.60968  -0.60951  -0.59440  -0.59273
 Alpha  occ. eigenvalues --   -0.57655  -0.57546  -0.55291  -0.55260  -0.52739
 Alpha  occ. eigenvalues --   -0.52652  -0.52446  -0.52384  -0.49946  -0.49910
 Alpha  occ. eigenvalues --   -0.48017  -0.47842  -0.46654  -0.46611  -0.45817
 Alpha  occ. eigenvalues --   -0.45778  -0.45737  -0.45705  -0.43805  -0.43746
 Alpha virt. eigenvalues --    0.21199   0.23041   0.23721   0.24828   0.26166
 Alpha virt. eigenvalues --    0.26630   0.27176   0.27485   0.28023   0.28704
 Alpha virt. eigenvalues --    0.30372   0.31388   0.31669   0.31855   0.32017

 Mulliken charges:
               1
     1  C   -0.298249
     2  C   -0.299673
     3  C   -0.475723
     4  H    0.149623
     5  H    0.149494
     6  H    0.151997
     7  H    0.152001
     8  H    0.155187
     9  H    0.155198
    10  H    0.160333
    11  C   -0.298575
    12  C   -0.298834
    13  C   -0.484440
    14  H    0.149686
    15  H    0.149817
    16  H    0.151526
    17  H    0.151667
    18  H    0.155714
    19  H    0.155567
    20  H    0.167764
    21  C   -0.298347
    22  C   -0.299664
    23  C   -0.475706
    24  H    0.149486
    25  H    0.149590
    26  H    0.152015
    27  H    0.151952
    28  H    0.155164
    29  H    0.155158
    30  H    0.160255
    31  C   -0.297746
    32  C   -0.308633
    33  C   -0.475309
    34  H    0.149433
    35  H    0.149745
    36  H    0.159179
    37  H    0.152355
    38  H    0.155202
    39  H    0.155076
    40  H    0.160713
 Sum of Mulliken charges =  -0.00000

 Dipole moment (field-independent basis, Debye):
    X=              0.0045    Y=             -0.0085    Z=             -0.0023  Tot=              0.0099
 Quadrupole moment (field-independent basis, Debye-Ang):
   XX=            -84.3374   YY=            -86.0774   ZZ=            -84.2697
   XY=             -0.3772   XZ=              0.1308   YZ=             -0.1957

 Normal termination of Gaussian 16 at Wed May  5 15:10:52 2021.
