 Gaussian 16, Revision A.03,
 Gaussian 16:  EM64L-G16RevA.03 25-Dec-2016

 -------------
 #p 6-31g* mp2
 -------------

 ------------------------------------------------------
 Input file generated by CHIRIPA (05-May-2021 14:53:13)
 ------------------------------------------------------
 Symbolic Z-matrix:
 Charge =  0 Multiplicity = 1

                         Standard orientation:
 ---------------------------------------------------------------------
 Center     Atomic      Atomic             Coordinates (Angstroms)
 Number     Number       Type             X           Y           Z
 ---------------------------------------------------------------------
      1          6           0       -2.339006    0.890149   -0.290557
      2          6           0       -2.603422    1.936134   -1.374062
      3          6           0       -1.451482    2.929259   -1.530681
      4          1           0       -2.159667    1.399694    0.666076
      5          1           0       -1.415403    0.346529   -0.533105
      6          1           0       -3.526995    2.476682   -1.130265
      7          1           0       -2.782342    1.424032   -2.328187
      8          1           0       -0.526720    2.407604   -1.797686
      9          1           0       -1.275605    3.466235   -0.592958
     10          1           0       -1.661529    3.668012   -2.310414
     11          6           0       -3.481575   -0.109797   -0.122120
     12          6           0       -3.217158   -1.155782    0.961386
     13          6           0       -4.369099   -2.148907    1.118004
     14          1           0       -4.405178    0.433823    0.120428
     15          1           0       -3.660914   -0.619342   -1.078752
     16          1           0       -3.038239   -0.643680    1.915511
     17          1           0       -2.293585   -1.696330    0.717589
     18          1           0       -4.544976   -2.685884    0.180281
     19          1           0       -5.293861   -1.627252    1.385010
     20          1           0       -4.159052   -2.887660    1.897738
     21          6           0        2.206204   -1.926249   -1.770729
     22          6           0        1.088816   -1.777178   -0.942631
     23          6           0        1.114938   -0.881752    0.130717
     24          6           0        2.280186   -0.148071    0.347974
     25          6           0        3.409659   -0.274241   -0.459282
     26          6           0        3.361023   -1.175628   -1.526841
     27          1           0        2.177166   -2.624154   -2.602283
     28          1           0        0.190612   -2.358808   -1.129657
     29          1           0        0.264183   -0.746620    0.787507
     30          1           0        4.290735    0.319380   -0.247765
     31          1           0        4.230298   -1.289331   -2.168306
     32          7           0        2.319758    0.803032    1.481215
     33          8           0        3.358415    1.437735    1.651444
     34          8           0        1.311367    0.895794    2.177763
 ---------------------------------------------------------------------

 SCF Done:  E(RHF) =  -669.535018939     A.U. after   15 cycles
 E2 =    -0.2093254357D+01 EUMP2 =    -0.67162827329558D+03

 The electronic state is 1-A.
 Alpha  occ. eigenvalues --  -20.60756 -20.60750 -15.85809 -11.31179 -11.27773
 Alpha  occ. eigenvalues --  -11.27714 -11.27521 -11.26786 -11.26777 -11.22067
 Alpha  occ. eigenvalues --  -11.21665 -11.21653 -11.21462 -11.21423 -11.20970
 Alpha  occ. eigenvalues --   -1.59829  -1.39381  -1.19372  -1.08761  -1.08663
 Alpha  occ. eigenvalues --   -1.04780  -1.03724  -0.96152  -0.95592  -0.87167
 Alpha  occ. eigenvalues --   -0.86171  -0.82430  -0.79814  -0.78517  -0.77433
 Alpha  occ. eigenvalues --   -0.72028  -0.71150  -0.70482  -0.65350  -0.65000
 Alpha  occ. eigenvalues --   -0.64769  -0.62117  -0.61129  -0.59531  -0.57763
 Alpha  occ. eigenvalues --   -0.55447  -0.55268  -0.53133  -0.52919  -0.52819
 Alpha  occ. eigenvalues --   -0.52528  -0.50093  -0.48788  -0.48781  -0.48118
 Alpha  occ. eigenvalues --   -0.46867  -0.45980  -0.45891  -0.44775  -0.43976
 Alpha  occ. eigenvalues --   -0.37354  -0.36331
 Alpha virt. eigenvalues --    0.05024   0.11246   0.16446   0.19641   0.22961
 Alpha virt. eigenvalues --    0.23986   0.25107   0.26434   0.27759   0.28002
 Alpha virt. eigenvalues --    0.29987   0.30564   0.31519   0.31625   0.31847

 Mulliken charges:
               1
     1  C   -0.306398
     2  C   -0.299005
     3  C   -0.476725
     4  H    0.161137
     5  H    0.144963
     6  H    0.153078
     7  H    0.148846
     8  H    0.154023
     9  H    0.161732
    10  H    0.159574
    11  C   -0.297965
    12  C   -0.301889
    13  C   -0.475666
    14  H    0.152811
    15  H    0.146464
    16  H    0.160780
    17  H    0.138870
    18  H    0.153394
    19  H    0.158545
    20  H    0.161681
    21  C   -0.170436
    22  C   -0.221945
    23  C   -0.173419
    24  C    0.156919
    25  C   -0.170598
    26  C   -0.218858
    27  H    0.225668
    28  H    0.223910
    29  H    0.283816
    30  H    0.275726
    31  H    0.223554
    32  N    0.488222
    33  O   -0.460590
    34  O   -0.460219
 Sum of Mulliken charges =  -0.00000

 Dipole moment (field-independent basis, Debye):
    X=             -0.1930    Y=             -3.2275    Z=             -3.8825  Tot=              5.0525
 Quadrupole moment (field-independent basis, Debye-Ang):
   XX=            -91.0186   YY=            -94.2948   ZZ=            -97.5034
   XY=             -7.4213   XZ=            -11.1167   YZ=             -0.1379

 Normal termination of Gaussian 16 at Thu May  6 18:43:36 2021.
