 Gaussian 16, Revision A.03,
 Gaussian 16:  EM64L-G16RevA.03 25-Dec-2016

 -------------
 #p 6-31g* mp2
 -------------

 ------------------------------------------------------
 Input file generated by CHIRIPA (05-May-2021 14:51:12)
 ------------------------------------------------------
 Symbolic Z-matrix:
 Charge =  0 Multiplicity = 1

                         Standard orientation:
 ---------------------------------------------------------------------
 Center     Atomic      Atomic             Coordinates (Angstroms)
 Number     Number       Type             X           Y           Z
 ---------------------------------------------------------------------
      1          6           0       -3.980460   -0.018707   -0.599670
      2          6           0       -4.543505   -1.224559    0.153248
      3          6           0       -5.384842   -2.138141   -0.738556
      4          1           0       -4.810775    0.554385   -1.034512
      5          1           0       -3.370508   -0.373340   -1.442042
      6          1           0       -5.151085   -0.867769    0.994773
      7          1           0       -3.711764   -1.794741    0.586510
      8          1           0       -4.785960   -2.522033   -1.570763
      9          1           0       -6.233459   -1.589794   -1.160180
     10          1           0       -5.777413   -2.993645   -0.180111
     11          6           0       -3.137123    0.903997    0.278467
     12          6           0       -2.574078    2.109850   -0.474451
     13          6           0       -1.732740    3.023431    0.417353
     14          1           0       -3.747075    1.258630    1.120839
     15          1           0       -2.306808    0.330906    0.713309
     16          1           0       -3.405819    2.680031   -0.907713
     17          1           0       -1.966498    1.753060   -1.315976
     18          1           0       -0.884124    2.475084    0.838977
     19          1           0       -2.331622    3.407323    1.249560
     20          1           0       -1.340169    3.878935   -0.141092
     21          6           0        4.103039    0.045748   -0.060076
     22          6           0        5.420275   -0.639109   -0.425925
     23          6           0        6.499246    0.351083   -0.865396
     24          1           0        3.744216    0.621645   -0.924098
     25          1           0        4.286121    0.771070    0.744774
     26          1           0        5.234509   -1.363916   -1.228895
     27          1           0        5.775906   -1.213598    0.439005
     28          1           0        6.713544    1.067375   -0.065644
     29          1           0        6.169072    0.916202   -1.743023
     30          1           0        7.432428   -0.159851   -1.122257
     31          6           0        3.014544   -0.931038    0.381279
     32          6           0        1.697307   -0.246181    0.747128
     33          6           0        0.618337   -1.236373    1.186599
     34          1           0        2.831462   -1.656360   -0.423571
     35          1           0        3.373366   -1.506935    1.245301
     36          1           0        1.341677    0.328308   -0.117802
     37          1           0        1.883073    0.478626    1.550099
     38          1           0        0.948511   -1.801493    2.064226
     39          1           0        0.404038   -1.952665    0.386847
     40          1           0       -0.314844   -0.725438    1.443460
 ---------------------------------------------------------------------

 SCF Done:  E(RHF) =  -470.733356585     A.U. after   11 cycles
 E2 =    -0.1582972336D+01 EUMP2 =    -0.47231632892088D+03

 The electronic state is 1-A.
 Alpha  occ. eigenvalues --  -11.21678 -11.21626 -11.21588 -11.21573 -11.21450
 Alpha  occ. eigenvalues --  -11.21387 -11.21379 -11.21319 -11.21148 -11.21089
 Alpha  occ. eigenvalues --  -11.21050 -11.21048  -1.08479  -1.08409  -1.03585
 Alpha  occ. eigenvalues --   -1.03504  -0.96033  -0.95955  -0.87057  -0.86966
 Alpha  occ. eigenvalues --   -0.79644  -0.79570  -0.78286  -0.78230  -0.65126
 Alpha  occ. eigenvalues --   -0.65039  -0.60993  -0.60902  -0.59432  -0.59296
 Alpha  occ. eigenvalues --   -0.57654  -0.57559  -0.55320  -0.55246  -0.52775
 Alpha  occ. eigenvalues --   -0.52646  -0.52483  -0.52342  -0.49974  -0.49895
 Alpha  occ. eigenvalues --   -0.47965  -0.47884  -0.46674  -0.46598  -0.45827
 Alpha  occ. eigenvalues --   -0.45760  -0.45751  -0.45680  -0.43797  -0.43754
 Alpha virt. eigenvalues --    0.20260   0.23113   0.23706   0.24827   0.25994
 Alpha virt. eigenvalues --    0.26549   0.26931   0.27299   0.28163   0.29117
 Alpha virt. eigenvalues --    0.30614   0.31150   0.31623   0.31821   0.32089

 Mulliken charges:
               1
     1  C   -0.297499
     2  C   -0.300129
     3  C   -0.475666
     4  H    0.149549
     5  H    0.149342
     6  H    0.151802
     7  H    0.152628
     8  H    0.155085
     9  H    0.155070
    10  H    0.160251
    11  C   -0.307290
    12  C   -0.298864
    13  C   -0.478044
    14  H    0.149390
    15  H    0.157978
    16  H    0.151937
    17  H    0.151473
    18  H    0.157471
    19  H    0.155019
    20  H    0.160195
    21  C   -0.298360
    22  C   -0.299701
    23  C   -0.475738
    24  H    0.149780
    25  H    0.149761
    26  H    0.151934
    27  H    0.152007
    28  H    0.155286
    29  H    0.155239
    30  H    0.160334
    31  C   -0.298554
    32  C   -0.300393
    33  C   -0.483307
    34  H    0.149595
    35  H    0.149962
    36  H    0.152582
    37  H    0.152394
    38  H    0.156035
    39  H    0.155049
    40  H    0.166397
 Sum of Mulliken charges =  -0.00000

 Dipole moment (field-independent basis, Debye):
    X=              0.0292    Y=             -0.0092    Z=              0.0103  Tot=              0.0323
 Quadrupole moment (field-independent basis, Debye-Ang):
   XX=            -85.1622   YY=            -85.4416   ZZ=            -84.1463
   XY=             -1.4100   XZ=              0.0797   YZ=              0.0190

 Normal termination of Gaussian 16 at Wed May  5 21:31:47 2021.
