 Gaussian 16, Revision A.03,
 Gaussian 16:  EM64L-G16RevA.03 25-Dec-2016

 -------------
 #p 6-31g* mp2
 -------------

 ------------------------------------------------------
 Input file generated by CHIRIPA (05-May-2021 14:55:22)
 ------------------------------------------------------
 Symbolic Z-matrix:
 Charge =  0 Multiplicity = 1

                         Standard orientation:
 ---------------------------------------------------------------------
 Center     Atomic      Atomic             Coordinates (Angstroms)
 Number     Number       Type             X           Y           Z
 ---------------------------------------------------------------------
      1          6           0        0.997116   -1.958562    1.171117
      2          6           0        1.609116   -2.127955   -0.075190
      3          6           0        2.373948   -1.100832   -0.636081
      4          6           0        2.506400    0.087853    0.080001
      5          6           0        1.909028    0.286982    1.323699
      6          6           0        1.148757   -0.753758    1.865360
      7          1           0        0.404748   -2.761745    1.599362
      8          1           0        1.493073   -3.062541   -0.616604
      9          1           0        2.858661   -1.205184   -1.599191
     10          1           0        2.042864    1.230016    1.839637
     11          1           0        0.674615   -0.619397    2.833441
     12          7           0        3.313678    1.182430   -0.503610
     13          8           0        3.415038    2.220045    0.147327
     14          8           0        3.829779    0.982019   -1.600931
     15          6           0       -2.954895   -0.489911   -0.679866
     16          6           0       -2.644775   -1.778430    0.082715
     17          6           0       -2.481525   -2.986684   -0.839925
     18          1           0       -3.872346   -0.630923   -1.267526
     19          1           0       -2.148698   -0.295655   -1.400773
     20          1           0       -3.450632   -1.969457    0.802937
     21          1           0       -1.728061   -1.634270    0.668777
     22          1           0       -1.664718   -2.821613   -1.549980
     23          1           0       -3.397076   -3.158703   -1.415058
     24          1           0       -2.260318   -3.896984   -0.273992
     25          6           0       -3.120883    0.726829    0.228827
     26          6           0       -3.431001    2.015348   -0.533753
     27          6           0       -3.594252    3.223602    0.388886
     28          1           0       -3.927080    0.532574    0.949734
     29          1           0       -2.203431    0.867841    0.816487
     30          1           0       -4.347715    1.871188   -1.119816
     31          1           0       -2.625145    2.206376   -1.253975
     32          1           0       -2.678702    3.395622    0.964019
     33          1           0       -4.411060    3.058531    1.098941
     34          1           0       -3.815460    4.133903   -0.177047
 ---------------------------------------------------------------------

 SCF Done:  E(RHF) =  -669.535231586     A.U. after   15 cycles
 E2 =    -0.2093143977D+01 EUMP2 =    -0.67162837556264D+03

 The electronic state is 1-A.
 Alpha  occ. eigenvalues --  -20.60846 -20.60841 -15.85902 -11.31292 -11.27883
 Alpha  occ. eigenvalues --  -11.27875 -11.27610 -11.26891 -11.26870 -11.22107
 Alpha  occ. eigenvalues --  -11.21789 -11.21781 -11.21751 -11.21666 -11.21205
 Alpha  occ. eigenvalues --   -1.59922  -1.39475  -1.19483  -1.08901  -1.08761
 Alpha  occ. eigenvalues --   -1.04883  -1.03915  -0.96373  -0.95699  -0.87388
 Alpha  occ. eigenvalues --   -0.86275  -0.82528  -0.79992  -0.78592  -0.77563
 Alpha  occ. eigenvalues --   -0.72119  -0.71247  -0.70601  -0.65431  -0.65130
 Alpha  occ. eigenvalues --   -0.64864  -0.62224  -0.61324  -0.59772  -0.57984
 Alpha  occ. eigenvalues --   -0.55669  -0.55361  -0.53243  -0.53064  -0.52967
 Alpha  occ. eigenvalues --   -0.52790  -0.50305  -0.48879  -0.48872  -0.48305
 Alpha  occ. eigenvalues --   -0.47016  -0.46139  -0.46037  -0.44875  -0.44158
 Alpha  occ. eigenvalues --   -0.37364  -0.36485
 Alpha virt. eigenvalues --    0.04937   0.11068   0.16348   0.20454   0.22804
 Alpha virt. eigenvalues --    0.23977   0.26221   0.26380   0.26776   0.28039
 Alpha virt. eigenvalues --    0.29005   0.29955   0.31250   0.31675   0.32124

 Mulliken charges:
               1
     1  C   -0.170426
     2  C   -0.219213
     3  C   -0.171243
     4  C    0.158454
     5  C   -0.171056
     6  C   -0.219060
     7  H    0.228660
     8  H    0.225185
     9  H    0.276155
    10  H    0.276125
    11  H    0.224839
    12  N    0.488064
    13  O   -0.460189
    14  O   -0.460135
    15  C   -0.297412
    16  C   -0.305608
    17  C   -0.477279
    18  H    0.150530
    19  H    0.152305
    20  H    0.150979
    21  H    0.152374
    22  H    0.154413
    23  H    0.159605
    24  H    0.153434
    25  C   -0.298927
    26  C   -0.300362
    27  C   -0.475822
    28  H    0.148296
    29  H    0.148295
    30  H    0.152241
    31  H    0.154939
    32  H    0.155278
    33  H    0.154119
    34  H    0.162440
 Sum of Mulliken charges =  -0.00000

 Dipole moment (field-independent basis, Debye):
    X=             -2.7972    Y=             -3.7883    Z=              2.0193  Tot=              5.1238
 Quadrupole moment (field-independent basis, Debye-Ang):
   XX=           -108.6668   YY=            -95.2662   ZZ=            -91.6950
   XY=            -10.5285   XZ=              4.2727   YZ=              1.9084

 Normal termination of Gaussian 16 at Thu May  6 15:51:00 2021.
