 Gaussian 16, Revision A.03,
 Gaussian 16:  EM64L-G16RevA.03 25-Dec-2016

 -------------
 #p 6-31g* mp2
 -------------

 ------------------------------------------------------
 Input file generated by CHIRIPA (05-May-2021 14:57:24)
 ------------------------------------------------------
 Symbolic Z-matrix:
 Charge =  0 Multiplicity = 1

                         Standard orientation:
 ---------------------------------------------------------------------
 Center     Atomic      Atomic             Coordinates (Angstroms)
 Number     Number       Type             X           Y           Z
 ---------------------------------------------------------------------
      1          6           0        4.378078    1.969211   -0.889450
      2          6           0        4.078879    1.935726    0.476522
      3          6           0        3.425954    0.832092    1.033504
      4          6           0        3.085226   -0.225396    0.191534
      5          6           0        3.369665   -0.221668   -1.173153
      6          6           0        4.023141    0.892306   -1.708484
      7          1           0        4.885500    2.830556   -1.313718
      8          1           0        4.353333    2.770635    1.114994
      9          1           0        3.182270    0.780021    2.087698
     10          1           0        3.083499   -1.069013   -1.784327
     11          1           0        4.254240    0.915570   -2.769662
     12          7           0        2.393712   -1.399236    0.769726
     13          8           0        2.104147   -2.318164    0.006600
     14          8           0        2.154361   -1.378138    1.975090
     15          6           0       -4.626728    2.073901    0.301802
     16          6           0       -3.246013    2.132075    0.518043
     17          6           0       -2.445281    1.006841    0.300731
     18          6           0       -3.061188   -0.165477   -0.134722
     19          6           0       -4.434121   -0.254930   -0.359091
     20          6           0       -5.215338    0.882685   -0.135304
     21          1           0       -5.241177    2.952819    0.473131
     22          1           0       -2.786165    3.055847    0.857502
     23          1           0       -1.373987    1.024088    0.460264
     24          1           0       -4.863809   -1.189943   -0.697525
     25          1           0       -6.287371    0.834593   -0.304065
     26          7           0       -2.223818   -1.363266   -0.368209
     27          8           0       -2.790672   -2.384133   -0.751804
     28          8           0       -1.016490   -1.258546   -0.163198
 ---------------------------------------------------------------------

 SCF Done:  E(RHF) =  -868.335776210     A.U. after   16 cycles
 E2 =    -0.2600789115D+01 EUMP2 =    -0.87093656532532D+03

 The electronic state is 1-A.
 Alpha  occ. eigenvalues --  -20.60155 -20.60119 -20.59745 -20.59609 -15.85209
 Alpha  occ. eigenvalues --  -15.84746 -11.30817 -11.30560 -11.27430 -11.27411
 Alpha  occ. eigenvalues --  -11.27216 -11.27216 -11.27133 -11.27022 -11.26505
 Alpha  occ. eigenvalues --  -11.26482 -11.26333 -11.26276  -1.59207  -1.58719
 Alpha  occ. eigenvalues --   -1.38760  -1.38273  -1.19016  -1.18776  -1.08365
 Alpha  occ. eigenvalues --   -1.08086  -1.04460  -1.04247  -0.95158  -0.94846
 Alpha  occ. eigenvalues --   -0.85847  -0.85621  -0.81997  -0.81685  -0.77008
 Alpha  occ. eigenvalues --   -0.76648  -0.71495  -0.70968  -0.70547  -0.70152
 Alpha  occ. eigenvalues --   -0.69926  -0.69883  -0.64666  -0.64471  -0.64418
 Alpha  occ. eigenvalues --   -0.64257  -0.61809  -0.61586  -0.54957  -0.54742
 Alpha  occ. eigenvalues --   -0.52772  -0.52575  -0.52541  -0.52345  -0.48193
 Alpha  occ. eigenvalues --   -0.48160  -0.47740  -0.47689  -0.44114  -0.43544
 Alpha  occ. eigenvalues --   -0.37012  -0.36783  -0.36074  -0.35879
 Alpha virt. eigenvalues --    0.05551   0.05918   0.11577   0.11771   0.16992
 Alpha virt. eigenvalues --    0.17323   0.21654   0.21852   0.27537   0.27731
 Alpha virt. eigenvalues --    0.28541   0.28801   0.31115   0.31400   0.32774

 Mulliken charges:
               1
     1  C   -0.172917
     2  C   -0.219574
     3  C   -0.174666
     4  C    0.161134
     5  C   -0.169430
     6  C   -0.219272
     7  H    0.222412
     8  H    0.219715
     9  H    0.273281
    10  H    0.278893
    11  H    0.221740
    12  N    0.491805
    13  O   -0.446140
    14  O   -0.466667
    15  C   -0.171607
    16  C   -0.218482
    17  C   -0.170154
    18  C    0.159391
    19  C   -0.171135
    20  C   -0.218502
    21  H    0.223808
    22  H    0.220809
    23  H    0.273906
    24  H    0.275728
    25  H    0.222323
    26  N    0.489047
    27  O   -0.460339
    28  O   -0.455107
 Sum of Mulliken charges =  -0.00000

 Dipole moment (field-independent basis, Debye):
    X=             -0.5940    Y=              7.9977    Z=             -1.2903  Tot=              8.1229
 Quadrupole moment (field-independent basis, Debye-Ang):
   XX=            -70.7125   YY=           -106.9162   ZZ=           -102.5778
   XY=              1.8279   XZ=             -6.8782   YZ=              3.7243

 Normal termination of Gaussian 16 at Thu May  6 03:29:19 2021.
