 Gaussian 16, Revision A.03,
 Gaussian 16:  EM64L-G16RevA.03 25-Dec-2016

 -------------
 #p 6-31g* mp2
 -------------

 ------------------------------------------------------
 Input file generated by CHIRIPA (05-May-2021 14:51:13)
 ------------------------------------------------------
 Symbolic Z-matrix:
 Charge =  0 Multiplicity = 1

                         Standard orientation:
 ---------------------------------------------------------------------
 Center     Atomic      Atomic             Coordinates (Angstroms)
 Number     Number       Type             X           Y           Z
 ---------------------------------------------------------------------
      1          6           0       -4.005644    0.033323    0.153246
      2          6           0       -5.125662   -0.060823   -0.883423
      3          6           0       -6.087999   -1.217231   -0.610619
      4          1           0       -3.448463   -0.913384    0.168715
      5          1           0       -4.448726    0.151586    1.151789
      6          1           0       -4.680572   -0.177485   -1.879867
      7          1           0       -5.680122    0.886287   -0.896561
      8          1           0       -6.559029   -1.103021    0.371057
      9          1           0       -5.553800   -2.172836   -0.617836
     10          1           0       -6.880718   -1.266007   -1.363665
     11          6           0       -3.035453    1.184529   -0.105947
     12          6           0       -1.915436    1.278675    0.930722
     13          6           0       -0.953098    2.435083    0.657918
     14          1           0       -2.592372    1.066266   -1.104490
     15          1           0       -3.592635    2.131236   -0.121415
     16          1           0       -1.360975    0.331565    0.943860
     17          1           0       -2.360525    1.395336    1.927166
     18          1           0       -1.487297    3.390688    0.665136
     19          1           0       -0.482069    2.320872   -0.323758
     20          1           0       -0.160380    2.483859    1.410964
     21          6           0        2.834400   -0.882086   -0.218625
     22          6           0        2.147919   -1.656646    0.906891
     23          6           0        0.776174   -2.196850    0.501567
     24          1           0        2.188203   -0.049778   -0.529496
     25          1           0        2.941572   -1.538222   -1.093494
     26          1           0        2.043320   -0.999664    1.779845
     27          1           0        2.795910   -2.487090    1.215248
     28          1           0        0.866185   -2.873623   -0.354284
     29          1           0        0.109319   -1.377744    0.213522
     30          1           0        0.303284   -2.747144    1.320964
     31          6           0        4.206698   -0.335766    0.171327
     32          6           0        4.893178    0.438793   -0.954190
     33          6           0        6.264924    0.978999   -0.548866
     34          1           0        4.099525    0.320370    1.046194
     35          1           0        4.852894   -1.168073    0.482196
     36          1           0        4.245188    1.269239   -1.262548
     37          1           0        4.997777   -0.218188   -1.827145
     38          1           0        6.931778    0.159891   -0.260821
     39          1           0        6.174912    1.655771    0.306984
     40          1           0        6.737813    1.529292   -1.368264
 ---------------------------------------------------------------------

 SCF Done:  E(RHF) =  -470.733366806     A.U. after   11 cycles
 E2 =    -0.1582742963D+01 EUMP2 =    -0.47231610976849D+03

 The electronic state is 1-A.
 Alpha  occ. eigenvalues --  -11.21629 -11.21605 -11.21603 -11.21590 -11.21416
 Alpha  occ. eigenvalues --  -11.21405 -11.21356 -11.21342 -11.21126 -11.21111
 Alpha  occ. eigenvalues --  -11.21070 -11.21056  -1.08450  -1.08428  -1.03566
 Alpha  occ. eigenvalues --   -1.03522  -0.96005  -0.95985  -0.87035  -0.86989
 Alpha  occ. eigenvalues --   -0.79650  -0.79565  -0.78269  -0.78230  -0.65167
 Alpha  occ. eigenvalues --   -0.64989  -0.61118  -0.60785  -0.59365  -0.59354
 Alpha  occ. eigenvalues --   -0.57621  -0.57586  -0.55335  -0.55241  -0.52701
 Alpha  occ. eigenvalues --   -0.52679  -0.52444  -0.52402  -0.50083  -0.49826
 Alpha  occ. eigenvalues --   -0.48006  -0.47855  -0.46787  -0.46486  -0.45864
 Alpha  occ. eigenvalues --   -0.45759  -0.45730  -0.45572  -0.43801  -0.43791
 Alpha virt. eigenvalues --    0.20374   0.23101   0.23802   0.25002   0.25973
 Alpha virt. eigenvalues --    0.26566   0.27012   0.27561   0.28517   0.28883
 Alpha virt. eigenvalues --    0.30838   0.31369   0.31666   0.31727   0.32128

 Mulliken charges:
               1
     1  C   -0.298795
     2  C   -0.299651
     3  C   -0.475756
     4  H    0.150463
     5  H    0.149509
     6  H    0.152007
     7  H    0.151837
     8  H    0.155114
     9  H    0.155439
    10  H    0.160193
    11  C   -0.297911
    12  C   -0.307948
    13  C   -0.475882
    14  H    0.149324
    15  H    0.149707
    16  H    0.159526
    17  H    0.152322
    18  H    0.155732
    19  H    0.154709
    20  H    0.159838
    21  C   -0.298895
    22  C   -0.299456
    23  C   -0.481946
    24  H    0.150189
    25  H    0.149405
    26  H    0.152276
    27  H    0.152198
    28  H    0.155368
    29  H    0.160290
    30  H    0.160507
    31  C   -0.298274
    32  C   -0.299740
    33  C   -0.475719
    34  H    0.149683
    35  H    0.149630
    36  H    0.152184
    37  H    0.151828
    38  H    0.155133
    39  H    0.155277
    40  H    0.160285
 Sum of Mulliken charges =  -0.00000

 Dipole moment (field-independent basis, Debye):
    X=              0.0020    Y=             -0.0075    Z=              0.0056  Tot=              0.0095
 Quadrupole moment (field-independent basis, Debye-Ang):
   XX=            -85.8578   YY=            -84.4883   ZZ=            -84.3827
   XY=             -1.8150   XZ=             -0.5795   YZ=              0.6337

 Normal termination of Gaussian 16 at Wed May  5 16:51:20 2021.
