 Gaussian 16, Revision A.03,
 Gaussian 16:  EM64L-G16RevA.03 25-Dec-2016

 -------------
 #p 6-31g* mp2
 -------------

 ------------------------------------------------------
 Input file generated by CHIRIPA (05-May-2021 14:55:21)
 ------------------------------------------------------
 Symbolic Z-matrix:
 Charge =  0 Multiplicity = 1

                         Standard orientation:
 ---------------------------------------------------------------------
 Center     Atomic      Atomic             Coordinates (Angstroms)
 Number     Number       Type             X           Y           Z
 ---------------------------------------------------------------------
      1          6           0        0.269153   -2.246702    0.120052
      2          6           0        0.447507   -1.350570    1.179136
      3          6           0        1.524655   -0.459338    1.181362
      4          6           0        2.408220   -0.491592    0.103604
      5          6           0        2.257426   -1.372540   -0.966200
      6          6           0        1.173088   -2.254812   -0.947354
      7          1           0       -0.570394   -2.935552    0.126508
      8          1           0       -0.252924   -1.342036    2.009418
      9          1           0        1.686470    0.244908    1.988376
     10          1           0        2.972265   -1.357489   -1.779955
     11          1           0        1.037065   -2.949660   -1.771204
     12          7           0        3.552354    0.447173    0.094807
     13          8           0        4.316749    0.398868   -0.866445
     14          8           0        3.663067    1.213507    1.049329
     15          6           0       -2.085992    0.926005   -0.076047
     16          6           0       -1.629649    2.340115   -0.436642
     17          6           0       -0.116411    2.522022   -0.314916
     18          1           0       -1.768962    0.695805    0.950327
     19          1           0       -1.575369    0.205524   -0.729931
     20          1           0       -2.142025    3.057816    0.216805
     21          1           0       -1.947969    2.567048   -1.462209
     22          1           0        0.409609    1.828702   -0.979154
     23          1           0        0.214450    2.322259    0.709401
     24          1           0        0.187961    3.540046   -0.577302
     25          6           0       -3.596319    0.728552   -0.192892
     26          6           0       -4.052663   -0.685558    0.167704
     27          6           0       -5.565900   -0.867465    0.045978
     28          1           0       -4.106943    1.449033    0.460992
     29          1           0       -3.913350    0.958753   -1.219267
     30          1           0       -3.734342   -0.912491    1.193271
     31          1           0       -3.540286   -1.403259   -0.485743
     32          1           0       -5.896762   -0.667701   -0.978340
     33          1           0       -6.091921   -0.174146    0.710214
     34          1           0       -5.870273   -1.885488    0.308363
 ---------------------------------------------------------------------

 SCF Done:  E(RHF) =  -669.533865508     A.U. after   15 cycles
 E2 =    -0.2095327705D+01 EUMP2 =    -0.67162919321293D+03

 The electronic state is 1-A.
 Alpha  occ. eigenvalues --  -20.60752 -20.60738 -15.85797 -11.31165 -11.27751
 Alpha  occ. eigenvalues --  -11.27706 -11.27466 -11.26782 -11.26727 -11.22318
 Alpha  occ. eigenvalues --  -11.21831 -11.21760 -11.21658 -11.21648 -11.21035
 Alpha  occ. eigenvalues --   -1.59818  -1.39372  -1.19354  -1.08859  -1.08726
 Alpha  occ. eigenvalues --   -1.04765  -1.03894  -0.96319  -0.95572  -0.87342
 Alpha  occ. eigenvalues --   -0.86148  -0.82411  -0.80001  -0.78673  -0.77446
 Alpha  occ. eigenvalues --   -0.72018  -0.71137  -0.70455  -0.65489  -0.65001
 Alpha  occ. eigenvalues --   -0.64767  -0.62120  -0.61291  -0.59721  -0.57946
 Alpha  occ. eigenvalues --   -0.55603  -0.55251  -0.53241  -0.52944  -0.52924
 Alpha  occ. eigenvalues --   -0.52688  -0.50266  -0.48779  -0.48772  -0.48273
 Alpha  occ. eigenvalues --   -0.47055  -0.46178  -0.46052  -0.44761  -0.44136
 Alpha  occ. eigenvalues --   -0.37260  -0.36259
 Alpha virt. eigenvalues --    0.05030   0.11232   0.16417   0.20205   0.22916
 Alpha virt. eigenvalues --    0.23691   0.25041   0.26183   0.26941   0.28552
 Alpha virt. eigenvalues --    0.29131   0.30107   0.31215   0.31368   0.31736

 Mulliken charges:
               1
     1  C   -0.171905
     2  C   -0.212014
     3  C   -0.168835
     4  C    0.160660
     5  C   -0.173134
     6  C   -0.219389
     7  H    0.226596
     8  H    0.223041
     9  H    0.274560
    10  H    0.275549
    11  H    0.223312
    12  N    0.488501
    13  O   -0.460813
    14  O   -0.460323
    15  C   -0.298166
    16  C   -0.300718
    17  C   -0.475189
    18  H    0.141674
    19  H    0.153121
    20  H    0.151811
    21  H    0.152273
    22  H    0.155234
    23  H    0.153268
    24  H    0.164689
    25  C   -0.297993
    26  C   -0.298953
    27  C   -0.475477
    28  H    0.150785
    29  H    0.151257
    30  H    0.146042
    31  H    0.146424
    32  H    0.157253
    33  H    0.157493
    34  H    0.159366
 Sum of Mulliken charges =  -0.00000

 Dipole moment (field-independent basis, Debye):
    X=             -4.0087    Y=             -3.2460    Z=              0.0022  Tot=              5.1581
 Quadrupole moment (field-independent basis, Debye-Ang):
   XX=           -115.6187   YY=            -91.3322   ZZ=            -90.1802
   XY=             -7.0392   XZ=             -1.8903   YZ=              1.7676

 Normal termination of Gaussian 16 at Thu May  6 01:25:23 2021.
