 Gaussian 16, Revision A.03,
 Gaussian 16:  EM64L-G16RevA.03 25-Dec-2016

 -------------
 #p 6-31g* mp2
 -------------

 ------------------------------------------------------
 Input file generated by CHIRIPA (05-May-2021 14:51:13)
 ------------------------------------------------------
 Symbolic Z-matrix:
 Charge =  0 Multiplicity = 1

                         Standard orientation:
 ---------------------------------------------------------------------
 Center     Atomic      Atomic             Coordinates (Angstroms)
 Number     Number       Type             X           Y           Z
 ---------------------------------------------------------------------
      1          6           0        3.661159   -0.333402   -0.254861
      2          6           0        2.646403   -1.061164    0.627533
      3          6           0        1.215400   -0.945632    0.101532
      4          1           0        3.380385    0.726186   -0.328241
      5          1           0        3.609962   -0.741610   -1.273752
      6          1           0        2.700470   -0.652653    1.644790
      7          1           0        2.929734   -2.119103    0.698977
      8          1           0        1.139220   -1.370887   -0.904428
      9          1           0        0.908654    0.103895    0.046759
     10          1           0        0.506467   -1.473023    0.747389
     11          6           0        5.096231   -0.439793    0.257954
     12          6           0        6.110987    0.287969   -0.624440
     13          6           0        7.541990    0.172437   -0.098439
     14          1           0        5.147428   -0.031585    1.276845
     15          1           0        5.377005   -1.499381    0.331334
     16          1           0        5.827656    1.345908   -0.695884
     17          1           0        6.056920   -0.120542   -1.641697
     18          1           0        7.848736   -0.877090   -0.043666
     19          1           0        7.618170    0.597692    0.907521
     20          1           0        8.250923    0.699828   -0.744296
     21          6           0       -3.681479    0.541880    0.269026
     22          6           0       -3.152909    1.909149   -0.165914
     23          6           0       -1.757051    2.205337    0.383311
     24          1           0       -3.700210    0.495269    1.366487
     25          1           0       -2.982118   -0.237032   -0.065015
     26          1           0       -3.853761    2.685138    0.167645
     27          1           0       -3.135614    1.952580   -1.262468
     28          1           0       -1.040165    1.452583    0.039749
     29          1           0       -1.762392    2.189304    1.477987
     30          1           0       -1.398579    3.187643    0.060147
     31          6           0       -5.075911    0.231315   -0.272119
     32          6           0       -5.604482   -1.135954    0.162821
     33          6           0       -7.000339   -1.432142   -0.386404
     34          1           0       -5.775272    1.010228    0.061922
     35          1           0       -5.057180    0.277926   -1.369580
     36          1           0       -5.621775   -1.179385    1.259374
     37          1           0       -4.903629   -1.911944   -0.170738
     38          1           0       -6.994998   -1.416109   -1.481081
     39          1           0       -7.717225   -0.679388   -0.042842
     40          1           0       -7.358812   -2.414447   -0.063241
 ---------------------------------------------------------------------

 SCF Done:  E(RHF) =  -470.733298401     A.U. after   11 cycles
 E2 =    -0.1582305343D+01 EUMP2 =    -0.47231560374419D+03

 The electronic state is 1-A.
 Alpha  occ. eigenvalues --  -11.21604 -11.21598 -11.21575 -11.21562 -11.21403
 Alpha  occ. eigenvalues --  -11.21366 -11.21343 -11.21305 -11.21075 -11.21068
 Alpha  occ. eigenvalues --  -11.21051 -11.21009  -1.08430  -1.08392  -1.03538
 Alpha  occ. eigenvalues --   -1.03489  -0.96002  -0.95929  -0.87036  -0.86932
 Alpha  occ. eigenvalues --   -0.79637  -0.79522  -0.78247  -0.78198  -0.65073
 Alpha  occ. eigenvalues --   -0.65012  -0.61011  -0.60828  -0.59353  -0.59308
 Alpha  occ. eigenvalues --   -0.57642  -0.57521  -0.55428  -0.55101  -0.52689
 Alpha  occ. eigenvalues --   -0.52644  -0.52509  -0.52272  -0.50099  -0.49718
 Alpha  occ. eigenvalues --   -0.47995  -0.47790  -0.46721  -0.46472  -0.45816
 Alpha  occ. eigenvalues --   -0.45735  -0.45705  -0.45606  -0.43784  -0.43749
 Alpha virt. eigenvalues --    0.22310   0.22956   0.23605   0.24673   0.25905
 Alpha virt. eigenvalues --    0.26683   0.27056   0.27450   0.27819   0.28936
 Alpha virt. eigenvalues --    0.30263   0.31551   0.31686   0.31821   0.31991

 Mulliken charges:
               1
     1  C   -0.298578
     2  C   -0.299214
     3  C   -0.482066
     4  H    0.150052
     5  H    0.149385
     6  H    0.152323
     7  H    0.151882
     8  H    0.154759
     9  H    0.160996
    10  H    0.160762
    11  C   -0.298317
    12  C   -0.299674
    13  C   -0.475711
    14  H    0.149634
    15  H    0.149616
    16  H    0.152030
    17  H    0.151876
    18  H    0.155154
    19  H    0.155218
    20  H    0.160247
    21  C   -0.298751
    22  C   -0.299008
    23  C   -0.483205
    24  H    0.149377
    25  H    0.150674
    26  H    0.151640
    27  H    0.151822
    28  H    0.162963
    29  H    0.154871
    30  H    0.159592
    31  C   -0.298281
    32  C   -0.299651
    33  C   -0.475679
    34  H    0.149379
    35  H    0.149613
    36  H    0.151829
    37  H    0.152016
    38  H    0.155154
    39  H    0.155119
    40  H    0.160152
 Sum of Mulliken charges =  -0.00000

 Dipole moment (field-independent basis, Debye):
    X=              0.0200    Y=             -0.0082    Z=              0.0010  Tot=              0.0216
 Quadrupole moment (field-independent basis, Debye-Ang):
   XX=            -86.8782   YY=            -84.0702   ZZ=            -83.9533
   XY=             -0.6174   XZ=             -1.0005   YZ=              0.7151

 Normal termination of Gaussian 16 at Wed May  5 19:58:38 2021.
