 Gaussian 16, Revision A.03,
 Gaussian 16:  EM64L-G16RevA.03 25-Dec-2016

 -------------
 #p 6-31g* mp2
 -------------

 ------------------------------------------------------
 Input file generated by CHIRIPA (05-May-2021 14:55:25)
 ------------------------------------------------------
 Symbolic Z-matrix:
 Charge =  0 Multiplicity = 1

                         Standard orientation:
 ---------------------------------------------------------------------
 Center     Atomic      Atomic             Coordinates (Angstroms)
 Number     Number       Type             X           Y           Z
 ---------------------------------------------------------------------
      1          6           0        2.075398    2.603659    0.998827
      2          6           0        2.790141    2.503250   -0.199330
      3          6           0        3.024973    1.255001   -0.783520
      4          6           0        2.528420    0.122716   -0.139583
      5          6           0        1.812806    0.190106    1.054839
      6          6           0        1.589868    1.448803    1.620991
      7          1           0        1.897595    3.577387    1.445634
      8          1           0        3.168395    3.398431   -0.684736
      9          1           0        3.575216    1.148457   -1.710504
     10          1           0        1.448224   -0.720116    1.515268
     11          1           0        1.034465    1.523763    2.551558
     12          7           0        2.770730   -1.204280   -0.748491
     13          8           0        2.322729   -2.186746   -0.161386
     14          8           0        3.404065   -1.236786   -1.801328
     15          6           0       -2.975253   -1.144572    0.246926
     16          6           0       -1.507162   -1.248129    0.661621
     17          6           0       -1.102110   -2.669774    1.052330
     18          1           0       -3.608744   -1.493693    1.073818
     19          1           0       -3.159597   -1.824251   -0.596548
     20          1           0       -1.325318   -0.567433    1.503168
     21          1           0       -0.877100   -0.898542   -0.166283
     22          1           0       -1.255214   -3.357922    0.214706
     23          1           0       -1.705978   -3.024931    1.893643
     24          1           0       -0.048817   -2.720941    1.345269
     25          6           0       -3.395267    0.270535   -0.146503
     26          6           0       -4.863357    0.374093   -0.561198
     27          6           0       -5.268409    1.795738   -0.951907
     28          1           0       -3.210922    0.950215    0.696971
     29          1           0       -2.761776    0.619656   -0.973395
     30          1           0       -5.493420    0.024505    0.266707
     31          1           0       -5.045201   -0.306603   -1.402745
     32          1           0       -4.664542    2.150896   -1.793220
     33          1           0       -5.115306    2.483885   -0.114283
     34          1           0       -6.321703    1.846905   -1.244845
 ---------------------------------------------------------------------

 SCF Done:  E(RHF) =  -669.535028854     A.U. after   15 cycles
 E2 =    -0.2093456035D+01 EUMP2 =    -0.67162848488888D+03

 The electronic state is 1-A.
 Alpha  occ. eigenvalues --  -20.60854 -20.60846 -15.85888 -11.31186 -11.27774
 Alpha  occ. eigenvalues --  -11.27744 -11.27510 -11.26764 -11.26748 -11.21661
 Alpha  occ. eigenvalues --  -11.21561 -11.21447 -11.21331 -11.21181 -11.20641
 Alpha  occ. eigenvalues --   -1.59918  -1.39475  -1.19372  -1.08777  -1.08432
 Alpha  occ. eigenvalues --   -1.04771  -1.03490  -0.95929  -0.95603  -0.86915
 Alpha  occ. eigenvalues --   -0.86171  -0.82459  -0.79571  -0.78284  -0.77503
 Alpha  occ. eigenvalues --   -0.72120  -0.71237  -0.70489  -0.65097  -0.64994
 Alpha  occ. eigenvalues --   -0.64785  -0.62176  -0.60882  -0.59256  -0.57526
 Alpha  occ. eigenvalues --   -0.55266  -0.55183  -0.53108  -0.52905  -0.52542
 Alpha  occ. eigenvalues --   -0.52288  -0.49840  -0.48876  -0.48861  -0.47857
 Alpha  occ. eigenvalues --   -0.46614  -0.45797  -0.45734  -0.44866  -0.43727
 Alpha  occ. eigenvalues --   -0.37347  -0.36316
 Alpha virt. eigenvalues --    0.05005   0.11244   0.16451   0.20688   0.22922
 Alpha virt. eigenvalues --    0.24113   0.26140   0.26740   0.27195   0.27974
 Alpha virt. eigenvalues --    0.29117   0.30269   0.31582   0.31648   0.31987

 Mulliken charges:
               1
     1  C   -0.170166
     2  C   -0.219140
     3  C   -0.170572
     4  C    0.154210
     5  C   -0.164912
     6  C   -0.221234
     7  H    0.225692
     8  H    0.223359
     9  H    0.275442
    10  H    0.281031
    11  H    0.223588
    12  N    0.489913
    13  O   -0.463613
    14  O   -0.459825
    15  C   -0.297995
    16  C   -0.302043
    17  C   -0.482374
    18  H    0.148897
    19  H    0.152737
    20  H    0.138691
    21  H    0.155036
    22  H    0.162003
    23  H    0.149679
    24  H    0.174415
    25  C   -0.297479
    26  C   -0.299697
    27  C   -0.475514
    28  H    0.145257
    29  H    0.150250
    30  H    0.151784
    31  H    0.153526
    32  H    0.155109
    33  H    0.153238
    34  H    0.160706
 Sum of Mulliken charges =  -0.00000

 Dipole moment (field-independent basis, Debye):
    X=             -0.7756    Y=              4.5779    Z=              2.0546  Tot=              5.0774
 Quadrupole moment (field-independent basis, Debye-Ang):
   XX=            -98.8346   YY=            -93.7453   ZZ=            -92.1702
   XY=             13.5413   XZ=              3.2641   YZ=             -1.6164

 Normal termination of Gaussian 16 at Thu May  6 08:00:53 2021.
