 Gaussian 16, Revision A.03,
 Gaussian 16:  EM64L-G16RevA.03 25-Dec-2016

 -------------
 #p 6-31g* mp2
 -------------

 ------------------------------------------------------
 Input file generated by CHIRIPA (05-May-2021 14:51:09)
 ------------------------------------------------------
 Symbolic Z-matrix:
 Charge =  0 Multiplicity = 1

                         Standard orientation:
 ---------------------------------------------------------------------
 Center     Atomic      Atomic             Coordinates (Angstroms)
 Number     Number       Type             X           Y           Z
 ---------------------------------------------------------------------
      1          6           0       -4.040813   -0.506575    0.373299
      2          6           0       -4.494109   -0.881190   -1.038144
      3          6           0       -5.693004   -1.830101   -1.041664
      4          1           0       -3.787291   -1.422037    0.925206
      5          1           0       -4.879729   -0.040939    0.908833
      6          1           0       -3.654183   -1.344726   -1.571319
      7          1           0       -4.746398    0.035283   -1.586817
      8          1           0       -6.548039   -1.372430   -0.533675
      9          1           0       -5.449618   -2.760280   -0.518088
     10          1           0       -6.000395   -2.084832   -2.060724
     11          6           0       -2.843151    0.441545    0.393307
     12          6           0       -2.389854    0.816160    1.804750
     13          6           0       -1.190959    1.765071    1.808270
     14          1           0       -2.004234   -0.024091   -0.142227
     15          1           0       -3.096672    1.357007   -0.158600
     16          1           0       -2.137565   -0.100313    2.353423
     17          1           0       -3.229780    1.279696    2.337925
     18          1           0       -1.434345    2.695250    1.284694
     19          1           0       -0.335924    1.307400    1.300281
     20          1           0       -0.883568    2.019803    2.827330
     21          6           0        2.746785    0.315859   -0.524192
     22          6           0        2.776033    1.706727   -1.158712
     23          6           0        1.377676    2.260165   -1.434572
     24          1           0        2.203139   -0.371214   -1.187007
     25          1           0        2.177386    0.360616    0.414518
     26          1           0        3.346383    1.659652   -2.095249
     27          1           0        3.319838    2.390524   -0.494399
     28          1           0        0.803182    2.335897   -0.505691
     29          1           0        0.829877    1.600871   -2.115636
     30          1           0        1.422013    3.255238   -1.888140
     31          6           0        4.137179   -0.250829   -0.242414
     32          6           0        4.107931   -1.641697    0.392106
     33          6           0        5.506287   -2.195136    0.667966
     34          1           0        4.706577   -0.295586   -1.181124
     35          1           0        4.680824    0.436244    0.420401
     36          1           0        3.564125   -2.325495   -0.272207
     37          1           0        3.537581   -1.594622    1.328642
     38          1           0        6.054087   -1.535841    1.349030
     39          1           0        6.080783   -2.270867   -0.260916
     40          1           0        5.461950   -3.190208    1.121534
 ---------------------------------------------------------------------

 SCF Done:  E(RHF) =  -470.733041870     A.U. after   11 cycles
 E2 =    -0.1582978362D+01 EUMP2 =    -0.47231602023227D+03

 The electronic state is 1-A.
 Alpha  occ. eigenvalues --  -11.21613 -11.21612 -11.21591 -11.21562 -11.21415
 Alpha  occ. eigenvalues --  -11.21390 -11.21355 -11.21330 -11.21094 -11.21078
 Alpha  occ. eigenvalues --  -11.21064 -11.20938  -1.08435  -1.08415  -1.03552
 Alpha  occ. eigenvalues --   -1.03492  -0.96011  -0.95934  -0.87043  -0.86940
 Alpha  occ. eigenvalues --   -0.79671  -0.79509  -0.78282  -0.78194  -0.65096
 Alpha  occ. eigenvalues --   -0.65020  -0.61008  -0.60849  -0.59380  -0.59305
 Alpha  occ. eigenvalues --   -0.57699  -0.57484  -0.55318  -0.55210  -0.52684
 Alpha  occ. eigenvalues --   -0.52643  -0.52562  -0.52256  -0.49979  -0.49864
 Alpha  occ. eigenvalues --   -0.48121  -0.47710  -0.46712  -0.46514  -0.45897
 Alpha  occ. eigenvalues --   -0.45741  -0.45717  -0.45480  -0.43786  -0.43769
 Alpha virt. eigenvalues --    0.21360   0.23098   0.23520   0.24872   0.25875
 Alpha virt. eigenvalues --    0.26602   0.26951   0.27662   0.27832   0.29206
 Alpha virt. eigenvalues --    0.30653   0.31287   0.31738   0.31786   0.31994

 Mulliken charges:
               1
     1  C   -0.298316
     2  C   -0.299620
     3  C   -0.475705
     4  H    0.149587
     5  H    0.149449
     6  H    0.151892
     7  H    0.152042
     8  H    0.155167
     9  H    0.155145
    10  H    0.160211
    11  C   -0.298646
    12  C   -0.299375
    13  C   -0.483040
    14  H    0.150412
    15  H    0.149986
    16  H    0.151871
    17  H    0.151967
    18  H    0.156254
    19  H    0.161462
    20  H    0.160161
    21  C   -0.301537
    22  C   -0.299254
    23  C   -0.483076
    24  H    0.149237
    25  H    0.151516
    26  H    0.151658
    27  H    0.151851
    28  H    0.164294
    29  H    0.154371
    30  H    0.159616
    31  C   -0.298142
    32  C   -0.299696
    33  C   -0.475705
    34  H    0.149781
    35  H    0.149868
    36  H    0.151752
    37  H    0.151834
    38  H    0.155278
    39  H    0.155233
    40  H    0.160216
 Sum of Mulliken charges =  -0.00000

 Dipole moment (field-independent basis, Debye):
    X=             -0.0171    Y=              0.0073    Z=              0.0167  Tot=              0.0250
 Quadrupole moment (field-independent basis, Debye-Ang):
   XX=            -86.0346   YY=            -84.7135   ZZ=            -84.0784
   XY=             -0.6489   XZ=             -0.3511   YZ=              0.4600

 Normal termination of Gaussian 16 at Wed May  5 21:19:43 2021.
