 Gaussian 16, Revision A.03,
 Gaussian 16:  EM64L-G16RevA.03 25-Dec-2016

 -------------
 #p 6-31g* mp2
 -------------

 ------------------------------------------------------
 Input file generated by CHIRIPA (05-May-2021 14:57:22)
 ------------------------------------------------------
 Symbolic Z-matrix:
 Charge =  0 Multiplicity = 1

                         Standard orientation:
 ---------------------------------------------------------------------
 Center     Atomic      Atomic             Coordinates (Angstroms)
 Number     Number       Type             X           Y           Z
 ---------------------------------------------------------------------
      1          6           0       -3.572174   -1.872267    0.651328
      2          6           0       -3.496679   -1.514775   -0.698864
      3          6           0       -3.000558   -0.263080   -1.075259
      4          6           0       -2.586815    0.610464   -0.070755
      5          6           0       -2.649549    0.283467    1.282917
      6          6           0       -3.149113   -0.973590    1.636173
      7          1           0       -3.958910   -2.846697    0.934734
      8          1           0       -3.824515   -2.210680   -1.465861
      9          1           0       -2.931097    0.039429   -2.113085
     10          1           0       -2.315180    0.998457    2.024810
     11          1           0       -3.206589   -1.248524    2.685531
     12          7           0       -2.059772    1.938415   -0.456980
     13          8           0       -1.701651    2.690046    0.447142
     14          8           0       -2.014775    2.202488   -1.656513
     15          6           0        4.141459    1.623796    0.394033
     16          6           0        2.753341    1.732821    0.527313
     17          6           0        1.930345    0.622740    0.315304
     18          6           0        2.531779   -0.586442   -0.030306
     19          6           0        3.911583   -0.726850   -0.170724
     20          6           0        4.715138    0.396473    0.046054
     21          1           0        4.773230    2.491277    0.560579
     22          1           0        2.305052    2.684716    0.797457
     23          1           0        0.852877    0.679098    0.411753
     24          1           0        4.329356   -1.689030   -0.441081
     25          1           0        5.792872    0.308863   -0.058158
     26          7           0        1.670801   -1.768645   -0.257274
     27          8           0        2.225235   -2.822721   -0.560861
     28          8           0        0.457835   -1.618794   -0.127290
 ---------------------------------------------------------------------

 SCF Done:  E(RHF) =  -868.339916226     A.U. after   16 cycles
 E2 =    -0.2600267674D+01 EUMP2 =    -0.87094018389957D+03

 The electronic state is 1-A.
 Alpha  occ. eigenvalues --  -20.60800 -20.60747 -20.60686 -20.60681 -15.85785
 Alpha  occ. eigenvalues --  -15.85720 -11.30867 -11.30634 -11.27436 -11.27348
 Alpha  occ. eigenvalues --  -11.27220 -11.27129 -11.27096 -11.26811 -11.26423
 Alpha  occ. eigenvalues --  -11.26264 -11.26106 -11.26036  -1.59857  -1.59763
 Alpha  occ. eigenvalues --   -1.39421  -1.39322  -1.19012  -1.18749  -1.08452
 Alpha  occ. eigenvalues --   -1.08259  -1.04364  -1.04101  -0.95327  -0.95181
 Alpha  occ. eigenvalues --   -0.85784  -0.85550  -0.82150  -0.82052  -0.77231
 Alpha  occ. eigenvalues --   -0.77152  -0.72024  -0.71966  -0.71183  -0.71075
 Alpha  occ. eigenvalues --   -0.70112  -0.69914  -0.64659  -0.64445  -0.64351
 Alpha  occ. eigenvalues --   -0.64150  -0.61709  -0.61501  -0.54894  -0.54651
 Alpha  occ. eigenvalues --   -0.52726  -0.52467  -0.52347  -0.52239  -0.48807
 Alpha  occ. eigenvalues --   -0.48730  -0.48714  -0.48689  -0.44930  -0.44779
 Alpha  occ. eigenvalues --   -0.36996  -0.36649  -0.35958  -0.35619
 Alpha virt. eigenvalues --    0.05260   0.05358   0.11677   0.11964   0.16818
 Alpha virt. eigenvalues --    0.16970   0.21717   0.22070   0.27283   0.27947
 Alpha virt. eigenvalues --    0.28389   0.28960   0.31132   0.31660   0.32437

 Mulliken charges:
               1
     1  C   -0.163523
     2  C   -0.211389
     3  C   -0.163640
     4  C    0.159314
     5  C   -0.172526
     6  C   -0.213450
     7  H    0.225369
     8  H    0.223262
     9  H    0.273316
    10  H    0.269049
    11  H    0.220932
    12  N    0.486302
    13  O   -0.471375
    14  O   -0.458050
    15  C   -0.170838
    16  C   -0.219886
    17  C   -0.171062
    18  C    0.157751
    19  C   -0.171708
    20  C   -0.218814
    21  H    0.225763
    22  H    0.233977
    23  H    0.274795
    24  H    0.273373
    25  H    0.221976
    26  N    0.488511
    27  O   -0.462725
    28  O   -0.464703
 Sum of Mulliken charges =  -0.00000

 Dipole moment (field-independent basis, Debye):
    X=              1.0520    Y=             -0.6586    Z=              2.0870  Tot=              2.4282
 Quadrupole moment (field-independent basis, Debye-Ang):
   XX=            -77.2759   YY=           -114.7295   ZZ=           -101.1114
   XY=             18.8193   XZ=             -1.3279   YZ=              2.3680

 Normal termination of Gaussian 16 at Fri May  7 00:16:08 2021.
