 Gaussian 16, Revision A.03,
 Gaussian 16:  EM64L-G16RevA.03 25-Dec-2016

 -------------
 #p 6-31g* mp2
 -------------

 ------------------------------------------------------
 Input file generated by CHIRIPA (05-May-2021 14:57:24)
 ------------------------------------------------------
 Symbolic Z-matrix:
 Charge =  0 Multiplicity = 1

                         Standard orientation:
 ---------------------------------------------------------------------
 Center     Atomic      Atomic             Coordinates (Angstroms)
 Number     Number       Type             X           Y           Z
 ---------------------------------------------------------------------
      1          6           0        3.195288    2.218231    0.842565
      2          6           0        4.253441    1.450014    0.345898
      3          6           0        4.016987    0.185608   -0.201748
      4          6           0        2.704097   -0.281689   -0.236982
      5          6           0        1.628725    0.459866    0.249806
      6          6           0        1.888611    1.721581    0.793021
      7          1           0        3.388073    3.199407    1.266268
      8          1           0        5.269242    1.833173    0.383068
      9          1           0        4.817548   -0.430155   -0.593357
     10          1           0        0.626859    0.051086    0.198984
     11          1           0        1.064884    2.315983    1.177993
     12          7           0        2.441370   -1.618835   -0.814404
     13          8           0        1.275648   -2.007874   -0.833821
     14          8           0        3.406143   -2.252531   -1.236638
     15          6           0       -3.227854    1.986269   -1.416909
     16          6           0       -3.848090    0.749169   -1.620417
     17          6           0       -3.589342   -0.324388   -0.763052
     18          6           0       -2.700948   -0.124786    0.292507
     19          6           0       -2.067343    1.095628    0.521468
     20          6           0       -2.341025    2.155251   -0.348501
     21          1           0       -3.434656    2.814822   -2.087826
     22          1           0       -4.537259    0.615046   -2.449332
     23          1           0       -4.055699   -1.292818   -0.897482
     24          1           0       -1.385045    1.198885    1.356467
     25          1           0       -1.857894    3.114877   -0.188031
     26          7           0       -2.419119   -1.253937    1.206832
     27          8           0       -1.632475   -1.052386    2.129440
     28          8           0       -2.990202   -2.319138    0.983559
 ---------------------------------------------------------------------

 SCF Done:  E(RHF) =  -868.336148842     A.U. after   16 cycles
 E2 =    -0.2602592553D+01 EUMP2 =    -0.87093874139520D+03

 The electronic state is 1-A.
 Alpha  occ. eigenvalues --  -20.60915 -20.60873 -20.60527 -20.60498 -15.85944
 Alpha  occ. eigenvalues --  -15.85573 -11.31548 -11.31041 -11.28232 -11.28006
 Alpha  occ. eigenvalues --  -11.27831 -11.27674 -11.27627 -11.27504 -11.27263
 Alpha  occ. eigenvalues --  -11.27084 -11.26811 -11.26700  -1.59941  -1.59584
 Alpha  occ. eigenvalues --   -1.39500  -1.39134  -1.19714  -1.19265  -1.09045
 Alpha  occ. eigenvalues --   -1.08649  -1.05182  -1.04697  -0.95859  -0.95452
 Alpha  occ. eigenvalues --   -0.86553  -0.86101  -0.82703  -0.82303  -0.77774
 Alpha  occ. eigenvalues --   -0.77284  -0.72163  -0.71806  -0.71253  -0.70903
 Alpha  occ. eigenvalues --   -0.70848  -0.70351  -0.65373  -0.65191  -0.64921
 Alpha  occ. eigenvalues --   -0.64752  -0.62689  -0.61886  -0.55614  -0.55226
 Alpha  occ. eigenvalues --   -0.53466  -0.53254  -0.52998  -0.52800  -0.48939
 Alpha  occ. eigenvalues --   -0.48901  -0.48563  -0.48536  -0.44843  -0.44512
 Alpha  occ. eigenvalues --   -0.37649  -0.37266  -0.36793  -0.36258
 Alpha virt. eigenvalues --    0.04818   0.05251   0.10743   0.11357   0.16245
 Alpha virt. eigenvalues --    0.16700   0.19211   0.22190   0.24964   0.27634
 Alpha virt. eigenvalues --    0.28197   0.28952   0.30694   0.31425   0.32516

 Mulliken charges:
               1
     1  C   -0.170106
     2  C   -0.219504
     3  C   -0.169193
     4  C    0.157382
     5  C   -0.166835
     6  C   -0.222337
     7  H    0.224050
     8  H    0.223080
     9  H    0.275986
    10  H    0.281026
    11  H    0.211547
    12  N    0.488217
    13  O   -0.457300
    14  O   -0.461378
    15  C   -0.170775
    16  C   -0.216491
    17  C   -0.167269
    18  C    0.167568
    19  C   -0.189409
    20  C   -0.215811
    21  H    0.226903
    22  H    0.226451
    23  H    0.279762
    24  H    0.270011
    25  H    0.219265
    26  N    0.491424
    27  O   -0.464039
    28  O   -0.452226
 Sum of Mulliken charges =  -0.00000

 Dipole moment (field-independent basis, Debye):
    X=             -0.3334    Y=              8.3535    Z=             -1.3482  Tot=              8.4682
 Quadrupole moment (field-independent basis, Debye-Ang):
   XX=            -87.0414   YY=           -107.8847   ZZ=           -107.4563
   XY=              3.5967   XZ=             15.1458   YZ=              1.4745

 Normal termination of Gaussian 16 at Thu May  6 14:39:15 2021.
