 Gaussian 16, Revision A.03,
 Gaussian 16:  EM64L-G16RevA.03 25-Dec-2016

 -------------
 #p 6-31g* mp2
 -------------

 ------------------------------------------------------
 Input file generated by CHIRIPA (05-May-2021 14:53:15)
 ------------------------------------------------------
 Symbolic Z-matrix:
 Charge =  0 Multiplicity = 1

                         Standard orientation:
 ---------------------------------------------------------------------
 Center     Atomic      Atomic             Coordinates (Angstroms)
 Number     Number       Type             X           Y           Z
 ---------------------------------------------------------------------
      1          6           0       -3.507472    0.402372   -0.185111
      2          6           0       -3.310800    1.774440    0.460439
      3          6           0       -2.035446    2.472845   -0.012315
      4          1           0       -2.637106   -0.229413    0.039065
      5          1           0       -3.535735    0.519417   -1.277309
      6          1           0       -3.284303    1.655013    1.551150
      7          1           0       -4.181823    2.402970    0.234860
      8          1           0       -2.056805    2.621119   -1.096824
      9          1           0       -1.154185    1.868912    0.226944
     10          1           0       -1.914618    3.451937    0.461647
     11          6           0       -4.778176   -0.308273    0.277516
     12          6           0       -4.974847   -1.680341   -0.368034
     13          6           0       -6.250201   -2.378746    0.104720
     14          1           0       -4.749913   -0.425318    1.369714
     15          1           0       -5.648542    0.323513    0.053340
     16          1           0       -4.103824   -2.308871   -0.142456
     17          1           0       -5.001345   -1.560914   -1.458745
     18          1           0       -7.131463   -1.774813   -0.134540
     19          1           0       -6.228842   -2.527019    1.189229
     20          1           0       -6.371030   -3.357837   -0.369243
     21          6           0        4.952322   -1.857460    0.291315
     22          6           0        4.452123   -1.160151    1.395889
     23          6           0        3.501217   -0.149423    1.226321
     24          6           0        3.070709    0.139261   -0.067749
     25          6           0        3.550068   -0.537582   -1.188190
     26          6           0        4.500494   -1.544502   -0.994931
     27          1           0        5.690822   -2.641139    0.432242
     28          1           0        4.801201   -1.401059    2.395965
     29          1           0        3.097213    0.406209    2.063861
     30          1           0        3.182930   -0.274896   -2.172884
     31          1           0        4.887197   -2.084386   -1.854600
     32          7           0        2.064282    1.207258   -0.259803
     33          8           0        1.701180    1.442562   -1.410205
     34          8           0        1.657602    1.788828    0.743704
 ---------------------------------------------------------------------

 SCF Done:  E(RHF) =  -669.536113049     A.U. after   15 cycles
 E2 =    -0.2091149380D+01 EUMP2 =    -0.67162726242926D+03

 The electronic state is 1-A.
 Alpha  occ. eigenvalues --  -20.60956 -20.60951 -15.85976 -11.31308 -11.27870
 Alpha  occ. eigenvalues --  -11.27865 -11.27607 -11.26875 -11.26865 -11.21095
 Alpha  occ. eigenvalues --  -11.20709 -11.20675 -11.20478 -11.20387 -11.19255
 Alpha  occ. eigenvalues --   -1.60009  -1.39564  -1.19474  -1.08877  -1.07609
 Alpha  occ. eigenvalues --   -1.04870  -1.02599  -0.95717  -0.95009  -0.86270
 Alpha  occ. eigenvalues --   -0.86015  -0.82549  -0.78702  -0.77603  -0.77368
 Alpha  occ. eigenvalues --   -0.72184  -0.71329  -0.70581  -0.65127  -0.64872
 Alpha  occ. eigenvalues --   -0.64253  -0.62216  -0.60002  -0.58481  -0.56620
 Alpha  occ. eigenvalues --   -0.55376  -0.54299  -0.53202  -0.52961  -0.51692
 Alpha  occ. eigenvalues --   -0.51438  -0.49211  -0.48944  -0.48696  -0.46957
 Alpha  occ. eigenvalues --   -0.45762  -0.45013  -0.44881  -0.44743  -0.42863
 Alpha  occ. eigenvalues --   -0.37452  -0.36471
 Alpha virt. eigenvalues --    0.04892   0.11184   0.16391   0.21324   0.23609
 Alpha virt. eigenvalues --    0.25312   0.27241   0.27429   0.28175   0.28272
 Alpha virt. eigenvalues --    0.29113   0.30878   0.32345   0.32459   0.32529

 Mulliken charges:
               1
     1  C   -0.296520
     2  C   -0.300682
     3  C   -0.476885
     4  H    0.147659
     5  H    0.149152
     6  H    0.147922
     7  H    0.146615
     8  H    0.153310
     9  H    0.173632
    10  H    0.157213
    11  C   -0.297398
    12  C   -0.298751
    13  C   -0.475140
    14  H    0.147688
    15  H    0.148486
    16  H    0.150009
    17  H    0.151402
    18  H    0.154802
    19  H    0.154105
    20  H    0.158057
    21  C   -0.170554
    22  C   -0.218581
    23  C   -0.170916
    24  C    0.159071
    25  C   -0.170797
    26  C   -0.218595
    27  H    0.226054
    28  H    0.223858
    29  H    0.275827
    30  H    0.276018
    31  H    0.223912
    32  N    0.487267
    33  O   -0.458065
    34  O   -0.459175
 Sum of Mulliken charges =  -0.00000

 Dipole moment (field-independent basis, Debye):
    X=              3.9022    Y=             -3.7196    Z=              0.6432  Tot=              5.4292
 Quadrupole moment (field-independent basis, Debye-Ang):
   XX=            -75.2848   YY=            -96.7964   ZZ=            -89.4592
   XY=            -12.2261   XZ=              2.4841   YZ=              1.0203

 Normal termination of Gaussian 16 at Thu May  6 13:47:57 2021.
