 Gaussian 16, Revision A.03,
 Gaussian 16:  EM64L-G16RevA.03 25-Dec-2016

 -------------
 #p 6-31g* mp2
 -------------

 ------------------------------------------------------
 Input file generated by CHIRIPA (05-May-2021 14:57:25)
 ------------------------------------------------------
 Symbolic Z-matrix:
 Charge =  0 Multiplicity = 1

                         Standard orientation:
 ---------------------------------------------------------------------
 Center     Atomic      Atomic             Coordinates (Angstroms)
 Number     Number       Type             X           Y           Z
 ---------------------------------------------------------------------
      1          6           0        5.220809   -2.223686   -0.098078
      2          6           0        5.927350   -1.040630   -0.338285
      3          6           0        5.284599    0.198474   -0.260574
      4          6           0        3.928369    0.217730    0.061233
      5          6           0        3.197106   -0.943577    0.306004
      6          6           0        3.860340   -2.171475    0.222734
      7          1           0        5.728069   -3.181899   -0.160606
      8          1           0        6.983978   -1.078147   -0.587633
      9          1           0        5.807475    1.129711   -0.441728
     10          1           0        2.144549   -0.874248    0.552448
     11          1           0        3.309104   -3.088642    0.409785
     12          7           0        3.237074    1.523582    0.146445
     13          8           0        2.041608    1.513589    0.431746
     14          8           0        3.903794    2.532377   -0.073681
     15          6           0       -2.875217    2.233773   -0.100812
     16          6           0       -2.126505    1.052594   -0.128515
     17          6           0       -2.762542   -0.192053   -0.099226
     18          6           0       -4.155131   -0.218705   -0.042005
     19          6           0       -4.928811    0.940555   -0.013221
     20          6           0       -4.271518    2.174089   -0.043354
     21          1           0       -2.372872    3.196328   -0.123892
     22          1           0       -1.041988    1.095910   -0.173135
     23          1           0       -2.207373   -1.121994   -0.119629
     24          1           0       -6.008527    0.865395    0.031284
     25          1           0       -4.855542    3.089783   -0.021729
     26          7           0       -4.839727   -1.530475   -0.010551
     27          8           0       -6.067768   -1.526956    0.039839
     28          8           0       -4.135308   -2.537320   -0.036883
 ---------------------------------------------------------------------

 SCF Done:  E(RHF) =  -868.340028332     A.U. after   16 cycles
 E2 =    -0.2598243990D+01 EUMP2 =    -0.87093827232269D+03

 The electronic state is 1-A.
 Alpha  occ. eigenvalues --  -20.61658 -20.61595 -20.60435 -20.60424 -15.86667
 Alpha  occ. eigenvalues --  -15.85477 -11.31776 -11.30668 -11.28338 -11.28291
 Alpha  occ. eigenvalues --  -11.27980 -11.27256 -11.27246 -11.27208 -11.27183
 Alpha  occ. eigenvalues --  -11.26798 -11.26184 -11.25991  -1.60687  -1.59510
 Alpha  occ. eigenvalues --   -1.40253  -1.39070  -1.19917  -1.18791  -1.09353
 Alpha  occ. eigenvalues --   -1.08198  -1.05283  -1.04160  -0.96235  -0.95078
 Alpha  occ. eigenvalues --   -0.86692  -0.85547  -0.83082  -0.81915  -0.78163
 Alpha  occ. eigenvalues --   -0.77002  -0.72902  -0.71988  -0.71700  -0.71021
 Alpha  occ. eigenvalues --   -0.70830  -0.69870  -0.65575  -0.65276  -0.64428
 Alpha  occ. eigenvalues --   -0.64107  -0.62639  -0.61502  -0.55779  -0.54606
 Alpha  occ. eigenvalues --   -0.53621  -0.53369  -0.52508  -0.52213  -0.49664
 Alpha  occ. eigenvalues --   -0.49613  -0.48468  -0.48434  -0.45710  -0.44516
 Alpha  occ. eigenvalues --   -0.37871  -0.36873  -0.36736  -0.35768
 Alpha virt. eigenvalues --    0.04346   0.05507   0.10785   0.11896   0.15885
 Alpha virt. eigenvalues --    0.17072   0.20678   0.22142   0.26268   0.27227
 Alpha virt. eigenvalues --    0.28675   0.28968   0.30511   0.31382   0.32696

 Mulliken charges:
               1
     1  C   -0.169899
     2  C   -0.218302
     3  C   -0.170578
     4  C    0.158247
     5  C   -0.170061
     6  C   -0.218141
     7  H    0.228409
     8  H    0.225503
     9  H    0.276364
    10  H    0.270860
    11  H    0.226830
    12  N    0.492876
    13  O   -0.473816
    14  O   -0.456040
    15  C   -0.172178
    16  C   -0.225888
    17  C   -0.173404
    18  C    0.158518
    19  C   -0.172660
    20  C   -0.218631
    21  H    0.230914
    22  H    0.243625
    23  H    0.269289
    24  H    0.273388
    25  H    0.222011
    26  N    0.488321
    27  O   -0.461555
    28  O   -0.464002
 Sum of Mulliken charges =  -0.00000

 Dipole moment (field-independent basis, Debye):
    X=              5.3098    Y=              0.0949    Z=             -0.4313  Tot=              5.3281
 Quadrupole moment (field-independent basis, Debye-Ang):
   XX=            -98.0907   YY=           -107.2365   ZZ=           -106.3453
   XY=            -38.3318   XZ=             -2.1251   YZ=             -1.0942

 Normal termination of Gaussian 16 at Fri May  7 00:23:49 2021.
