 Gaussian 16, Revision A.03,
 Gaussian 16:  EM64L-G16RevA.03 25-Dec-2016

 -------------
 #p 6-31g* mp2
 -------------

 ------------------------------------------------------
 Input file generated by CHIRIPA (05-May-2021 14:53:11)
 ------------------------------------------------------
 Symbolic Z-matrix:
 Charge =  0 Multiplicity = 1

                         Standard orientation:
 ---------------------------------------------------------------------
 Center     Atomic      Atomic             Coordinates (Angstroms)
 Number     Number       Type             X           Y           Z
 ---------------------------------------------------------------------
      1          6           0        5.003948   -0.235767   -0.178702
      2          6           0        5.998426    0.102851    0.932305
      3          6           0        7.422854    0.297092    0.411662
      4          1           0        5.335398   -1.148095   -0.693234
      5          1           0        5.014953    0.567456   -0.928440
      6          1           0        5.984538   -0.700106    1.680424
      7          1           0        5.664467    1.014372    1.444376
      8          1           0        7.458215    1.111587   -0.319056
      9          1           0        7.780104   -0.612633   -0.081667
     10          1           0        8.117256    0.538363    1.222498
     11          6           0        3.575652   -0.432909    0.326110
     12          6           0        2.581174   -0.771528   -0.784897
     13          6           0        1.156746   -0.965768   -0.264254
     14          1           0        3.564647   -1.236132    1.075847
     15          1           0        3.244202    0.479419    0.840642
     16          1           0        2.915132   -1.683049   -1.296968
     17          1           0        2.595062    0.031430   -1.533016
     18          1           0        0.799495   -0.056043    0.229075
     19          1           0        1.121385   -1.780263    0.466464
     20          1           0        0.462344   -1.207039   -1.075090
     21          6           0       -5.255499   -1.045363    0.958903
     22          6           0       -4.637247   -1.503381   -0.209217
     23          6           0       -3.581326   -0.787564   -0.781216
     24          6           0       -3.167326    0.387516   -0.155851
     25          6           0       -3.763074    0.869718    1.008561
     26          6           0       -4.817212    0.137639    1.562998
     27          1           0       -6.075071   -1.607743    1.396426
     28          1           0       -4.975530   -2.421786   -0.680538
     29          1           0       -3.084845   -1.119322   -1.685019
     30          1           0       -3.403759    1.788712    1.455504
     31          1           0       -5.295484    0.495735    2.470231
     32          7           0       -2.050413    1.153927   -0.752106
     33          8           0       -1.704335    2.186232   -0.181832
     34          8           0       -1.542203    0.707823   -1.778435
 ---------------------------------------------------------------------

 SCF Done:  E(RHF) =  -669.535980964     A.U. after   15 cycles
 E2 =    -0.2091525894D+01 EUMP2 =    -0.67162750685779D+03

 The electronic state is 1-A.
 Alpha  occ. eigenvalues --  -20.60881 -20.60871 -15.85893 -11.31229 -11.27796
 Alpha  occ. eigenvalues --  -11.27792 -11.27536 -11.26807 -11.26797 -11.21089
 Alpha  occ. eigenvalues --  -11.20759 -11.20690 -11.20634 -11.20608 -11.20011
 Alpha  occ. eigenvalues --   -1.59930  -1.39489  -1.19398  -1.08802  -1.07730
 Alpha  occ. eigenvalues --   -1.04798  -1.02801  -0.95647  -0.95254  -0.86286
 Alpha  occ. eigenvalues --   -0.86199  -0.82482  -0.78896  -0.77545  -0.77524
 Alpha  occ. eigenvalues --   -0.72133  -0.71245  -0.70512  -0.65057  -0.64805
 Alpha  occ. eigenvalues --   -0.64358  -0.62149  -0.60191  -0.58635  -0.56856
 Alpha  occ. eigenvalues --   -0.55306  -0.54546  -0.53124  -0.52893  -0.51952
 Alpha  occ. eigenvalues --   -0.51693  -0.49243  -0.48890  -0.48851  -0.47209
 Alpha  occ. eigenvalues --   -0.45927  -0.45082  -0.45002  -0.44870  -0.43004
 Alpha  occ. eigenvalues --   -0.37375  -0.36398
 Alpha virt. eigenvalues --    0.04974   0.11247   0.16445   0.21342   0.23557
 Alpha virt. eigenvalues --    0.25047   0.27214   0.27321   0.27977   0.28171
 Alpha virt. eigenvalues --    0.28845   0.30793   0.31810   0.32071   0.32443

 Mulliken charges:
               1
     1  C   -0.298024
     2  C   -0.299199
     3  C   -0.475373
     4  H    0.147676
     5  H    0.150902
     6  H    0.150116
     7  H    0.152236
     8  H    0.155483
     9  H    0.154098
    10  H    0.158585
    11  C   -0.298437
    12  C   -0.299121
    13  C   -0.479381
    14  H    0.145638
    15  H    0.151881
    16  H    0.146986
    17  H    0.159184
    18  H    0.159105
    19  H    0.144453
    20  H    0.168986
    21  C   -0.170623
    22  C   -0.218539
    23  C   -0.170417
    24  C    0.159236
    25  C   -0.170868
    26  C   -0.218539
    27  H    0.225743
    28  H    0.223589
    29  H    0.275334
    30  H    0.275573
    31  H    0.223574
    32  N    0.489098
    33  O   -0.460698
    34  O   -0.458257
 Sum of Mulliken charges =  -0.00000

 Dipole moment (field-independent basis, Debye):
    X=             -4.1358    Y=             -2.5935    Z=              2.0100  Tot=              5.2793
 Quadrupole moment (field-independent basis, Debye-Ang):
   XX=            -72.2764   YY=            -94.1965   ZZ=            -93.1230
   XY=              6.8792   XZ=             -6.4913   YZ=              4.0746

 Normal termination of Gaussian 16 at Thu May  6 05:39:04 2021.
