 Gaussian 16, Revision A.03,
 Gaussian 16:  EM64L-G16RevA.03 25-Dec-2016

 -------------
 #p 6-31g* mp2
 -------------

 ------------------------------------------------------
 Input file generated by CHIRIPA (05-May-2021 14:57:25)
 ------------------------------------------------------
 Symbolic Z-matrix:
 Charge =  0 Multiplicity = 1

                         Standard orientation:
 ---------------------------------------------------------------------
 Center     Atomic      Atomic             Coordinates (Angstroms)
 Number     Number       Type             X           Y           Z
 ---------------------------------------------------------------------
      1          6           0        1.164781   -1.876565   -0.223361
      2          6           0        2.494320   -2.298758   -0.326326
      3          6           0        3.541023   -1.376019   -0.239646
      4          6           0        3.220599   -0.032799   -0.048913
      5          6           0        1.906072    0.418857    0.057464
      6          6           0        0.875411   -0.521494   -0.032131
      7          1           0        0.357908   -2.600211   -0.291828
      8          1           0        2.722019   -3.350488   -0.474857
      9          1           0        4.579240   -1.675501   -0.316014
     10          1           0        1.710390    1.473970    0.205326
     11          1           0       -0.156189   -0.190745    0.048184
     12          7           0        4.320205    0.953386    0.044395
     13          8           0        4.011485    2.131111    0.212600
     14          8           0        5.469974    0.529959   -0.052443
     15          6           0       -3.109496   -2.310197    0.352945
     16          6           0       -2.707183   -1.494157    1.415368
     17          6           0       -2.664533   -0.104680    1.266751
     18          6           0       -3.032591    0.437559    0.036386
     19          6           0       -3.437837   -0.348895   -1.040906
     20          6           0       -3.472898   -1.735974   -0.869645
     21          1           0       -3.139679   -3.388644    0.477189
     22          1           0       -2.424406   -1.937342    2.365983
     23          1           0       -2.356968    0.550530    2.072679
     24          1           0       -3.713885    0.122007   -1.976569
     25          1           0       -3.785748   -2.367262   -1.696473
     26          7           0       -2.991457    1.907266   -0.132934
     27          8           0       -3.320645    2.360403   -1.226982
     28          8           0       -2.630805    2.578258    0.831606
 ---------------------------------------------------------------------

 SCF Done:  E(RHF) =  -868.336783028     A.U. after   16 cycles
 E2 =    -0.2602555406D+01 EUMP2 =    -0.87093933843368D+03

 The electronic state is 1-A.
 Alpha  occ. eigenvalues --  -20.61733 -20.61721 -20.60632 -20.60614 -15.86790
 Alpha  occ. eigenvalues --  -15.85678 -11.32396 -11.31094 -11.28935 -11.28931
 Alpha  occ. eigenvalues --  -11.28740 -11.28016 -11.27997 -11.27697 -11.27597
 Alpha  occ. eigenvalues --  -11.27449 -11.26756 -11.26558  -1.60809  -1.59701
 Alpha  occ. eigenvalues --   -1.40350  -1.39252  -1.20620  -1.19273  -1.09945
 Alpha  occ. eigenvalues --   -1.08671  -1.06000  -1.04674  -0.96729  -0.95493
 Alpha  occ. eigenvalues --   -0.87371  -0.86079  -0.83520  -0.82321  -0.78538
 Alpha  occ. eigenvalues --   -0.77358  -0.72982  -0.72171  -0.71895  -0.71638
 Alpha  occ. eigenvalues --   -0.71027  -0.70405  -0.66206  -0.65932  -0.64921
 Alpha  occ. eigenvalues --   -0.64736  -0.63287  -0.62057  -0.56459  -0.55230
 Alpha  occ. eigenvalues --   -0.54474  -0.54028  -0.53024  -0.52579  -0.49768
 Alpha  occ. eigenvalues --   -0.49734  -0.48660  -0.48646  -0.45691  -0.44646
 Alpha  occ. eigenvalues --   -0.38622  -0.37719  -0.37199  -0.36250
 Alpha virt. eigenvalues --    0.03926   0.05165   0.09967   0.11348   0.15344
 Alpha virt. eigenvalues --    0.16650   0.20298   0.21548   0.26323   0.27029
 Alpha virt. eigenvalues --    0.27377   0.28369   0.30042   0.30959   0.31645

 Mulliken charges:
               1
     1  C   -0.176443
     2  C   -0.218685
     3  C   -0.171631
     4  C    0.158961
     5  C   -0.174872
     6  C   -0.224590
     7  H    0.219709
     8  H    0.220715
     9  H    0.274976
    10  H    0.281270
    11  H    0.234499
    12  N    0.487824
    13  O   -0.457745
    14  O   -0.461717
    15  C   -0.178484
    16  C   -0.214964
    17  C   -0.187820
    18  C    0.156753
    19  C   -0.171735
    20  C   -0.217947
    21  H    0.228782
    22  H    0.229311
    23  H    0.280624
    24  H    0.280538
    25  H    0.228177
    26  N    0.487400
    27  O   -0.455455
    28  O   -0.457449
 Sum of Mulliken charges =  -0.00000

 Dipole moment (field-independent basis, Debye):
    X=             -4.3590    Y=             -8.4943    Z=              0.2657  Tot=              9.5512
 Quadrupole moment (field-independent basis, Debye-Ang):
   XX=           -126.4729   YY=           -107.1673   ZZ=           -100.8477
   XY=              2.3002   XZ=             -1.3193   YZ=              1.2603

 Normal termination of Gaussian 16 at Wed May  5 21:10:36 2021.
