 Gaussian 16, Revision A.03,
 Gaussian 16:  EM64L-G16RevA.03 25-Dec-2016

 -------------
 #p 6-31g* mp2
 -------------

 ------------------------------------------------------
 Input file generated by CHIRIPA (05-May-2021 14:53:14)
 ------------------------------------------------------
 Symbolic Z-matrix:
 Charge =  0 Multiplicity = 1

                         Standard orientation:
 ---------------------------------------------------------------------
 Center     Atomic      Atomic             Coordinates (Angstroms)
 Number     Number       Type             X           Y           Z
 ---------------------------------------------------------------------
      1          6           0       -3.742989   -0.043285    0.106591
      2          6           0       -5.068905   -0.205896   -0.637377
      3          6           0       -6.035786    0.950691   -0.381949
      4          1           0       -3.942017    0.039023    1.183883
      5          1           0       -3.273420    0.902405   -0.197664
      6          1           0       -5.535170   -1.151662   -0.332845
      7          1           0       -4.866683   -0.288019   -1.713006
      8          1           0       -5.594403    1.899812   -0.702810
      9          1           0       -6.266688    1.031262    0.685193
     10          1           0       -6.977096    0.814075   -0.923365
     11          6           0       -2.765871   -1.191666   -0.138744
     12          6           0       -1.439955   -1.029055    0.605224
     13          6           0       -0.473074   -2.185642    0.349796
     14          1           0       -3.235440   -2.137356    0.165511
     15          1           0       -2.566843   -1.273974   -1.216036
     16          1           0       -1.642177   -0.946932    1.680853
     17          1           0       -0.973690   -0.083289    0.300692
     18          1           0       -0.242172   -2.266213   -0.717346
     19          1           0       -0.914457   -3.134763    0.670657
     20          1           0        0.468236   -2.049026    0.891212
     21          6           0        1.228491    2.566868    0.555001
     22          6           0        1.267457    1.506861    1.466805
     23          6           0        1.992316    0.347116    1.176772
     24          6           0        2.669559    0.280884   -0.039881
     25          6           0        2.649965    1.320055   -0.968876
     26          6           0        1.918653    2.470253   -0.657790
     27          1           0        0.662896    3.464079    0.788483
     28          1           0        0.732429    1.579117    2.409444
     29          1           0        2.039449   -0.488457    1.864533
     30          1           0        3.193426    1.218762   -1.900438
     31          1           0        1.890169    3.291903   -1.367808
     32          7           0        3.440351   -0.941833   -0.358070
     33          8           0        4.028461   -0.975474   -1.436788
     34          8           0        3.441793   -1.843403    0.477277
 ---------------------------------------------------------------------

 SCF Done:  E(RHF) =  -669.534199291     A.U. after   15 cycles
 E2 =    -0.2094510242D+01 EUMP2 =    -0.67162870953270D+03

 The electronic state is 1-A.
 Alpha  occ. eigenvalues --  -20.60864 -20.60847 -15.85889 -11.31243 -11.27817
 Alpha  occ. eigenvalues --  -11.27807 -11.27560 -11.26834 -11.26810 -11.21805
 Alpha  occ. eigenvalues --  -11.21621 -11.21610 -11.21462 -11.21318 -11.20874
 Alpha  occ. eigenvalues --   -1.59916  -1.39473  -1.19435  -1.08823  -1.08576
 Alpha  occ. eigenvalues --   -1.04849  -1.03632  -0.96090  -0.95650  -0.87100
 Alpha  occ. eigenvalues --   -0.86224  -0.82493  -0.79708  -0.78406  -0.77545
 Alpha  occ. eigenvalues --   -0.72115  -0.71236  -0.70552  -0.65214  -0.65082
 Alpha  occ. eigenvalues --   -0.64845  -0.62233  -0.61052  -0.59464  -0.57743
 Alpha  occ. eigenvalues --   -0.55386  -0.55332  -0.53214  -0.52994  -0.52638
 Alpha  occ. eigenvalues --   -0.52401  -0.50012  -0.48879  -0.48868  -0.48019
 Alpha  occ. eigenvalues --   -0.46747  -0.45937  -0.45860  -0.44892  -0.43842
 Alpha  occ. eigenvalues --   -0.37387  -0.36345
 Alpha virt. eigenvalues --    0.04963   0.11152   0.16450   0.21023   0.22763
 Alpha virt. eigenvalues --    0.24201   0.26334   0.26710   0.27234   0.27933
 Alpha virt. eigenvalues --    0.28646   0.30152   0.31312   0.31599   0.31875

 Mulliken charges:
               1
     1  C   -0.297452
     2  C   -0.299655
     3  C   -0.475547
     4  H    0.147705
     5  H    0.145928
     6  H    0.153235
     7  H    0.152698
     8  H    0.153348
     9  H    0.154662
    10  H    0.161228
    11  C   -0.297480
    12  C   -0.306059
    13  C   -0.480427
    14  H    0.150472
    15  H    0.150856
    16  H    0.144212
    17  H    0.156392
    18  H    0.157418
    19  H    0.156545
    20  H    0.164379
    21  C   -0.171946
    22  C   -0.217443
    23  C   -0.169902
    24  C    0.162029
    25  C   -0.171558
    26  C   -0.218577
    27  H    0.226138
    28  H    0.224784
    29  H    0.275851
    30  H    0.275718
    31  H    0.223648
    32  N    0.488841
    33  O   -0.459593
    34  O   -0.460450
 Sum of Mulliken charges =  -0.00000

 Dipole moment (field-independent basis, Debye):
    X=             -2.6072    Y=              4.2948    Z=              1.0841  Tot=              5.1398
 Quadrupole moment (field-independent basis, Debye-Ang):
   XX=           -110.2874   YY=            -92.3150   ZZ=            -90.5487
   XY=             12.2570   XZ=              1.6139   YZ=             -2.2429

 Normal termination of Gaussian 16 at Thu May  6 04:14:38 2021.
