 Gaussian 16, Revision A.03,
 Gaussian 16:  EM64L-G16RevA.03 25-Dec-2016

 -------------
 #p 6-31g* mp2
 -------------

 ------------------------------------------------------
 Input file generated by CHIRIPA (05-May-2021 14:53:12)
 ------------------------------------------------------
 Symbolic Z-matrix:
 Charge =  0 Multiplicity = 1

                         Standard orientation:
 ---------------------------------------------------------------------
 Center     Atomic      Atomic             Coordinates (Angstroms)
 Number     Number       Type             X           Y           Z
 ---------------------------------------------------------------------
      1          6           0       -3.687231   -0.685402    0.406538
      2          6           0       -4.301749   -1.798894   -0.442277
      3          6           0       -4.399759   -3.127947    0.307261
      4          1           0       -2.686876   -0.995552    0.738265
      5          1           0       -4.290272   -0.551336    1.315253
      6          1           0       -3.698517   -1.929877   -1.349785
      7          1           0       -5.300680   -1.485978   -0.772180
      8          1           0       -5.018805   -3.019891    1.203758
      9          1           0       -3.407539   -3.466312    0.622871
     10          1           0       -4.841837   -3.909865   -0.318063
     11          6           0       -3.582569    0.649430   -0.328988
     12          6           0       -2.968051    1.762922    0.519828
     13          6           0       -2.870041    3.091975   -0.229711
     14          1           0       -2.979528    0.515364   -1.237703
     15          1           0       -4.582923    0.959580   -0.660714
     16          1           0       -1.969120    1.450006    0.849731
     17          1           0       -3.571283    1.893905    1.427336
     18          1           0       -3.862261    3.430340   -0.545321
     19          1           0       -2.250995    2.983920   -1.126207
     20          1           0       -2.427962    3.873893    0.395613
     21          6           0        1.100520    1.841467   -0.069098
     22          6           0        0.720472    0.509186   -0.261749
     23          6           0        1.675614   -0.511535   -0.242263
     24          6           0        3.007909   -0.162616   -0.026542
     25          6           0        3.417875    1.155389    0.168601
     26          6           0        2.445638    2.159754    0.145084
     27          1           0        0.351903    2.628034   -0.085801
     28          1           0       -0.323435    0.259059   -0.428301
     29          1           0        1.409023   -1.551216   -0.388583
     30          1           0        4.466171    1.373738    0.332362
     31          1           0        2.743685    3.193553    0.294996
     32          7           0        4.028125   -1.234551   -0.003780
     33          8           0        5.195396   -0.900988    0.188185
     34          8           0        3.641179   -2.387998   -0.178334
 ---------------------------------------------------------------------

 SCF Done:  E(RHF) =  -669.535070134     A.U. after   15 cycles
 E2 =    -0.2092824718D+01 EUMP2 =    -0.67162789485215D+03

 The electronic state is 1-A.
 Alpha  occ. eigenvalues --  -20.60754 -20.60748 -15.85807 -11.31172 -11.27744
 Alpha  occ. eigenvalues --  -11.27741 -11.27447 -11.26744 -11.26719 -11.22811
 Alpha  occ. eigenvalues --  -11.22492 -11.22361 -11.22335 -11.22276 -11.21600
 Alpha  occ. eigenvalues --   -1.59829  -1.39383  -1.19344  -1.09460  -1.08732
 Alpha  occ. eigenvalues --   -1.04755  -1.04493  -0.96948  -0.95569  -0.87957
 Alpha  occ. eigenvalues --   -0.86152  -0.82403  -0.80571  -0.79212  -0.77460
 Alpha  occ. eigenvalues --   -0.72026  -0.71152  -0.70464  -0.66297  -0.64993
 Alpha  occ. eigenvalues --   -0.64648  -0.62211  -0.61728  -0.60331  -0.58529
 Alpha  occ. eigenvalues --   -0.56321  -0.55153  -0.53621  -0.53344  -0.53079
 Alpha  occ. eigenvalues --   -0.52839  -0.50879  -0.48875  -0.48781  -0.48766
 Alpha  occ. eigenvalues --   -0.47632  -0.46730  -0.46678  -0.44788  -0.44751
 Alpha  occ. eigenvalues --   -0.37306  -0.36348
 Alpha virt. eigenvalues --    0.05073   0.11176   0.16547   0.18258   0.22229
 Alpha virt. eigenvalues --    0.23849   0.24898   0.25923   0.26578   0.28797
 Alpha virt. eigenvalues --    0.29957   0.30608   0.30818   0.31108   0.31743

 Mulliken charges:
               1
     1  C   -0.300204
     2  C   -0.300314
     3  C   -0.476316
     4  H    0.146175
     5  H    0.154031
     6  H    0.151379
     7  H    0.154317
     8  H    0.156806
     9  H    0.156246
    10  H    0.163295
    11  C   -0.302378
    12  C   -0.307567
    13  C   -0.480647
    14  H    0.145638
    15  H    0.155927
    16  H    0.148298
    17  H    0.159359
    18  H    0.163238
    19  H    0.151547
    20  H    0.160168
    21  C   -0.176509
    22  C   -0.226140
    23  C   -0.172489
    24  C    0.158502
    25  C   -0.170723
    26  C   -0.219227
    27  H    0.233298
    28  H    0.232505
    29  H    0.275454
    30  H    0.275548
    31  H    0.223653
    32  N    0.488092
    33  O   -0.460447
    34  O   -0.460517
 Sum of Mulliken charges =  -0.00000

 Dipole moment (field-independent basis, Debye):
    X=             -3.8533    Y=              3.7562    Z=             -0.0439  Tot=              5.3814
 Quadrupole moment (field-independent basis, Debye-Ang):
   XX=           -112.0173   YY=            -94.6312   ZZ=            -95.5467
   XY=             14.4928   XZ=              0.1751   YZ=              1.1033

 Normal termination of Gaussian 16 at Wed May  5 16:58:52 2021.
