 Gaussian 16, Revision A.03,
 Gaussian 16:  EM64L-G16RevA.03 25-Dec-2016

 -------------
 #p 6-31g* mp2
 -------------

 ------------------------------------------------------
 Input file generated by CHIRIPA (05-May-2021 14:55:22)
 ------------------------------------------------------
 Symbolic Z-matrix:
 Charge =  0 Multiplicity = 1

                         Standard orientation:
 ---------------------------------------------------------------------
 Center     Atomic      Atomic             Coordinates (Angstroms)
 Number     Number       Type             X           Y           Z
 ---------------------------------------------------------------------
      1          6           0       -6.152383   -0.836581   -0.453150
      2          6           0       -6.041112    0.552580   -0.333268
      3          6           0       -4.798637    1.147364   -0.094448
      4          6           0       -3.683137    0.319137    0.019529
      5          6           0       -3.761656   -1.067944   -0.095060
      6          6           0       -5.014306   -1.640991   -0.333874
      7          1           0       -7.121520   -1.290181   -0.638669
      8          1           0       -6.923256    1.179771   -0.425450
      9          1           0       -4.683956    2.220136    0.002642
     10          1           0       -2.864365   -1.667068    0.001568
     11          1           0       -5.097729   -2.720112   -0.426527
     12          7           0       -2.362398    0.937303    0.272354
     13          8           0       -1.394775    0.185606    0.368770
     14          8           0       -2.319833    2.161812    0.369316
     15          6           0        5.496279    0.291510   -0.047411
     16          6           0        6.905471   -0.187052   -0.398325
     17          6           0        7.900899    0.964015   -0.546527
     18          1           0        5.146207    0.982932   -0.826083
     19          1           0        5.534349    0.867264    0.887711
     20          1           0        6.864536   -0.762905   -1.331778
     21          1           0        7.252154   -0.877565    0.381174
     22          1           0        7.971293    1.534799    0.385057
     23          1           0        7.581472    1.650112   -1.337628
     24          1           0        8.901864    0.599361   -0.797441
     25          6           0        4.489795   -0.847686    0.104087
     26          6           0        3.080604   -0.369124    0.455001
     27          6           0        2.085175   -1.520191    0.603204
     28          1           0        4.451726   -1.423440   -0.831034
     29          1           0        4.839868   -1.539109    0.882758
     30          1           0        2.733920    0.321389   -0.324497
     31          1           0        3.121538    0.206727    1.388454
     32          1           0        2.404602   -2.206287    1.394304
     33          1           0        2.014782   -2.090975   -0.328381
     34          1           0        1.084211   -1.155537    0.854117
 ---------------------------------------------------------------------

 SCF Done:  E(RHF) =  -669.536092004     A.U. after   15 cycles
 E2 =    -0.2090565016D+01 EUMP2 =    -0.67162665701994D+03

 The electronic state is 1-A.
 Alpha  occ. eigenvalues --  -20.60917 -20.60908 -15.85964 -11.31278 -11.27842
 Alpha  occ. eigenvalues --  -11.27838 -11.27581 -11.26851 -11.26841 -11.21015
 Alpha  occ. eigenvalues --  -11.20644 -11.20566 -11.20503 -11.20408 -11.19722
 Alpha  occ. eigenvalues --   -1.59982  -1.39539  -1.19448  -1.08853  -1.07596
 Alpha  occ. eigenvalues --   -1.04844  -1.02637  -0.95697  -0.95092  -0.86245
 Alpha  occ. eigenvalues --   -0.86121  -0.82530  -0.78732  -0.77582  -0.77379
 Alpha  occ. eigenvalues --   -0.72193  -0.71299  -0.70557  -0.65105  -0.64847
 Alpha  occ. eigenvalues --   -0.64239  -0.62191  -0.60050  -0.58471  -0.56656
 Alpha  occ. eigenvalues --   -0.55349  -0.54412  -0.53176  -0.52936  -0.51745
 Alpha  occ. eigenvalues --   -0.51522  -0.49083  -0.48940  -0.48922  -0.47025
 Alpha  occ. eigenvalues --   -0.45789  -0.44955  -0.44923  -0.44846  -0.42876
 Alpha  occ. eigenvalues --   -0.37428  -0.36446
 Alpha virt. eigenvalues --    0.04951   0.11209   0.16450   0.21308   0.23641
 Alpha virt. eigenvalues --    0.25196   0.27241   0.27440   0.27984   0.28320
 Alpha virt. eigenvalues --    0.29005   0.30821   0.32125   0.32221   0.32572

 Mulliken charges:
               1
     1  C   -0.170631
     2  C   -0.218604
     3  C   -0.170617
     4  C    0.157311
     5  C   -0.170675
     6  C   -0.218563
     7  H    0.225936
     8  H    0.223741
     9  H    0.275817
    10  H    0.276031
    11  H    0.223886
    12  N    0.496320
    13  O   -0.468251
    14  O   -0.459105
    15  C   -0.297685
    16  C   -0.298919
    17  C   -0.475262
    18  H    0.149861
    19  H    0.149245
    20  H    0.150532
    21  H    0.150574
    22  H    0.154835
    23  H    0.154895
    24  H    0.158175
    25  C   -0.297682
    26  C   -0.297081
    27  C   -0.486062
    28  H    0.146616
    29  H    0.146568
    30  H    0.156303
    31  H    0.151792
    32  H    0.146605
    33  H    0.147637
    34  H    0.186457
 Sum of Mulliken charges =  -0.00000

 Dipole moment (field-independent basis, Debye):
    X=             -4.9815    Y=             -2.0809    Z=             -0.8768  Tot=              5.4694
 Quadrupole moment (field-independent basis, Debye-Ang):
   XX=            -61.8914   YY=            -92.9230   ZZ=            -94.7983
   XY=              4.1968   XZ=              3.6659   YZ=             -0.2289

 Normal termination of Gaussian 16 at Wed May  5 23:53:26 2021.
