 Gaussian 16, Revision A.03,
 Gaussian 16:  EM64L-G16RevA.03 25-Dec-2016

 -------------
 #p 6-31g* mp2
 -------------

 ------------------------------------------------------
 Input file generated by CHIRIPA (05-May-2021 14:53:16)
 ------------------------------------------------------
 Symbolic Z-matrix:
 Charge =  0 Multiplicity = 1

                         Standard orientation:
 ---------------------------------------------------------------------
 Center     Atomic      Atomic             Coordinates (Angstroms)
 Number     Number       Type             X           Y           Z
 ---------------------------------------------------------------------
      1          6           0        3.539428    0.905076   -0.205053
      2          6           0        2.183820    1.342262    0.350988
      3          6           0        1.870749    2.810134    0.059217
      4          1           0        4.326415    1.541322    0.222482
      5          1           0        3.554937    1.075531   -1.290456
      6          1           0        2.170373    1.169744    1.434811
      7          1           0        1.399989    0.704776   -0.077774
      8          1           0        1.856845    2.993934   -1.019961
      9          1           0        2.631605    3.461543    0.501219
     10          1           0        0.897145    3.101428    0.465546
     11          6           0        3.866647   -0.559910    0.078625
     12          6           0        5.222254   -0.997096   -0.477417
     13          6           0        5.535326   -2.464969   -0.185646
     14          1           0        3.851137   -0.730365    1.164027
     15          1           0        3.079660   -1.196156   -0.348911
     16          1           0        6.006086   -0.359611   -0.048655
     17          1           0        5.235702   -0.824579   -1.561240
     18          1           0        4.774470   -3.116378   -0.627647
     19          1           0        5.549230   -2.648768    0.893532
     20          1           0        6.508930   -2.756262   -0.591974
     21          6           0       -1.904431    2.185694    0.111230
     22          6           0       -2.955817    1.895836   -0.764607
     23          6           0       -3.511268    0.613574   -0.807383
     24          6           0       -2.988568   -0.359170    0.043407
     25          6           0       -1.941629   -0.101330    0.926994
     26          6           0       -1.401580    1.187946    0.952752
     27          1           0       -1.478926    3.184510    0.137850
     28          1           0       -3.348345    2.668726   -1.419287
     29          1           0       -4.325728    0.361863   -1.475749
     30          1           0       -1.571480   -0.892580    1.567564
     31          1           0       -0.585113    1.410191    1.633952
     32          7           0       -3.568447   -1.720355    0.007130
     33          8           0       -3.090098   -2.559789    0.766849
     34          8           0       -4.490324   -1.922045   -0.780334
 ---------------------------------------------------------------------

 SCF Done:  E(RHF) =  -669.534076488     A.U. after   15 cycles
 E2 =    -0.2093291242D+01 EUMP2 =    -0.67162736773057D+03

 The electronic state is 1-A.
 Alpha  occ. eigenvalues --  -20.60754 -20.60749 -15.85807 -11.31169 -11.27731
 Alpha  occ. eigenvalues --  -11.27720 -11.27447 -11.26750 -11.26699 -11.22425
 Alpha  occ. eigenvalues --  -11.22141 -11.21979 -11.21911 -11.21788 -11.21269
 Alpha  occ. eigenvalues --   -1.59830  -1.39383  -1.19343  -1.09003  -1.08730
 Alpha  occ. eigenvalues --   -1.04756  -1.04117  -0.96592  -0.95569  -0.87603
 Alpha  occ. eigenvalues --   -0.86143  -0.82413  -0.80217  -0.78765  -0.77444
 Alpha  occ. eigenvalues --   -0.72026  -0.71153  -0.70481  -0.65610  -0.65005
 Alpha  occ. eigenvalues --   -0.64814  -0.62158  -0.61508  -0.59938  -0.58157
 Alpha  occ. eigenvalues --   -0.55845  -0.55284  -0.53330  -0.53077  -0.52949
 Alpha  occ. eigenvalues --   -0.52772  -0.50492  -0.48787  -0.48780  -0.48515
 Alpha  occ. eigenvalues --   -0.47220  -0.46302  -0.46193  -0.44789  -0.44371
 Alpha  occ. eigenvalues --   -0.37294  -0.36308
 Alpha virt. eigenvalues --    0.05067   0.11246   0.16518   0.20136   0.22596
 Alpha virt. eigenvalues --    0.24144   0.25690   0.26247   0.26518   0.27771
 Alpha virt. eigenvalues --    0.28737   0.29858   0.30922   0.31692   0.31976

 Mulliken charges:
               1
     1  C   -0.298417
     2  C   -0.306536
     3  C   -0.476118
     4  H    0.150543
     5  H    0.151703
     6  H    0.146666
     7  H    0.159718
     8  H    0.159611
     9  H    0.159351
    10  H    0.146126
    11  C   -0.299438
    12  C   -0.300152
    13  C   -0.476263
    14  H    0.149275
    15  H    0.152303
    16  H    0.151982
    17  H    0.152760
    18  H    0.157235
    19  H    0.155572
    20  H    0.161345
    21  C   -0.172816
    22  C   -0.219005
    23  C   -0.171223
    24  C    0.158359
    25  C   -0.173915
    26  C   -0.216599
    27  H    0.227145
    28  H    0.223425
    29  H    0.275426
    30  H    0.275778
    31  H    0.229049
    32  N    0.488077
    33  O   -0.460442
    34  O   -0.460522
 Sum of Mulliken charges =  -0.00000

 Dipole moment (field-independent basis, Debye):
    X=              2.1819    Y=              4.7308    Z=              0.0532  Tot=              5.2100
 Quadrupole moment (field-independent basis, Debye-Ang):
   XX=           -104.9055   YY=            -99.5237   ZZ=            -91.9196
   XY=            -15.9045   XZ=              2.5330   YZ=             -0.7934

 Normal termination of Gaussian 16 at Thu May  6 10:37:58 2021.
