 Gaussian 16, Revision A.03,
 Gaussian 16:  EM64L-G16RevA.03 25-Dec-2016

 -------------
 #p 6-31g* mp2
 -------------

 ------------------------------------------------------
 Input file generated by CHIRIPA (05-May-2021 14:51:14)
 ------------------------------------------------------
 Symbolic Z-matrix:
 Charge =  0 Multiplicity = 1

                         Standard orientation:
 ---------------------------------------------------------------------
 Center     Atomic      Atomic             Coordinates (Angstroms)
 Number     Number       Type             X           Y           Z
 ---------------------------------------------------------------------
      1          6           0        2.688508   -0.728237    0.370454
      2          6           0        1.912347   -1.959448   -0.098245
      3          6           0        0.528236   -2.065068    0.542751
      4          1           0        2.790759   -0.761416    1.463792
      5          1           0        2.106043    0.174095    0.138234
      6          1           0        2.496729   -2.859108    0.133543
      7          1           0        1.812098   -1.923432   -1.190614
      8          1           0       -0.076453   -1.185017    0.300960
      9          1           0        0.612067   -2.126010    1.632640
     10          1           0       -0.009201   -2.952297    0.193688
     11          6           0        4.074153   -0.608794   -0.261567
     12          6           0        4.850314    0.622417    0.207132
     13          6           0        6.234425    0.728037   -0.433863
     14          1           0        4.656618   -1.511126   -0.029347
     15          1           0        3.971902   -0.575615   -1.354905
     16          1           0        4.950563    0.586401    1.299501
     17          1           0        4.265932    1.522077   -0.024656
     18          1           0        6.150594    0.788979   -1.523753
     19          1           0        6.839115   -0.152014   -0.192073
     20          1           0        6.771862    1.615266   -0.084801
     21          6           0       -4.104085    0.447656    0.056368
     22          6           0       -4.371745   -0.992884   -0.380882
     23          6           0       -5.822028   -1.420086   -0.152902
     24          1           0       -4.356225    0.554020    1.120350
     25          1           0       -4.776373    1.121151   -0.493020
     26          1           0       -3.698195   -1.663333    0.168157
     27          1           0       -4.118757   -1.095880   -1.443899
     28          1           0       -6.506299   -0.775075   -0.713557
     29          1           0       -6.083348   -1.345753    0.907659
     30          1           0       -5.991208   -2.453120   -0.472398
     31          6           0       -2.658576    0.889375   -0.165256
     32          6           0       -2.390916    2.329915    0.271994
     33          6           0       -0.940634    2.757117    0.044014
     34          1           0       -1.986289    0.215879    0.384132
     35          1           0       -2.406436    0.783011   -1.229237
     36          1           0       -2.643905    2.432911    1.335011
     37          1           0       -3.064466    3.000364   -0.277045
     38          1           0       -0.679313    2.682784   -1.016546
     39          1           0       -0.256362    2.112107    0.604670
     40          1           0       -0.771453    3.790150    0.363512
 ---------------------------------------------------------------------

 SCF Done:  E(RHF) =  -470.733374220     A.U. after   11 cycles
 E2 =    -0.1583020860D+01 EUMP2 =    -0.47231639507983D+03

 The electronic state is 1-A.
 Alpha  occ. eigenvalues --  -11.21622 -11.21586 -11.21578 -11.21577 -11.21402
 Alpha  occ. eigenvalues --  -11.21389 -11.21342 -11.21329 -11.21117 -11.21054
 Alpha  occ. eigenvalues --  -11.21053 -11.21039  -1.08440  -1.08408  -1.03539
 Alpha  occ. eigenvalues --   -1.03508  -0.96000  -0.95952  -0.87024  -0.86964
 Alpha  occ. eigenvalues --   -0.79627  -0.79553  -0.78296  -0.78181  -0.65119
 Alpha  occ. eigenvalues --   -0.64995  -0.60975  -0.60868  -0.59374  -0.59310
 Alpha  occ. eigenvalues --   -0.57654  -0.57530  -0.55373  -0.55168  -0.52692
 Alpha  occ. eigenvalues --   -0.52651  -0.52511  -0.52299  -0.50030  -0.49817
 Alpha  occ. eigenvalues --   -0.48034  -0.47828  -0.46753  -0.46563  -0.45921
 Alpha  occ. eigenvalues --   -0.45758  -0.45722  -0.45356  -0.43790  -0.43765
 Alpha virt. eigenvalues --    0.21035   0.23010   0.23656   0.24654   0.25541
 Alpha virt. eigenvalues --    0.26174   0.27022   0.27162   0.28629   0.29307
 Alpha virt. eigenvalues --    0.30695   0.31550   0.31695   0.31758   0.31896

 Mulliken charges:
               1
     1  C   -0.300942
     2  C   -0.298835
     3  C   -0.484042
     4  H    0.149292
     5  H    0.152060
     6  H    0.151808
     7  H    0.152102
     8  H    0.162853
     9  H    0.154371
    10  H    0.160362
    11  C   -0.298183
    12  C   -0.299817
    13  C   -0.475696
    14  H    0.149483
    15  H    0.149709
    16  H    0.151792
    17  H    0.152451
    18  H    0.155173
    19  H    0.155078
    20  H    0.160237
    21  C   -0.297536
    22  C   -0.300176
    23  C   -0.475707
    24  H    0.149651
    25  H    0.149448
    26  H    0.153097
    27  H    0.151718
    28  H    0.155048
    29  H    0.155191
    30  H    0.160237
    31  C   -0.306751
    32  C   -0.298950
    33  C   -0.478742
    34  H    0.158216
    35  H    0.149025
    36  H    0.152132
    37  H    0.152090
    38  H    0.154794
    39  H    0.157188
    40  H    0.160774
 Sum of Mulliken charges =  -0.00000

 Dipole moment (field-independent basis, Debye):
    X=             -0.0147    Y=              0.0088    Z=              0.0013  Tot=              0.0172
 Quadrupole moment (field-independent basis, Debye-Ang):
   XX=            -86.6839   YY=            -84.6690   ZZ=            -83.4527
   XY=             -0.9536   XZ=              0.9877   YZ=             -0.5816

 Normal termination of Gaussian 16 at Thu May  6 05:36:10 2021.
