 Gaussian 16, Revision A.03,
 Gaussian 16:  EM64L-G16RevA.03 25-Dec-2016

 -------------
 #p 6-31g* mp2
 -------------

 ------------------------------------------------------
 Input file generated by CHIRIPA (05-May-2021 14:57:23)
 ------------------------------------------------------
 Symbolic Z-matrix:
 Charge =  0 Multiplicity = 1

                         Standard orientation:
 ---------------------------------------------------------------------
 Center     Atomic      Atomic             Coordinates (Angstroms)
 Number     Number       Type             X           Y           Z
 ---------------------------------------------------------------------
      1          6           0       -6.260925   -0.975677   -1.078258
      2          6           0       -6.352320   -0.672159    0.284109
      3          6           0       -5.258587   -0.130216    0.965720
      4          6           0       -4.083551    0.096334    0.250699
      5          6           0       -3.961397   -0.195495   -1.106948
      6          6           0       -5.067858   -0.736798   -1.768222
      7          1           0       -7.115506   -1.396423   -1.599851
      8          1           0       -7.277609   -0.856617    0.822496
      9          1           0       -5.301906    0.114089    2.020166
     10          1           0       -3.025725   -0.000457   -1.616748
     11          1           0       -4.994004   -0.971536   -2.826281
     12          7           0       -2.918928    0.669726    0.961525
     13          8           0       -1.894947    0.859893    0.308887
     14          8           0       -3.052129    0.918126    2.157849
     15          6           0        2.699788    1.874971   -0.734114
     16          6           0        4.076314    2.112676   -0.662052
     17          6           0        4.958698    1.080283   -0.330223
     18          6           0        4.427828   -0.183274   -0.075485
     19          6           0        3.061355   -0.451554   -0.139231
     20          6           0        2.197587    0.595870   -0.472935
     21          1           0        2.021562    2.682797   -0.992616
     22          1           0        4.469152    3.105040   -0.864381
     23          1           0        6.028764    1.236557   -0.267330
     24          1           0        2.699491   -1.451359    0.067802
     25          1           0        1.129020    0.408356   -0.528155
     26          7           0        5.352115   -1.284179    0.276799
     27          8           0        4.859311   -2.388452    0.496714
     28          8           0        6.551873   -1.021948    0.326336
 ---------------------------------------------------------------------

 SCF Done:  E(RHF) =  -868.339769411     A.U. after   16 cycles
 E2 =    -0.2598194219D+01 EUMP2 =    -0.87093796363052D+03

 The electronic state is 1-A.
 Alpha  occ. eigenvalues --  -20.61674 -20.61602 -20.60135 -20.60129 -15.86685
 Alpha  occ. eigenvalues --  -15.85179 -11.31826 -11.30383 -11.28395 -11.28342
 Alpha  occ. eigenvalues --  -11.28052 -11.27335 -11.27307 -11.26950 -11.26862
 Alpha  occ. eigenvalues --  -11.26564 -11.25947 -11.25714  -1.60699  -1.59212
 Alpha  occ. eigenvalues --   -1.40265  -1.38771  -1.19973  -1.18515  -1.09405
 Alpha  occ. eigenvalues --   -1.07931  -1.05345  -1.03881  -0.96280  -0.94803
 Alpha  occ. eigenvalues --   -0.86752  -0.85276  -0.83126  -0.81634  -0.78201
 Alpha  occ. eigenvalues --   -0.76712  -0.72920  -0.72005  -0.71402  -0.71078
 Alpha  occ. eigenvalues --   -0.70532  -0.69612  -0.65632  -0.65342  -0.64156
 Alpha  occ. eigenvalues --   -0.63839  -0.62699  -0.61219  -0.55843  -0.54363
 Alpha  occ. eigenvalues --   -0.53682  -0.53433  -0.52235  -0.51941  -0.49678
 Alpha  occ. eigenvalues --   -0.49626  -0.48167  -0.48141  -0.45717  -0.44213
 Alpha  occ. eigenvalues --   -0.37933  -0.36937  -0.36479  -0.35484
 Alpha virt. eigenvalues --    0.04317   0.05793   0.10721   0.12174   0.15849
 Alpha virt. eigenvalues --    0.17346   0.20828   0.22379   0.26759   0.27410
 Alpha virt. eigenvalues --    0.28488   0.29183   0.30418   0.31565   0.32391

 Mulliken charges:
               1
     1  C   -0.169929
     2  C   -0.218336
     3  C   -0.170239
     4  C    0.157990
     5  C   -0.170510
     6  C   -0.218199
     7  H    0.227934
     8  H    0.225743
     9  H    0.277010
    10  H    0.271797
    11  H    0.224991
    12  N    0.492795
    13  O   -0.474359
    14  O   -0.454683
    15  C   -0.171885
    16  C   -0.218784
    17  C   -0.172862
    18  C    0.158298
    19  C   -0.173165
    20  C   -0.222898
    21  H    0.227400
    22  H    0.220427
    23  H    0.272625
    24  H    0.273651
    25  H    0.242069
    26  N    0.488181
    27  O   -0.462191
    28  O   -0.462871
 Sum of Mulliken charges =  -0.00000

 Dipole moment (field-independent basis, Debye):
    X=             -7.9123    Y=              1.8652    Z=             -3.7029  Tot=              8.9328
 Quadrupole moment (field-independent basis, Debye-Ang):
   XX=            -96.4111   YY=           -106.0131   ZZ=           -103.1077
   XY=             28.8511   XZ=              1.0973   YZ=             -0.8381

 Normal termination of Gaussian 16 at Thu May  6 19:36:29 2021.
