 Gaussian 16, Revision A.03,
 Gaussian 16:  EM64L-G16RevA.03 25-Dec-2016

 -------------
 #p 6-31g* mp2
 -------------

 ------------------------------------------------------
 Input file generated by CHIRIPA (05-May-2021 14:53:18)
 ------------------------------------------------------
 Symbolic Z-matrix:
 Charge =  0 Multiplicity = 1

                         Standard orientation:
 ---------------------------------------------------------------------
 Center     Atomic      Atomic             Coordinates (Angstroms)
 Number     Number       Type             X           Y           Z
 ---------------------------------------------------------------------
      1          6           0       -2.585528    1.036496    0.175549
      2          6           0       -2.361233    2.439804   -0.388725
      3          6           0       -1.260682    3.204148    0.347726
      4          1           0       -2.840644    1.113226    1.241369
      5          1           0       -1.644766    0.471527    0.119219
      6          1           0       -3.302489    3.001502   -0.332621
      7          1           0       -2.106808    2.359736   -1.453372
      8          1           0       -0.308422    2.668122    0.280809
      9          1           0       -1.510897    3.313534    1.407928
     10          1           0       -1.117006    4.204701   -0.071930
     11          6           0       -3.682703    0.259905   -0.550289
     12          6           0       -3.906998   -1.143402    0.013984
     13          6           0       -5.007549   -1.907747   -0.722466
     14          1           0       -4.623464    0.824875   -0.493959
     15          1           0       -3.427586    0.183176   -1.616109
     16          1           0       -4.161423   -1.063334    1.078631
     17          1           0       -2.965742   -1.705100   -0.042120
     18          1           0       -4.757334   -2.017132   -1.782668
     19          1           0       -5.959809   -1.371720   -0.655550
     20          1           0       -5.151225   -2.908300   -0.302811
     21          6           0        4.372831    0.801824   -0.829071
     22          6           0        4.160650   -0.525249   -1.216854
     23          6           0        3.097610   -1.259674   -0.682893
     24          6           0        2.262493   -0.632882    0.240687
     25          6           0        2.447843    0.687672    0.646978
     26          6           0        3.517259    1.402990    0.099969
     27          1           0        5.201103    1.364922   -1.248933
     28          1           0        4.823498   -0.994698   -1.938170
     29          1           0        2.910361   -2.288500   -0.965512
     30          1           0        1.770213    1.128512    1.368015
     31          1           0        3.679632    2.433461    0.402970
     32          7           0        1.133726   -1.400271    0.812873
     33          8           0        0.412229   -0.825161    1.624864
     34          8           0        0.991867   -2.562329    0.438528
 ---------------------------------------------------------------------

 SCF Done:  E(RHF) =  -669.536148005     A.U. after   15 cycles
 E2 =    -0.2092164168D+01 EUMP2 =    -0.67162831217286D+03

 The electronic state is 1-A.
 Alpha  occ. eigenvalues --  -20.60987 -20.60964 -15.85991 -11.31312 -11.27871
 Alpha  occ. eigenvalues --  -11.27858 -11.27600 -11.26880 -11.26868 -11.21134
 Alpha  occ. eigenvalues --  -11.20904 -11.20592 -11.20533 -11.20426 -11.20253
 Alpha  occ. eigenvalues --   -1.60034  -1.39589  -1.19478  -1.08883  -1.07652
 Alpha  occ. eigenvalues --   -1.04871  -1.02862  -0.95725  -0.95335  -0.86373
 Alpha  occ. eigenvalues --   -0.86265  -0.82556  -0.78916  -0.77633  -0.77370
 Alpha  occ. eigenvalues --   -0.72211  -0.71349  -0.70582  -0.65131  -0.64872
 Alpha  occ. eigenvalues --   -0.64291  -0.62221  -0.60270  -0.58715  -0.56917
 Alpha  occ. eigenvalues --   -0.55376  -0.54647  -0.53201  -0.52960  -0.52075
 Alpha  occ. eigenvalues --   -0.51757  -0.49313  -0.48985  -0.48974  -0.47242
 Alpha  occ. eigenvalues --   -0.45979  -0.45325  -0.44936  -0.44429  -0.43072
 Alpha  occ. eigenvalues --   -0.37454  -0.36464
 Alpha virt. eigenvalues --    0.04862   0.11112   0.16354   0.20984   0.23471
 Alpha virt. eigenvalues --    0.24597   0.26384   0.27492   0.27773   0.28576
 Alpha virt. eigenvalues --    0.29180   0.30938   0.31482   0.32222   0.32503

 Mulliken charges:
               1
     1  C   -0.301176
     2  C   -0.299136
     3  C   -0.475429
     4  H    0.151515
     5  H    0.161075
     6  H    0.150337
     7  H    0.148705
     8  H    0.148105
     9  H    0.156790
    10  H    0.156257
    11  C   -0.298554
    12  C   -0.300876
    13  C   -0.475387
    14  H    0.145296
    15  H    0.145452
    16  H    0.152799
    17  H    0.163996
    18  H    0.152421
    19  H    0.151512
    20  H    0.160408
    21  C   -0.170585
    22  C   -0.218311
    23  C   -0.170960
    24  C    0.157702
    25  C   -0.172813
    26  C   -0.218893
    27  H    0.226178
    28  H    0.223928
    29  H    0.275782
    30  H    0.278680
    31  H    0.224689
    32  N    0.486839
    33  O   -0.456994
    34  O   -0.459348
 Sum of Mulliken charges =  -0.00000

 Dipole moment (field-independent basis, Debye):
    X=              4.1596    Y=              2.5283    Z=             -1.9014  Tot=              5.2258
 Quadrupole moment (field-independent basis, Debye-Ang):
   XX=            -77.6038   YY=            -96.0344   ZZ=            -94.6425
   XY=              1.9323   XZ=             -5.8075   YZ=              4.4288

 Normal termination of Gaussian 16 at Thu May  6 02:50:22 2021.
