 Gaussian 16, Revision A.03,
 Gaussian 16:  EM64L-G16RevA.03 25-Dec-2016

 -------------
 #p 6-31g* mp2
 -------------

 ------------------------------------------------------
 Input file generated by CHIRIPA (05-May-2021 14:53:12)
 ------------------------------------------------------
 Symbolic Z-matrix:
 Charge =  0 Multiplicity = 1

                         Standard orientation:
 ---------------------------------------------------------------------
 Center     Atomic      Atomic             Coordinates (Angstroms)
 Number     Number       Type             X           Y           Z
 ---------------------------------------------------------------------
      1          6           0       -3.620466   -0.393497   -0.494994
      2          6           0       -4.737167   -0.814356    0.460956
      3          6           0       -5.228876   -2.239276    0.204789
      4          1           0       -3.980672   -0.478205   -1.529413
      5          1           0       -2.780476   -1.095221   -0.398067
      6          1           0       -5.574247   -0.111243    0.363254
      7          1           0       -4.374324   -0.728453    1.493226
      8          1           0       -4.409884   -2.956313    0.321880
      9          1           0       -5.616625   -2.335596   -0.814512
     10          1           0       -6.027014   -2.519493    0.899277
     11          6           0       -3.118377    1.028579   -0.251403
     12          6           0       -2.001676    1.449438   -1.207354
     13          6           0       -1.509968    2.874357   -0.951187
     14          1           0       -3.958368    1.730302   -0.348331
     15          1           0       -2.758172    1.113287    0.783015
     16          1           0       -2.364520    1.363535   -2.239624
     17          1           0       -1.164597    0.746325   -1.109652
     18          1           0       -1.122219    2.970678    0.068114
     19          1           0       -2.328960    3.591395   -1.068278
     20          1           0       -0.711829    3.154575   -1.645674
     21          6           0        4.682250   -0.966033   -0.992345
     22          6           0        3.511490   -1.728475   -1.059621
     23          6           0        2.369712   -1.340196   -0.352423
     24          6           0        2.434185   -0.178670    0.415684
     25          6           0        3.585725    0.602122    0.502931
     26          6           0        4.715572    0.194784   -0.212659
     27          1           0        5.564577   -1.275061   -1.544973
     28          1           0        3.482720   -2.630443   -1.664329
     29          1           0        1.450185   -1.911788   -0.386665
     30          1           0        3.583926    1.496400    1.114226
     31          1           0        5.623420    0.788863   -0.158542
     32          7           0        1.231751    0.242472    1.168806
     33          8           0        1.314284    1.269871    1.838341
     34          8           0        0.229517   -0.462810    1.075306
 ---------------------------------------------------------------------

 SCF Done:  E(RHF) =  -669.536774786     A.U. after   15 cycles
 E2 =    -0.2092080873D+01 EUMP2 =    -0.67162885565953D+03

 The electronic state is 1-A.
 Alpha  occ. eigenvalues --  -20.61099 -20.61094 -15.86101 -11.31359 -11.27916
 Alpha  occ. eigenvalues --  -11.27909 -11.27642 -11.26908 -11.26899 -11.20644
 Alpha  occ. eigenvalues --  -11.20416 -11.20331 -11.20258 -11.20067 -11.19983
 Alpha  occ. eigenvalues --   -1.60139  -1.39699  -1.19521  -1.08938  -1.07286
 Alpha  occ. eigenvalues --   -1.04908  -1.02497  -0.95790  -0.94953  -0.86312
 Alpha  occ. eigenvalues --   -0.85976  -0.82627  -0.78572  -0.77692  -0.77098
 Alpha  occ. eigenvalues --   -0.72330  -0.71452  -0.70631  -0.65181  -0.64912
 Alpha  occ. eigenvalues --   -0.63866  -0.62256  -0.59873  -0.58348  -0.56582
 Alpha  occ. eigenvalues --   -0.55416  -0.54214  -0.53240  -0.52999  -0.51705
 Alpha  occ. eigenvalues --   -0.51394  -0.49111  -0.49079  -0.48874  -0.46909
 Alpha  occ. eigenvalues --   -0.45736  -0.45101  -0.44615  -0.44349  -0.42724
 Alpha  occ. eigenvalues --   -0.37495  -0.36505
 Alpha virt. eigenvalues --    0.04799   0.11141   0.16261   0.21223   0.23968
 Alpha virt. eigenvalues --    0.25226   0.27008   0.27488   0.28310   0.28709
 Alpha virt. eigenvalues --    0.28997   0.30927   0.32185   0.32503   0.32833

 Mulliken charges:
               1
     1  C   -0.299185
     2  C   -0.299586
     3  C   -0.475073
     4  H    0.142507
     5  H    0.156414
     6  H    0.148613
     7  H    0.156370
     8  H    0.154403
     9  H    0.151907
    10  H    0.157606
    11  C   -0.297299
    12  C   -0.300297
    13  C   -0.480623
    14  H    0.142667
    15  H    0.164606
    16  H    0.143333
    17  H    0.155970
    18  H    0.168248
    19  H    0.151007
    20  H    0.151896
    21  C   -0.170357
    22  C   -0.218486
    23  C   -0.170838
    24  C    0.158343
    25  C   -0.170469
    26  C   -0.218582
    27  H    0.226304
    28  H    0.224186
    29  H    0.275695
    30  H    0.276071
    31  H    0.224114
    32  N    0.489231
    33  O   -0.458374
    34  O   -0.460323
 Sum of Mulliken charges =  -0.00000

 Dipole moment (field-independent basis, Debye):
    X=              4.5587    Y=             -1.5328    Z=             -2.4157  Tot=              5.3821
 Quadrupole moment (field-independent basis, Debye-Ang):
   XX=            -73.9129   YY=            -92.6688   ZZ=            -96.9335
   XY=             -2.9391   XZ=             -4.0359   YZ=              1.6684

 Normal termination of Gaussian 16 at Thu May  6 10:26:38 2021.
