 Gaussian 16, Revision A.03,
 Gaussian 16:  EM64L-G16RevA.03 25-Dec-2016

 -------------
 #p 6-31g* mp2
 -------------

 ------------------------------------------------------
 Input file generated by CHIRIPA (05-May-2021 14:51:08)
 ------------------------------------------------------
 Symbolic Z-matrix:
 Charge =  0 Multiplicity = 1

                         Standard orientation:
 ---------------------------------------------------------------------
 Center     Atomic      Atomic             Coordinates (Angstroms)
 Number     Number       Type             X           Y           Z
 ---------------------------------------------------------------------
      1          6           0        2.321608   -0.449709    0.529120
      2          6           0        2.709025   -1.891830    0.200216
      3          6           0        1.948955   -2.915322    1.044344
      4          1           0        2.509551   -0.260225    1.594821
      5          1           0        1.241002   -0.323456    0.375023
      6          1           0        3.788812   -2.014958    0.353559
      7          1           0        2.520317   -2.077845   -0.864868
      8          1           0        0.869966   -2.821409    0.884454
      9          1           0        2.145669   -2.758165    2.109805
     10          1           0        2.241306   -3.939598    0.792846
     11          6           0        3.073004    0.585071   -0.306561
     12          6           0        2.685587    2.027193    0.022343
     13          6           0        3.445657    3.050685   -0.821785
     14          1           0        4.153610    0.458819   -0.152464
     15          1           0        2.885061    0.395587   -1.372262
     16          1           0        2.874295    2.213208    1.087427
     17          1           0        1.605800    2.150321   -0.131000
     18          1           0        3.248943    2.893528   -1.887246
     19          1           0        4.524646    2.956772   -0.661895
     20          1           0        3.153306    4.074960   -0.570287
     21          6           0       -2.869725   -0.765497   -0.369652
     22          6           0       -1.669218   -1.711705   -0.407850
     23          6           0       -2.030063   -3.103858   -0.926979
     24          1           0       -3.653302   -1.202966    0.264046
     25          1           0       -3.294600   -0.682486   -1.379595
     26          1           0       -1.245890   -1.791824    0.601600
     27          1           0       -0.888332   -1.271844   -1.041377
     28          1           0       -2.432185   -3.043679   -1.943480
     29          1           0       -2.791774   -3.566614   -0.291169
     30          1           0       -1.157257   -3.763942   -0.945940
     31          6           0       -2.524887    0.630134    0.147093
     32          6           0       -3.725394    1.576342    0.185292
     33          6           0       -3.364549    2.968496    0.704420
     34          1           0       -2.100012    0.547124    1.157037
     35          1           0       -1.741309    1.067604   -0.486603
     36          1           0       -4.506279    1.136481    0.818818
     37          1           0       -4.148721    1.656461   -0.824159
     38          1           0       -2.602837    3.431251    0.068610
     39          1           0       -2.962427    2.908317    1.720922
     40          1           0       -4.237354    3.628580    0.723381
 ---------------------------------------------------------------------

 SCF Done:  E(RHF) =  -470.732901964     A.U. after   11 cycles
 E2 =    -0.1584105310D+01 EUMP2 =    -0.47231700727444D+03

 The electronic state is 1-A.
 Alpha  occ. eigenvalues --  -11.21699 -11.21654 -11.21568 -11.21536 -11.21482
 Alpha  occ. eigenvalues --  -11.21423 -11.21341 -11.21255 -11.21141 -11.21104
 Alpha  occ. eigenvalues --  -11.21051 -11.20965  -1.08518  -1.08363  -1.03623
 Alpha  occ. eigenvalues --   -1.03461  -0.96056  -0.95915  -0.87061  -0.86943
 Alpha  occ. eigenvalues --   -0.79732  -0.79505  -0.78409  -0.78099  -0.65144
 Alpha  occ. eigenvalues --   -0.65009  -0.61040  -0.60901  -0.59427  -0.59261
 Alpha  occ. eigenvalues --   -0.57728  -0.57480  -0.55356  -0.55169  -0.52740
 Alpha  occ. eigenvalues --   -0.52623  -0.52480  -0.52340  -0.50029  -0.49829
 Alpha  occ. eigenvalues --   -0.48148  -0.47770  -0.46760  -0.46523  -0.46171
 Alpha  occ. eigenvalues --   -0.45763  -0.45699  -0.45239  -0.43855  -0.43723
 Alpha virt. eigenvalues --    0.20624   0.22579   0.23383   0.24974   0.25309
 Alpha virt. eigenvalues --    0.26179   0.26777   0.27203   0.28813   0.30229
 Alpha virt. eigenvalues --    0.30547   0.30936   0.31612   0.31819   0.32034

 Mulliken charges:
               1
     1  C   -0.304386
     2  C   -0.298405
     3  C   -0.484702
     4  H    0.148863
     5  H    0.156420
     6  H    0.151566
     7  H    0.151094
     8  H    0.165395
     9  H    0.154398
    10  H    0.159409
    11  C   -0.298020
    12  C   -0.299993
    13  C   -0.475671
    14  H    0.149358
    15  H    0.148855
    16  H    0.151993
    17  H    0.152124
    18  H    0.154835
    19  H    0.155201
    20  H    0.160174
    21  C   -0.297484
    22  C   -0.305738
    23  C   -0.477881
    24  H    0.150141
    25  H    0.149674
    26  H    0.155144
    27  H    0.153608
    28  H    0.155620
    29  H    0.155718
    30  H    0.162448
    31  C   -0.299731
    32  C   -0.299701
    33  C   -0.475764
    34  H    0.150552
    35  H    0.149421
    36  H    0.152261
    37  H    0.152055
    38  H    0.155153
    39  H    0.155542
    40  H    0.160453
 Sum of Mulliken charges =  -0.00000

 Dipole moment (field-independent basis, Debye):
    X=             -0.0812    Y=             -0.0032    Z=              0.0047  Tot=              0.0814
 Quadrupole moment (field-independent basis, Debye-Ang):
   XX=            -84.5016   YY=            -86.5687   ZZ=            -83.7702
   XY=             -0.3223   XZ=              0.5104   YZ=             -0.1304

 Normal termination of Gaussian 16 at Wed May  5 15:04:58 2021.
