 Gaussian 16, Revision A.03,
 Gaussian 16:  EM64L-G16RevA.03 25-Dec-2016

 -------------
 #p 6-31g* mp2
 -------------

 ------------------------------------------------------
 Input file generated by CHIRIPA (05-May-2021 14:57:27)
 ------------------------------------------------------
 Symbolic Z-matrix:
 Charge =  0 Multiplicity = 1

                         Standard orientation:
 ---------------------------------------------------------------------
 Center     Atomic      Atomic             Coordinates (Angstroms)
 Number     Number       Type             X           Y           Z
 ---------------------------------------------------------------------
      1          6           0        3.962366   -2.126346    0.315188
      2          6           0        2.634505   -1.761411    0.560398
      3          6           0        2.214948   -0.440975    0.373395
      4          6           0        3.153987    0.492973   -0.061617
      5          6           0        4.483923    0.160334   -0.314423
      6          6           0        4.881218   -1.166002   -0.120671
      7          1           0        4.279641   -3.154383    0.463078
      8          1           0        1.918734   -2.505111    0.898962
      9          1           0        1.193099   -0.131142    0.555731
     10          1           0        5.174474    0.923976   -0.651185
     11          1           0        5.913095   -1.446552   -0.311890
     12          7           0        2.721605    1.893982   -0.263161
     13          8           0        3.568289    2.697977   -0.647029
     14          8           0        1.544207    2.161569   -0.033448
     15          6           0       -4.355235    1.977802    0.296782
     16          6           0       -3.143096    1.722940    0.946618
     17          6           0       -2.508083    0.485492    0.805089
     18          6           0       -3.116006   -0.478613    0.002454
     19          6           0       -4.323165   -0.254902   -0.657856
     20          6           0       -4.940369    0.989810   -0.501973
     21          1           0       -4.841610    2.941903    0.412301
     22          1           0       -2.686366    2.488354    1.567571
     23          1           0       -1.569224    0.261524    1.296820
     24          1           0       -4.754151   -1.037647   -1.270212
     25          1           0       -5.881683    1.184945   -1.007834
     26          7           0       -2.453173   -1.792488   -0.154974
     27          8           0       -3.009274   -2.625198   -0.867705
     28          8           0       -1.390096   -1.964715    0.437343
 ---------------------------------------------------------------------

 SCF Done:  E(RHF) =  -868.340969490     A.U. after   16 cycles
 E2 =    -0.2598892824D+01 EUMP2 =    -0.87093986231475D+03

 The electronic state is 1-A.
 Alpha  occ. eigenvalues --  -20.61246 -20.61182 -20.60607 -20.60577 -15.86241
 Alpha  occ. eigenvalues --  -15.85633 -11.31211 -11.30686 -11.27736 -11.27732
 Alpha  occ. eigenvalues --  -11.27379 -11.27249 -11.27125 -11.26875 -11.26683
 Alpha  occ. eigenvalues --  -11.26597 -11.26231 -11.25988  -1.60266  -1.59668
 Alpha  occ. eigenvalues --   -1.39840  -1.39233  -1.19337  -1.18817  -1.08804
 Alpha  occ. eigenvalues --   -1.08275  -1.04675  -1.04143  -0.95711  -0.95164
 Alpha  occ. eigenvalues --   -0.86103  -0.85571  -0.82568  -0.81986  -0.77667
 Alpha  occ. eigenvalues --   -0.77062  -0.72491  -0.71868  -0.71557  -0.70979
 Alpha  occ. eigenvalues --   -0.70457  -0.69931  -0.64998  -0.64682  -0.64457
 Alpha  occ. eigenvalues --   -0.64118  -0.62053  -0.61464  -0.55201  -0.54685
 Alpha  occ. eigenvalues --   -0.53020  -0.52776  -0.52527  -0.52203  -0.49249
 Alpha  occ. eigenvalues --   -0.49178  -0.48634  -0.48583  -0.45325  -0.44706
 Alpha  occ. eigenvalues --   -0.37289  -0.36803  -0.36243  -0.35735
 Alpha virt. eigenvalues --    0.04823   0.05416   0.11370   0.11902   0.16423
 Alpha virt. eigenvalues --    0.16991   0.20465   0.22375   0.25369   0.27816
 Alpha virt. eigenvalues --    0.28487   0.29644   0.30997   0.31553   0.31973

 Mulliken charges:
               1
     1  C   -0.171277
     2  C   -0.221962
     3  C   -0.174381
     4  C    0.157890
     5  C   -0.172027
     6  C   -0.218936
     7  H    0.225548
     8  H    0.240137
     9  H    0.278759
    10  H    0.272832
    11  H    0.221303
    12  N    0.488446
    13  O   -0.461099
    14  O   -0.468225
    15  C   -0.169691
    16  C   -0.216288
    17  C   -0.167639
    18  C    0.157172
    19  C   -0.170737
    20  C   -0.218410
    21  H    0.227398
    22  H    0.230077
    23  H    0.273964
    24  H    0.274561
    25  H    0.223643
    26  N    0.491667
    27  O   -0.456628
    28  O   -0.476095
 Sum of Mulliken charges =  -0.00000

 Dipole moment (field-independent basis, Debye):
    X=             -1.0933    Y=             -0.3411    Z=              1.2845  Tot=              1.7209
 Quadrupole moment (field-independent basis, Debye-Ang):
   XX=            -73.9457   YY=           -114.1890   ZZ=           -104.0504
   XY=            -26.7387   XZ=              1.5829   YZ=              1.1757

 Normal termination of Gaussian 16 at Fri May  7 09:44:30 2021.
