 Gaussian 16, Revision A.03,
 Gaussian 16:  EM64L-G16RevA.03 25-Dec-2016

 -------------
 #p 6-31g* mp2
 -------------

 ------------------------------------------------------
 Input file generated by CHIRIPA (05-May-2021 14:51:09)
 ------------------------------------------------------
 Symbolic Z-matrix:
 Charge =  0 Multiplicity = 1

                         Standard orientation:
 ---------------------------------------------------------------------
 Center     Atomic      Atomic             Coordinates (Angstroms)
 Number     Number       Type             X           Y           Z
 ---------------------------------------------------------------------
      1          6           0        2.658228    0.196297   -0.309105
      2          6           0        4.153693   -0.119378   -0.352906
      3          6           0        4.444773   -1.534283   -0.854017
      4          1           0        2.154527   -0.534423    0.338413
      5          1           0        2.233865    0.067842   -1.314495
      6          1           0        4.575384    0.010974    0.651982
      7          1           0        4.653922    0.612293   -1.000242
      8          1           0        4.050888   -1.673192   -1.866025
      9          1           0        3.971903   -2.277928   -0.204412
     10          1           0        5.519726   -1.738719   -0.877323
     11          6           0        2.351245    1.607182    0.189787
     12          6           0        0.855780    1.922857    0.233589
     13          6           0        0.564700    3.337761    0.734700
     14          1           0        2.775609    1.735636    1.195178
     15          1           0        2.854946    2.337901   -0.457730
     16          1           0        0.355552    1.191185    0.880925
     17          1           0        0.434090    1.792504   -0.771300
     18          1           0        1.037570    4.081406    0.085095
     19          1           0        0.958586    3.476671    1.746707
     20          1           0       -0.510252    3.542198    0.758006
     21          6           0       -2.211543   -1.602284    0.141547
     22          6           0       -0.784515   -1.601989    0.690706
     23          6           0       -0.211695   -3.010761    0.848923
     24          1           0       -2.855373   -2.188316    0.811618
     25          1           0       -2.222902   -2.115000   -0.830250
     26          1           0       -0.775605   -1.088209    1.660535
     27          1           0       -0.144047   -1.015729    0.019353
     28          1           0       -0.191524   -3.528954   -0.115271
     29          1           0       -0.826669   -3.601846    1.535236
     30          1           0        0.809164   -2.987156    1.242811
     31          6           0       -2.797931   -0.201194   -0.022229
     32          6           0       -4.224958   -0.201490   -0.571389
     33          6           0       -4.797778    1.207283   -0.729605
     34          1           0       -2.786571    0.311522    0.949568
     35          1           0       -2.154101    0.384838   -0.692300
     36          1           0       -4.865426   -0.787748    0.099965
     37          1           0       -4.233868   -0.715269   -1.541218
     38          1           0       -4.182804    1.798367   -1.415918
     39          1           0       -4.817950    1.725475    0.234589
     40          1           0       -5.818638    1.183678   -1.123493
 ---------------------------------------------------------------------

 SCF Done:  E(RHF) =  -470.731655280     A.U. after   11 cycles
 E2 =    -0.1585362907D+01 EUMP2 =    -0.47231701818683D+03

 The electronic state is 1-A.
 Alpha  occ. eigenvalues --  -11.21599 -11.21587 -11.21500 -11.21490 -11.21381
 Alpha  occ. eigenvalues --  -11.21372 -11.21322 -11.21313 -11.21078 -11.21075
 Alpha  occ. eigenvalues --  -11.21068 -11.21017  -1.08484  -1.08347  -1.03530
 Alpha  occ. eigenvalues --   -1.03493  -0.95998  -0.95934  -0.86998  -0.86965
 Alpha  occ. eigenvalues --   -0.79705  -0.79543  -0.78553  -0.77879  -0.65094
 Alpha  occ. eigenvalues --   -0.65010  -0.60934  -0.60895  -0.59378  -0.59308
 Alpha  occ. eigenvalues --   -0.57732  -0.57436  -0.55274  -0.55229  -0.52718
 Alpha  occ. eigenvalues --   -0.52619  -0.52447  -0.52337  -0.49924  -0.49894
 Alpha  occ. eigenvalues --   -0.48143  -0.47833  -0.46792  -0.46618  -0.46232
 Alpha  occ. eigenvalues --   -0.45818  -0.45548  -0.44823  -0.43780  -0.43719
 Alpha virt. eigenvalues --    0.21428   0.22336   0.23600   0.24383   0.24961
 Alpha virt. eigenvalues --    0.26123   0.26707   0.27489   0.28210   0.29752
 Alpha virt. eigenvalues --    0.30518   0.31095   0.31738   0.31869   0.32494

 Mulliken charges:
               1
     1  C   -0.305347
     2  C   -0.299060
     3  C   -0.475857
     4  H    0.157480
     5  H    0.148102
     6  H    0.151826
     7  H    0.151896
     8  H    0.155029
     9  H    0.155235
    10  H    0.160317
    11  C   -0.297059
    12  C   -0.306980
    13  C   -0.475749
    14  H    0.149061
    15  H    0.149155
    16  H    0.161956
    17  H    0.150198
    18  H    0.154549
    19  H    0.154660
    20  H    0.160621
    21  C   -0.297352
    22  C   -0.308907
    23  C   -0.476384
    24  H    0.148974
    25  H    0.149142
    26  H    0.150016
    27  H    0.164494
    28  H    0.155667
    29  H    0.155175
    30  H    0.159271
    31  C   -0.300979
    32  C   -0.299589
    33  C   -0.475636
    34  H    0.148989
    35  H    0.153130
    36  H    0.151884
    37  H    0.151783
    38  H    0.155001
    39  H    0.155046
    40  H    0.160244
 Sum of Mulliken charges =  -0.00000

 Dipole moment (field-independent basis, Debye):
    X=              0.0005    Y=             -0.0105    Z=             -0.0013  Tot=              0.0106
 Quadrupole moment (field-independent basis, Debye-Ang):
   XX=            -85.2589   YY=            -86.7447   ZZ=            -83.1020
   XY=              0.8687   XZ=             -0.3255   YZ=             -0.5070

 Normal termination of Gaussian 16 at Thu May  6 05:20:42 2021.
