 Gaussian 16, Revision A.03,
 Gaussian 16:  EM64L-G16RevA.03 25-Dec-2016

 -------------
 #p 6-31g* mp2
 -------------

 ------------------------------------------------------
 Input file generated by CHIRIPA (05-May-2021 14:53:17)
 ------------------------------------------------------
 Symbolic Z-matrix:
 Charge =  0 Multiplicity = 1

                         Standard orientation:
 ---------------------------------------------------------------------
 Center     Atomic      Atomic             Coordinates (Angstroms)
 Number     Number       Type             X           Y           Z
 ---------------------------------------------------------------------
      1          6           0       -2.357139    1.136188   -0.129156
      2          6           0       -2.142784    1.886838   -1.443904
      3          6           0       -1.359479    3.187175   -1.261280
      4          1           0       -2.888083    1.789733    0.576480
      5          1           0       -1.380083    0.916350    0.322982
      6          1           0       -3.119911    2.103978   -1.894114
      7          1           0       -1.612458    1.231363   -2.146558
      8          1           0       -0.371682    2.985190   -0.834596
      9          1           0       -1.887700    3.862763   -0.580718
     10          1           0       -1.217713    3.707584   -2.213613
     11          6           0       -3.138681   -0.165841   -0.295408
     12          6           0       -3.353035   -0.916491    1.019339
     13          6           0       -4.136340   -2.216828    0.836716
     14          1           0       -4.115737    0.053997   -0.747546
     15          1           0       -2.607737   -0.819386   -1.001044
     16          1           0       -3.883362   -0.261017    1.721993
     17          1           0       -2.375909   -1.133632    1.469550
     18          1           0       -3.608119   -2.892416    0.156153
     19          1           0       -5.124138   -2.014843    0.410031
     20          1           0       -4.278107   -2.737237    1.789048
     21          6           0        2.475919    1.753938    1.472752
     22          6           0        1.307620    1.003328    1.640620
     23          6           0        1.114590   -0.180098    0.921739
     24          6           0        2.114987   -0.585250    0.039499
     25          6           0        3.289915    0.140727   -0.149683
     26          6           0        3.461602    1.321005    0.579711
     27          1           0        2.617580    2.672030    2.035279
     28          1           0        0.540430    1.337126    2.333471
     29          1           0        0.219768   -0.780497    1.032345
     30          1           0        4.036816   -0.217544   -0.847680
     31          1           0        4.369929    1.901916    0.447314
     32          7           0        1.921933   -1.836425   -0.727113
     33          8           0        2.818373   -2.171815   -1.498181
     34          8           0        0.877832   -2.458013   -0.542399
 ---------------------------------------------------------------------

 SCF Done:  E(RHF) =  -669.534826423     A.U. after   15 cycles
 E2 =    -0.2094125881D+01 EUMP2 =    -0.67162895230442D+03

 The electronic state is 1-A.
 Alpha  occ. eigenvalues --  -20.60873 -20.60865 -15.85923 -11.31282 -11.27849
 Alpha  occ. eigenvalues --  -11.27843 -11.27595 -11.26865 -11.26856 -11.21770
 Alpha  occ. eigenvalues --  -11.21710 -11.21552 -11.21366 -11.21249 -11.20950
 Alpha  occ. eigenvalues --   -1.59944  -1.39498  -1.19468  -1.08855  -1.08547
 Alpha  occ. eigenvalues --   -1.04875  -1.03612  -0.96054  -0.95689  -0.87067
 Alpha  occ. eigenvalues --   -0.86260  -0.82532  -0.79698  -0.78423  -0.77545
 Alpha  occ. eigenvalues --   -0.72143  -0.71268  -0.70580  -0.65306  -0.65084
 Alpha  occ. eigenvalues --   -0.64802  -0.62192  -0.61010  -0.59425  -0.57673
 Alpha  occ. eigenvalues --   -0.55405  -0.55284  -0.53222  -0.52954  -0.52737
 Alpha  occ. eigenvalues --   -0.52477  -0.49986  -0.48898  -0.48897  -0.48009
 Alpha  occ. eigenvalues --   -0.46735  -0.45921  -0.45806  -0.44899  -0.43871
 Alpha  occ. eigenvalues --   -0.37439  -0.36374
 Alpha virt. eigenvalues --    0.04918   0.11134   0.16318   0.19865   0.22995
 Alpha virt. eigenvalues --    0.23845   0.25429   0.26921   0.27734   0.27967
 Alpha virt. eigenvalues --    0.30027   0.30260   0.31351   0.31635   0.32012

 Mulliken charges:
               1
     1  C   -0.304590
     2  C   -0.298831
     3  C   -0.478453
     4  H    0.146333
     5  H    0.146494
     6  H    0.153063
     7  H    0.156239
     8  H    0.155214
     9  H    0.152341
    10  H    0.161194
    11  C   -0.301714
    12  C   -0.300421
    13  C   -0.476797
    14  H    0.150603
    15  H    0.160896
    16  H    0.149794
    17  H    0.144918
    18  H    0.164253
    19  H    0.154992
    20  H    0.159659
    21  C   -0.171581
    22  C   -0.218713
    23  C   -0.176150
    24  C    0.156230
    25  C   -0.170503
    26  C   -0.218674
    27  H    0.226670
    28  H    0.226116
    29  H    0.284692
    30  H    0.275995
    31  H    0.224095
    32  N    0.487451
    33  O   -0.459663
    34  O   -0.461151
 Sum of Mulliken charges =  -0.00000

 Dipole moment (field-independent basis, Debye):
    X=              0.7231    Y=              4.2950    Z=              2.6066  Tot=              5.0759
 Quadrupole moment (field-independent basis, Debye-Ang):
   XX=            -87.3235   YY=           -101.2223   ZZ=            -94.1311
   XY=              9.2113   XZ=              3.7979   YZ=             -1.4676

 Normal termination of Gaussian 16 at Thu May  6 02:47:46 2021.
