 Gaussian 16, Revision A.03,
 Gaussian 16:  EM64L-G16RevA.03 25-Dec-2016

 -------------
 #p 6-31g* mp2
 -------------

 ------------------------------------------------------
 Input file generated by CHIRIPA (05-May-2021 14:55:25)
 ------------------------------------------------------
 Symbolic Z-matrix:
 Charge =  0 Multiplicity = 1

                         Standard orientation:
 ---------------------------------------------------------------------
 Center     Atomic      Atomic             Coordinates (Angstroms)
 Number     Number       Type             X           Y           Z
 ---------------------------------------------------------------------
      1          6           0        2.902752   -2.137311   -0.756129
      2          6           0        1.860127   -1.408108   -1.337264
      3          6           0        1.702642   -0.047616   -1.056539
      4          6           0        2.610046    0.554507   -0.186276
      5          6           0        3.658990   -0.145016    0.408430
      6          6           0        3.797279   -1.504552    0.113330
      7          1           0        3.017634   -3.193803   -0.979787
      8          1           0        1.163931   -1.896898   -2.012868
      9          1           0        0.904433    0.540732   -1.492574
     10          1           0        4.337240    0.369825    1.078008
     11          1           0        4.607934   -2.068363    0.566100
     12          7           0        2.453485    1.994293    0.118524
     13          8           0        3.266209    2.501471    0.888515
     14          8           0        1.521013    2.588358   -0.418337
     15          6           0       -2.921726   -1.021531    0.290781
     16          6           0       -1.648052   -0.854457    1.120133
     17          6           0       -0.753751   -2.094166    1.086342
     18          1           0       -3.482404   -1.890104    0.662489
     19          1           0       -2.646981   -1.248368   -0.748669
     20          1           0       -1.925106   -0.626636    2.157415
     21          1           0       -1.090437    0.013934    0.746530
     22          1           0       -0.448713   -2.321261    0.059706
     23          1           0       -1.288125   -2.965471    1.478608
     24          1           0        0.151044   -1.952946    1.685728
     25          6           0       -3.826049    0.209467    0.314688
     26          6           0       -5.099723    0.042393   -0.514664
     27          6           0       -5.994023    1.282102   -0.480874
     28          1           0       -4.100794    0.436304    1.354138
     29          1           0       -3.265371    1.078040   -0.057020
     30          1           0       -5.657338   -0.825998   -0.141061
     31          1           0       -4.822668   -0.185428   -1.551947
     32          1           0       -5.459650    2.153407   -0.873139
     33          1           0       -6.299062    1.509197    0.545762
     34          1           0       -6.898818    1.140883   -1.080260
 ---------------------------------------------------------------------

 SCF Done:  E(RHF) =  -669.534561696     A.U. after   15 cycles
 E2 =    -0.2093328251D+01 EUMP2 =    -0.67162788994701D+03

 The electronic state is 1-A.
 Alpha  occ. eigenvalues --  -20.60822 -20.60816 -15.85873 -11.31243 -11.27793
 Alpha  occ. eigenvalues --  -11.27789 -11.27520 -11.26822 -11.26810 -11.21690
 Alpha  occ. eigenvalues --  -11.21617 -11.21540 -11.21362 -11.21234 -11.21011
 Alpha  occ. eigenvalues --   -1.59894  -1.39448  -1.19410  -1.08804  -1.08502
 Alpha  occ. eigenvalues --   -1.04826  -1.03592  -0.96052  -0.95636  -0.87078
 Alpha  occ. eigenvalues --   -0.86211  -0.82475  -0.79659  -0.78306  -0.77526
 Alpha  occ. eigenvalues --   -0.72090  -0.71216  -0.70508  -0.65159  -0.65058
 Alpha  occ. eigenvalues --   -0.64834  -0.62192  -0.61008  -0.59420  -0.57656
 Alpha  occ. eigenvalues --   -0.55467  -0.55291  -0.53175  -0.52928  -0.52605
 Alpha  occ. eigenvalues --   -0.52463  -0.49975  -0.48850  -0.48846  -0.47976
 Alpha  occ. eigenvalues --   -0.46704  -0.45852  -0.45778  -0.44847  -0.43849
 Alpha  occ. eigenvalues --   -0.37348  -0.36338
 Alpha virt. eigenvalues --    0.04998   0.11129   0.16449   0.20550   0.22925
 Alpha virt. eigenvalues --    0.24201   0.26026   0.26702   0.27633   0.28246
 Alpha virt. eigenvalues --    0.28612   0.30367   0.31502   0.31702   0.32368

 Mulliken charges:
               1
     1  C   -0.169973
     2  C   -0.215554
     3  C   -0.169146
     4  C    0.158564
     5  C   -0.171507
     6  C   -0.218575
     7  H    0.226065
     8  H    0.223199
     9  H    0.275053
    10  H    0.275705
    11  H    0.223748
    12  N    0.488300
    13  O   -0.459905
    14  O   -0.461059
    15  C   -0.297101
    16  C   -0.303691
    17  C   -0.472792
    18  H    0.149529
    19  H    0.142668
    20  H    0.154808
    21  H    0.155230
    22  H    0.147120
    23  H    0.152775
    24  H    0.162150
    25  C   -0.299474
    26  C   -0.299441
    27  C   -0.476009
    28  H    0.151211
    29  H    0.153981
    30  H    0.151115
    31  H    0.150015
    32  H    0.157326
    33  H    0.155919
    34  H    0.159747
 Sum of Mulliken charges =  -0.00000

 Dipole moment (field-independent basis, Debye):
    X=              0.6046    Y=             -5.0078    Z=             -1.0358  Tot=              5.1494
 Quadrupole moment (field-independent basis, Debye-Ang):
   XX=            -89.1351   YY=           -101.7323   ZZ=            -92.4213
   XY=            -12.8597   XZ=             -0.7277   YZ=              0.0452

 Normal termination of Gaussian 16 at Thu May  6 09:34:50 2021.
