 Gaussian 16, Revision A.03,
 Gaussian 16:  EM64L-G16RevA.03 25-Dec-2016

 -------------
 #p 6-31g* mp2
 -------------

 ------------------------------------------------------
 Input file generated by CHIRIPA (05-May-2021 14:51:13)
 ------------------------------------------------------
 Symbolic Z-matrix:
 Charge =  0 Multiplicity = 1

                         Standard orientation:
 ---------------------------------------------------------------------
 Center     Atomic      Atomic             Coordinates (Angstroms)
 Number     Number       Type             X           Y           Z
 ---------------------------------------------------------------------
      1          6           0        3.701182    0.155844   -0.521495
      2          6           0        2.801139    1.264625    0.024869
      3          6           0        1.396079    1.236098   -0.577450
      4          1           0        3.767040    0.250748   -1.614015
      5          1           0        3.234546   -0.818333   -0.319937
      6          1           0        3.270000    2.236356   -0.176433
      7          1           0        2.737569    1.167185    1.116235
      8          1           0        0.905067    0.280976   -0.364726
      9          1           0        1.440523    1.356223   -1.664738
     10          1           0        0.769542    2.037155   -0.172953
     11          6           0        5.109110    0.171248    0.071151
     12          6           0        6.009153   -0.937533   -0.475212
     13          6           0        7.414212   -0.909006    0.127107
     14          1           0        5.575745    1.145425   -0.130406
     15          1           0        5.043251    0.076344    1.163672
     16          1           0        6.072722   -0.840093   -1.566578
     17          1           0        5.540291   -1.909264   -0.273910
     18          1           0        7.369768   -1.029131    1.214395
     19          1           0        7.905224    0.046116   -0.085617
     20          1           0        8.040749   -1.710063   -0.277390
     21          6           0       -3.762596   -0.492452    0.474935
     22          6           0       -2.672898    0.512652    0.849517
     23          6           0       -1.393569   -0.160584    1.347378
     24          1           0       -3.991763   -1.117779    1.348659
     25          1           0       -3.377136   -1.168484   -0.300821
     26          1           0       -3.060763    1.187458    1.623347
     27          1           0       -2.446433    1.135784   -0.025145
     28          1           0       -0.980357   -0.819853    0.577168
     29          1           0       -1.598178   -0.767885    2.235027
     30          1           0       -0.628007    0.576319    1.609573
     31          6           0       -5.047696    0.165360   -0.024592
     32          6           0       -6.137393   -0.839744   -0.399174
     33          6           0       -7.416722   -0.166508   -0.897034
     34          1           0       -5.433154    0.841391    0.751164
     35          1           0       -4.818528    0.790686   -0.898316
     36          1           0       -6.363858   -1.462876    0.475489
     37          1           0       -5.749528   -1.514551   -1.173004
     38          1           0       -7.212113    0.440793   -1.784684
     39          1           0       -7.829934    0.492760   -0.126825
     40          1           0       -8.182285   -0.903412   -1.159231
 ---------------------------------------------------------------------

 SCF Done:  E(RHF) =  -470.731991386     A.U. after   11 cycles
 E2 =    -0.1583041718D+01 EUMP2 =    -0.47231503310437D+03

 The electronic state is 1-A.
 Alpha  occ. eigenvalues --  -11.21587 -11.21584 -11.21569 -11.21557 -11.21384
 Alpha  occ. eigenvalues --  -11.21379 -11.21325 -11.21319 -11.21059 -11.21057
 Alpha  occ. eigenvalues --  -11.20992 -11.20922  -1.08418  -1.08389  -1.03556
 Alpha  occ. eigenvalues --   -1.03446  -0.96064  -0.95843  -0.87116  -0.86829
 Alpha  occ. eigenvalues --   -0.79647  -0.79487  -0.78227  -0.78208  -0.65090
 Alpha  occ. eigenvalues --   -0.64991  -0.61110  -0.60755  -0.59481  -0.59171
 Alpha  occ. eigenvalues --   -0.57658  -0.57464  -0.55557  -0.54968  -0.52806
 Alpha  occ. eigenvalues --   -0.52547  -0.52375  -0.52271  -0.50163  -0.49570
 Alpha  occ. eigenvalues --   -0.47939  -0.47816  -0.46731  -0.46421  -0.45782
 Alpha  occ. eigenvalues --   -0.45739  -0.45706  -0.45623  -0.43801  -0.43681
 Alpha virt. eigenvalues --    0.21904   0.23011   0.23545   0.25053   0.26249
 Alpha virt. eigenvalues --    0.26685   0.26927   0.27442   0.27678   0.29203
 Alpha virt. eigenvalues --    0.29814   0.31040   0.31359   0.32188   0.32355

 Mulliken charges:
               1
     1  C   -0.298343
     2  C   -0.300277
     3  C   -0.480337
     4  H    0.149534
     5  H    0.149575
     6  H    0.151596
     7  H    0.151684
     8  H    0.163084
     9  H    0.153659
    10  H    0.159242
    11  C   -0.298262
    12  C   -0.299646
    13  C   -0.475690
    14  H    0.149462
    15  H    0.149678
    16  H    0.151851
    17  H    0.151920
    18  H    0.155184
    19  H    0.155142
    20  H    0.160182
    21  C   -0.298443
    22  C   -0.300871
    23  C   -0.477697
    24  H    0.149556
    25  H    0.149629
    26  H    0.151665
    27  H    0.153358
    28  H    0.154728
    29  H    0.154025
    30  H    0.164936
    31  C   -0.298308
    32  C   -0.299639
    33  C   -0.475696
    34  H    0.149436
    35  H    0.149761
    36  H    0.151869
    37  H    0.151915
    38  H    0.155196
    39  H    0.155143
    40  H    0.160193
 Sum of Mulliken charges =  -0.00000

 Dipole moment (field-independent basis, Debye):
    X=             -0.0135    Y=             -0.0069    Z=              0.0058  Tot=              0.0162
 Quadrupole moment (field-independent basis, Debye-Ang):
   XX=            -86.8501   YY=            -84.5952   ZZ=            -83.6001
   XY=              0.5640   XZ=             -1.2652   YZ=             -0.2394

 Normal termination of Gaussian 16 at Thu May  6 02:24:25 2021.
