 Gaussian 16, Revision A.03,
 Gaussian 16:  EM64L-G16RevA.03 25-Dec-2016

 -------------
 #p 6-31g* mp2
 -------------

 ------------------------------------------------------
 Input file generated by CHIRIPA (05-May-2021 14:53:14)
 ------------------------------------------------------
 Symbolic Z-matrix:
 Charge =  0 Multiplicity = 1

                         Standard orientation:
 ---------------------------------------------------------------------
 Center     Atomic      Atomic             Coordinates (Angstroms)
 Number     Number       Type             X           Y           Z
 ---------------------------------------------------------------------
      1          6           0       -3.704708    0.015008   -0.175206
      2          6           0       -5.147865   -0.241768    0.259934
      3          6           0       -6.073978    0.937713   -0.038280
      4          1           0       -3.330047    0.914599    0.332050
      5          1           0       -3.687063    0.233123   -1.252012
      6          1           0       -5.162622   -0.460696    1.335326
      7          1           0       -5.519070   -1.140963   -0.248271
      8          1           0       -6.088969    1.154009   -1.111403
      9          1           0       -5.730496    1.838141    0.481192
     10          1           0       -7.100618    0.732727    0.280860
     11          6           0       -2.766764   -1.155043    0.116293
     12          6           0       -1.323607   -0.898267   -0.318847
     13          6           0       -0.397494   -2.077748   -0.020633
     14          1           0       -2.784410   -1.373158    1.193099
     15          1           0       -3.141425   -2.054634   -0.390963
     16          1           0       -0.952402    0.000928    0.189358
     17          1           0       -1.308850   -0.679339   -1.394239
     18          1           0       -0.740976   -2.978176   -0.540105
     19          1           0       -0.382503   -2.294044    1.052490
     20          1           0        0.629146   -1.872762   -0.339773
     21          6           0        3.451080   -1.902796    0.027582
     22          6           0        3.213371   -1.246454   -1.184535
     23          6           0        2.702043    0.054655   -1.199066
     24          6           0        2.438671    0.672334    0.022572
     25          6           0        2.664856    0.044794    1.246631
     26          6           0        3.176548   -1.256217    1.237165
     27          1           0        3.848433   -2.913490    0.029549
     28          1           0        3.425636   -1.746142   -2.125439
     29          1           0        2.508618    0.586058   -2.122978
     30          1           0        2.443366    0.568756    2.168491
     31          1           0        3.360172   -1.763501    2.180028
     32          7           0        1.897158    2.049707    0.019891
     33          8           0        1.673479    2.572061    1.109731
     34          8           0        1.706653    2.580858   -1.072000
 ---------------------------------------------------------------------

 SCF Done:  E(RHF) =  -669.534160037     A.U. after   15 cycles
 E2 =    -0.2094703797D+01 EUMP2 =    -0.67162886383389D+03

 The electronic state is 1-A.
 Alpha  occ. eigenvalues --  -20.60847 -20.60842 -15.85903 -11.31304 -11.27865
 Alpha  occ. eigenvalues --  -11.27856 -11.27570 -11.26864 -11.26854 -11.21419
 Alpha  occ. eigenvalues --  -11.21350 -11.21186 -11.21056 -11.20824 -11.20790
 Alpha  occ. eigenvalues --   -1.59922  -1.39474  -1.19492  -1.08865  -1.08193
 Alpha  occ. eigenvalues --   -1.04879  -1.03312  -0.95762  -0.95687  -0.86784
 Alpha  occ. eigenvalues --   -0.86265  -0.82514  -0.79385  -0.78002  -0.77563
 Alpha  occ. eigenvalues --   -0.72116  -0.71249  -0.70562  -0.65116  -0.64866
 Alpha  occ. eigenvalues --   -0.64827  -0.62215  -0.60722  -0.59296  -0.57497
 Alpha  occ. eigenvalues --   -0.55358  -0.55073  -0.53703  -0.52954  -0.52277
 Alpha  occ. eigenvalues --   -0.51594  -0.49704  -0.48880  -0.48870  -0.47676
 Alpha  occ. eigenvalues --   -0.46425  -0.45545  -0.45471  -0.44868  -0.43545
 Alpha  occ. eigenvalues --   -0.37403  -0.36474
 Alpha virt. eigenvalues --    0.04962   0.11145   0.16438   0.21334   0.23072
 Alpha virt. eigenvalues --    0.24513   0.26798   0.27246   0.27607   0.28221
 Alpha virt. eigenvalues --    0.28315   0.30829   0.31497   0.32061   0.32436

 Mulliken charges:
               1
     1  C   -0.299195
     2  C   -0.299477
     3  C   -0.475773
     4  H    0.154467
     5  H    0.149943
     6  H    0.151127
     7  H    0.150200
     8  H    0.155305
     9  H    0.157195
    10  H    0.159011
    11  C   -0.297772
    12  C   -0.299624
    13  C   -0.484275
    14  H    0.148279
    15  H    0.147628
    16  H    0.152827
    17  H    0.151245
    18  H    0.149833
    19  H    0.149944
    20  H    0.171522
    21  C   -0.171709
    22  C   -0.221471
    23  C   -0.171951
    24  C    0.162541
    25  C   -0.171257
    26  C   -0.214353
    27  H    0.226632
    28  H    0.224500
    29  H    0.276365
    30  H    0.276054
    31  H    0.224213
    32  N    0.488409
    33  O   -0.460754
    34  O   -0.459630
 Sum of Mulliken charges =  -0.00000

 Dipole moment (field-independent basis, Debye):
    X=              2.0735    Y=             -4.7518    Z=              0.0076  Tot=              5.1845
 Quadrupole moment (field-independent basis, Debye-Ang):
   XX=            -86.7355   YY=           -102.6575   ZZ=            -88.8706
   XY=            -10.4623   XZ=              0.0619   YZ=              0.3505

 Normal termination of Gaussian 16 at Thu May  6 02:37:39 2021.
