 Gaussian 16, Revision A.03,
 Gaussian 16:  EM64L-G16RevA.03 25-Dec-2016

 -------------
 #p 6-31g* mp2
 -------------

 ------------------------------------------------------
 Input file generated by CHIRIPA (05-May-2021 14:53:14)
 ------------------------------------------------------
 Symbolic Z-matrix:
 Charge =  0 Multiplicity = 1

                         Standard orientation:
 ---------------------------------------------------------------------
 Center     Atomic      Atomic             Coordinates (Angstroms)
 Number     Number       Type             X           Y           Z
 ---------------------------------------------------------------------
      1          6           0        3.894131   -0.296341    0.074720
      2          6           0        2.765543    0.470346   -0.615543
      3          6           0        1.382467    0.089948   -0.086212
      4          1           0        3.732216   -1.374574   -0.059971
      5          1           0        3.849309   -0.106210    1.156032
      6          1           0        2.813327    0.279926   -1.695392
      7          1           0        2.930267    1.546885   -0.479357
      8          1           0        1.310380    0.296370    0.986539
      9          1           0        1.192776   -0.977788   -0.236405
     10          1           0        0.590546    0.649844   -0.593399
     11          6           0        5.282868    0.073017   -0.443654
     12          6           0        6.411457   -0.693670    0.246610
     13          6           0        7.794533   -0.313272   -0.282722
     14          1           0        5.327691   -0.117114   -1.524966
     15          1           0        5.444784    1.151250   -0.308963
     16          1           0        6.246732   -1.770209    0.110424
     17          1           0        6.363672   -0.503250    1.326458
     18          1           0        7.984224    0.754464   -0.132529
     19          1           0        7.866620   -0.519694   -1.355473
     20          1           0        8.586454   -0.873167    0.224465
     21          6           0       -5.567196   -1.034236   -0.941331
     22          6           0       -5.040093    0.139627   -1.489719
     23          6           0       -3.941884    0.769566   -0.896708
     24          6           0       -3.393111    0.195655    0.249052
     25          6           0       -3.895630   -0.972977    0.819193
     26          6           0       -4.994292   -1.585819    0.209346
     27          1           0       -6.420487   -1.516948   -1.408536
     28          1           0       -5.482980    0.570246   -2.383287
     29          1           0       -3.513836    1.679140   -1.300277
     30          1           0       -3.432673   -1.378504    1.710618
     31          1           0       -5.401553   -2.497372    0.637430
     32          7           0       -2.230247    0.853494    0.885758
     33          8           0       -1.764900    0.327839    1.894607
     34          8           0       -1.806161    1.882308    0.363904
 ---------------------------------------------------------------------

 SCF Done:  E(RHF) =  -669.536138132     A.U. after   15 cycles
 E2 =    -0.2091472303D+01 EUMP2 =    -0.67162761043466D+03

 The electronic state is 1-A.
 Alpha  occ. eigenvalues --  -20.60906 -20.60876 -15.85902 -11.31248 -11.27814
 Alpha  occ. eigenvalues --  -11.27809 -11.27555 -11.26826 -11.26816 -11.21065
 Alpha  occ. eigenvalues --  -11.20727 -11.20629 -11.20578 -11.20518 -11.19605
 Alpha  occ. eigenvalues --   -1.59935  -1.39495  -1.19418  -1.08818  -1.07662
 Alpha  occ. eigenvalues --   -1.04817  -1.02691  -0.95661  -0.95118  -0.86217
 Alpha  occ. eigenvalues --   -0.86137  -0.82494  -0.78787  -0.77545  -0.77456
 Alpha  occ. eigenvalues --   -0.72134  -0.71245  -0.70528  -0.65074  -0.64822
 Alpha  occ. eigenvalues --   -0.64300  -0.62165  -0.60090  -0.58536  -0.56726
 Alpha  occ. eigenvalues --   -0.55324  -0.54408  -0.53152  -0.52910  -0.51801
 Alpha  occ. eigenvalues --   -0.51549  -0.49156  -0.48893  -0.48784  -0.47101
 Alpha  occ. eigenvalues --   -0.45826  -0.45057  -0.44918  -0.44791  -0.42917
 Alpha  occ. eigenvalues --   -0.37394  -0.36419
 Alpha virt. eigenvalues --    0.04960   0.11235   0.16432   0.21365   0.23592
 Alpha virt. eigenvalues --    0.25231   0.27280   0.27390   0.28195   0.28227
 Alpha virt. eigenvalues --    0.28973   0.30897   0.32256   0.32350   0.32490

 Mulliken charges:
               1
     1  C   -0.297589
     2  C   -0.299987
     3  C   -0.480763
     4  H    0.146676
     5  H    0.150883
     6  H    0.145709
     7  H    0.153062
     8  H    0.169996
     9  H    0.144330
    10  H    0.167151
    11  C   -0.297585
    12  C   -0.299071
    13  C   -0.475271
    14  H    0.147367
    15  H    0.149467
    16  H    0.150523
    17  H    0.152050
    18  H    0.154931
    19  H    0.153995
    20  H    0.158627
    21  C   -0.170657
    22  C   -0.218553
    23  C   -0.171003
    24  C    0.159298
    25  C   -0.170678
    26  C   -0.218597
    27  H    0.225809
    28  H    0.223645
    29  H    0.275577
    30  H    0.275858
    31  H    0.223668
    32  N    0.489023
    33  O   -0.458375
    34  O   -0.459516
 Sum of Mulliken charges =  -0.00000

 Dipole moment (field-independent basis, Debye):
    X=             -4.3720    Y=             -2.2340    Z=             -2.1272  Tot=              5.3507
 Quadrupole moment (field-independent basis, Debye-Ang):
   XX=            -69.6882   YY=            -93.0425   ZZ=            -93.4098
   XY=              7.2965   XZ=              7.4539   YZ=             -3.3518

 Normal termination of Gaussian 16 at Thu May  6 01:03:41 2021.
