 Gaussian 16, Revision A.03,
 Gaussian 16:  EM64L-G16RevA.03 25-Dec-2016

 -------------
 #p 6-31g* mp2
 -------------

 ------------------------------------------------------
 Input file generated by CHIRIPA (05-May-2021 14:53:14)
 ------------------------------------------------------
 Symbolic Z-matrix:
 Charge =  0 Multiplicity = 1

                         Standard orientation:
 ---------------------------------------------------------------------
 Center     Atomic      Atomic             Coordinates (Angstroms)
 Number     Number       Type             X           Y           Z
 ---------------------------------------------------------------------
      1          6           0       -4.629251    0.386722    0.023094
      2          6           0       -6.119437    0.365026   -0.318754
      3          6           0       -6.782500    1.733502   -0.159333
      4          1           0       -4.501525    0.739587    1.055623
      5          1           0       -4.122803    1.117969   -0.622030
      6          1           0       -6.622691   -0.366962    0.325874
      7          1           0       -6.243643    0.011990   -1.350526
      8          1           0       -6.306878    2.470673   -0.814287
      9          1           0       -6.688080    2.089568    0.871638
     10          1           0       -7.847464    1.695114   -0.408808
     11          6           0       -3.952374   -0.974042   -0.131460
     12          6           0       -2.462188   -0.952346    0.210387
     13          6           0       -1.799125   -2.320822    0.050966
     14          1           0       -4.458822   -1.705288    0.513663
     15          1           0       -4.080101   -1.326906   -1.163990
     16          1           0       -2.337982   -0.599309    1.242160
     17          1           0       -1.958934   -0.220358   -0.434241
     18          1           0       -1.893545   -2.676888   -0.980005
     19          1           0       -2.274747   -3.057992    0.705920
     20          1           0       -0.734161   -2.282434    0.300441
     21          6           0        3.311612   -2.292912   -0.003578
     22          6           0        2.303040   -1.588595    0.662185
     23          6           0        2.315421   -0.190963    0.694093
     24          6           0        3.356121    0.473271    0.046769
     25          6           0        4.375298   -0.200100   -0.624901
     26          6           0        4.342704   -1.597642   -0.643868
     27          1           0        3.294143   -3.378592   -0.023338
     28          1           0        1.501041   -2.125916    1.160310
     29          1           0        1.547247    0.379319    1.202134
     30          1           0        5.161713    0.363285   -1.112307
     31          1           0        5.127298   -2.142002   -1.161680
     32          7           0        3.379928    1.952835    0.073698
     33          8           0        4.307808    2.514593   -0.504319
     34          8           0        2.470257    2.522744    0.672314
 ---------------------------------------------------------------------

 SCF Done:  E(RHF) =  -669.535459909     A.U. after   15 cycles
 E2 =    -0.2091077669D+01 EUMP2 =    -0.67162653757800D+03

 The electronic state is 1-A.
 Alpha  occ. eigenvalues --  -20.60764 -20.60759 -15.85819 -11.31189 -11.27770
 Alpha  occ. eigenvalues --  -11.27762 -11.27509 -11.26778 -11.26762 -11.22060
 Alpha  occ. eigenvalues --  -11.21761 -11.21712 -11.21690 -11.21522 -11.21107
 Alpha  occ. eigenvalues --   -1.59840  -1.39393  -1.19368  -1.08761  -1.08696
 Alpha  occ. eigenvalues --   -1.04775  -1.03837  -0.96298  -0.95593  -0.87321
 Alpha  occ. eigenvalues --   -0.86169  -0.82427  -0.79905  -0.78476  -0.77475
 Alpha  occ. eigenvalues --   -0.72036  -0.71164  -0.70471  -0.65320  -0.65020
 Alpha  occ. eigenvalues --   -0.64807  -0.62165  -0.61224  -0.59687  -0.57900
 Alpha  occ. eigenvalues --   -0.55567  -0.55272  -0.53261  -0.53050  -0.52823
 Alpha  occ. eigenvalues --   -0.52554  -0.50220  -0.48797  -0.48791  -0.48215
 Alpha  occ. eigenvalues --   -0.46921  -0.46028  -0.45927  -0.44797  -0.44086
 Alpha  occ. eigenvalues --   -0.37344  -0.36364
 Alpha virt. eigenvalues --    0.05055   0.11212   0.16452   0.20347   0.22759
 Alpha virt. eigenvalues --    0.23979   0.26174   0.26428   0.27152   0.28222
 Alpha virt. eigenvalues --    0.28780   0.29994   0.31123   0.31686   0.32427

 Mulliken charges:
               1
     1  C   -0.299064
     2  C   -0.299958
     3  C   -0.475999
     4  H    0.150581
     5  H    0.152197
     6  H    0.151480
     7  H    0.152009
     8  H    0.156624
     9  H    0.155820
    10  H    0.160479
    11  C   -0.298620
    12  C   -0.300838
    13  C   -0.478823
    14  H    0.149426
    15  H    0.150521
    16  H    0.150875
    17  H    0.156125
    18  H    0.158645
    19  H    0.155921
    20  H    0.150922
    21  C   -0.171440
    22  C   -0.219671
    23  C   -0.171855
    24  C    0.158305
    25  C   -0.170615
    26  C   -0.218701
    27  H    0.226065
    28  H    0.226746
    29  H    0.276390
    30  H    0.275679
    31  H    0.223496
    32  N    0.488100
    33  O   -0.460528
    34  O   -0.460289
 Sum of Mulliken charges =  -0.00000

 Dipole moment (field-independent basis, Debye):
    X=             -0.1682    Y=             -5.1676    Z=             -0.1413  Tot=              5.1723
 Quadrupole moment (field-independent basis, Debye-Ang):
   XX=            -91.8140   YY=           -101.2354   ZZ=            -92.9956
   XY=            -17.2884   XZ=             -3.0995   YZ=             -0.4848

 Normal termination of Gaussian 16 at Thu May  6 15:25:52 2021.
