 Gaussian 16, Revision A.03,
 Gaussian 16:  EM64L-G16RevA.03 25-Dec-2016

 -------------
 #p 6-31g* mp2
 -------------

 ------------------------------------------------------
 Input file generated by CHIRIPA (05-May-2021 14:53:11)
 ------------------------------------------------------
 Symbolic Z-matrix:
 Charge =  0 Multiplicity = 1

                         Standard orientation:
 ---------------------------------------------------------------------
 Center     Atomic      Atomic             Coordinates (Angstroms)
 Number     Number       Type             X           Y           Z
 ---------------------------------------------------------------------
      1          6           0        3.475995    0.686943   -0.318505
      2          6           0        2.376099    1.724907   -0.543988
      3          6           0        2.876811    2.965528   -1.284220
      4          1           0        4.295900    1.148217    0.248883
      5          1           0        3.895877    0.390954   -1.289836
      6          1           0        1.957471    2.017826    0.427385
      7          1           0        1.558634    1.261055   -1.110739
      8          1           0        3.276367    2.693012   -2.266407
      9          1           0        3.677471    3.454083   -0.719544
     10          1           0        2.074328    3.694380   -1.434737
     11          6           0        2.990876   -0.559055    0.420330
     12          6           0        4.090772   -1.597020    0.645814
     13          6           0        3.590060   -2.837640    1.386045
     14          1           0        2.570995   -0.263066    1.391662
     15          1           0        2.170972   -1.020329   -0.147058
     16          1           0        4.908238   -1.133168    1.212565
     17          1           0        4.509400   -1.889939   -0.325559
     18          1           0        2.789401   -3.326195    0.821369
     19          1           0        3.190505   -2.565124    2.368233
     20          1           0        4.392543   -3.566493    1.536563
     21          6           0       -2.660649    1.605479    1.859530
     22          6           0       -1.656311    1.728277    0.893741
     23          6           0       -1.572190    0.816792   -0.162985
     24          6           0       -2.513117   -0.209997   -0.223394
     25          6           0       -3.525382   -0.358904    0.723408
     26          6           0       -3.590340    0.564117    1.771436
     27          1           0       -2.718553    2.318022    2.677042
     28          1           0       -0.932946    2.536019    0.959625
     29          1           0       -0.804919    0.888424   -0.924288
     30          1           0       -4.232189   -1.174571    0.631067
     31          1           0       -4.371396    0.466294    2.520053
     32          7           0       -2.434205   -1.181051   -1.337497
     33          8           0       -3.275217   -2.076814   -1.368205
     34          8           0       -1.532835   -1.028012   -2.158929
 ---------------------------------------------------------------------

 SCF Done:  E(RHF) =  -669.535638740     A.U. after   15 cycles
 E2 =    -0.2091774628D+01 EUMP2 =    -0.67162741336877D+03

 The electronic state is 1-A.
 Alpha  occ. eigenvalues --  -20.60764 -20.60756 -15.85813 -11.31134 -11.27715
 Alpha  occ. eigenvalues --  -11.27673 -11.27455 -11.26727 -11.26698 -11.22213
 Alpha  occ. eigenvalues --  -11.21659 -11.21615 -11.21545 -11.21462 -11.21007
 Alpha  occ. eigenvalues --   -1.59837  -1.39392  -1.19311  -1.08718  -1.08667
 Alpha  occ. eigenvalues --   -1.04708  -1.03779  -0.96191  -0.95557  -0.87212
 Alpha  occ. eigenvalues --   -0.86113  -0.82391  -0.79902  -0.78468  -0.77423
 Alpha  occ. eigenvalues --   -0.72034  -0.71158  -0.70433  -0.65313  -0.64965
 Alpha  occ. eigenvalues --   -0.64699  -0.62088  -0.61158  -0.59590  -0.57813
 Alpha  occ. eigenvalues --   -0.55453  -0.55224  -0.53051  -0.52919  -0.52815
 Alpha  occ. eigenvalues --   -0.52607  -0.50121  -0.48793  -0.48788  -0.48179
 Alpha  occ. eigenvalues --   -0.46912  -0.45992  -0.45879  -0.44804  -0.44014
 Alpha  occ. eigenvalues --   -0.37299  -0.36299
 Alpha virt. eigenvalues --    0.05078   0.11313   0.16554   0.20043   0.22934
 Alpha virt. eigenvalues --    0.23962   0.24988   0.25886   0.27603   0.28201
 Alpha virt. eigenvalues --    0.29529   0.29659   0.31463   0.31658   0.32078

 Mulliken charges:
               1
     1  C   -0.297149
     2  C   -0.308613
     3  C   -0.475096
     4  H    0.149914
     5  H    0.154061
     6  H    0.145401
     7  H    0.154571
     8  H    0.160650
     9  H    0.156754
    10  H    0.156579
    11  C   -0.301202
    12  C   -0.299866
    13  C   -0.476491
    14  H    0.146704
    15  H    0.156678
    16  H    0.150616
    17  H    0.154218
    18  H    0.159294
    19  H    0.153464
    20  H    0.160591
    21  C   -0.170816
    22  C   -0.222522
    23  C   -0.175852
    24  C    0.158738
    25  C   -0.170446
    26  C   -0.218831
    27  H    0.225339
    28  H    0.225417
    29  H    0.283717
    30  H    0.275369
    31  H    0.223187
    32  N    0.487513
    33  O   -0.460292
    34  O   -0.461599
 Sum of Mulliken charges =  -0.00000

 Dipole moment (field-independent basis, Debye):
    X=             -0.1553    Y=              3.3453    Z=              3.8692  Tot=              5.1172
 Quadrupole moment (field-independent basis, Debye-Ang):
   XX=            -90.0804   YY=            -96.3403   ZZ=            -95.9639
   XY=             -6.5720   XZ=            -11.6241   YZ=             -1.6516

 Normal termination of Gaussian 16 at Wed May  5 20:04:08 2021.
