 Gaussian 16, Revision A.03,
 Gaussian 16:  EM64L-G16RevA.03 25-Dec-2016

 -------------
 #p 6-31g* mp2
 -------------

 ------------------------------------------------------
 Input file generated by CHIRIPA (05-May-2021 14:53:18)
 ------------------------------------------------------
 Symbolic Z-matrix:
 Charge =  0 Multiplicity = 1

                         Standard orientation:
 ---------------------------------------------------------------------
 Center     Atomic      Atomic             Coordinates (Angstroms)
 Number     Number       Type             X           Y           Z
 ---------------------------------------------------------------------
      1          6           0        5.925377   -0.207761    0.395020
      2          6           0        7.173354   -0.022067   -0.468724
      3          6           0        8.469942   -0.246693    0.309864
      4          1           0        5.969110    0.486496    1.245338
      5          1           0        5.928765   -1.221580    0.818758
      6          1           0        7.166910    0.990633   -0.891822
      7          1           0        7.126553   -0.716714   -1.317189
      8          1           0        8.502747   -1.261675    0.718930
      9          1           0        8.543334    0.455373    1.146714
     10          1           0        9.349502   -0.108885   -0.326722
     11          6           0        4.621261    0.013468   -0.369223
     12          6           0        3.373283   -0.172226    0.494522
     13          6           0        2.076696    0.052399   -0.284066
     14          1           0        4.617873    1.027287   -0.792961
     15          1           0        4.577528   -0.680789   -1.219540
     16          1           0        3.420085    0.522420    1.342987
     17          1           0        3.379727   -1.184927    0.917619
     18          1           0        2.003304   -0.649666   -1.120916
     19          1           0        2.043890    1.067382   -0.693132
     20          1           0        1.197135   -0.085409    0.352520
     21          6           0       -6.394949   -1.007089    0.119063
     22          6           0       -5.252636   -1.796303   -0.050601
     23          6           0       -3.986935   -1.207035   -0.123482
     24          6           0       -3.899826    0.180595   -0.022562
     25          6           0       -5.019248    0.993913    0.146841
     26          6           0       -6.274820    0.383049    0.217069
     27          1           0       -7.374241   -1.473234    0.174647
     28          1           0       -5.342917   -2.876143   -0.127017
     29          1           0       -3.086103   -1.794191   -0.254509
     30          1           0       -4.897503    2.067817    0.219827
     31          1           0       -7.160225    0.998461    0.348865
     32          7           0       -2.565246    0.815858   -0.098314
     33          8           0       -2.515306    2.040501   -0.006710
     34          8           0       -1.594413    0.077104   -0.247856
 ---------------------------------------------------------------------

 SCF Done:  E(RHF) =  -669.535824173     A.U. after   15 cycles
 E2 =    -0.2090650002D+01 EUMP2 =    -0.67162647417490D+03

 The electronic state is 1-A.
 Alpha  occ. eigenvalues --  -20.60890 -20.60884 -15.85927 -11.31268 -11.27834
 Alpha  occ. eigenvalues --  -11.27830 -11.27575 -11.26846 -11.26836 -11.21016
 Alpha  occ. eigenvalues --  -11.20663 -11.20592 -11.20466 -11.20391 -11.19318
 Alpha  occ. eigenvalues --   -1.59954  -1.39509  -1.19439  -1.08839  -1.07578
 Alpha  occ. eigenvalues --   -1.04838  -1.02577  -0.95680  -0.94985  -0.86238
 Alpha  occ. eigenvalues --   -0.85990  -0.82510  -0.78669  -0.77561  -0.77359
 Alpha  occ. eigenvalues --   -0.72148  -0.71271  -0.70547  -0.65094  -0.64841
 Alpha  occ. eigenvalues --   -0.64223  -0.62185  -0.59990  -0.58415  -0.56588
 Alpha  occ. eigenvalues --   -0.55341  -0.54296  -0.53169  -0.52931  -0.51629
 Alpha  occ. eigenvalues --   -0.51419  -0.48968  -0.48899  -0.48857  -0.46964
 Alpha  occ. eigenvalues --   -0.45746  -0.44937  -0.44873  -0.44824  -0.42772
 Alpha  occ. eigenvalues --   -0.37419  -0.36440
 Alpha virt. eigenvalues --    0.04961   0.11215   0.16450   0.21347   0.23647
 Alpha virt. eigenvalues --    0.25320   0.27265   0.27443   0.28198   0.28288
 Alpha virt. eigenvalues --    0.29087   0.30908   0.32315   0.32411   0.32557

 Mulliken charges:
               1
     1  C   -0.297296
     2  C   -0.298952
     3  C   -0.475198
     4  H    0.148675
     5  H    0.147512
     6  H    0.151553
     7  H    0.150795
     8  H    0.154065
     9  H    0.154593
    10  H    0.158504
    11  C   -0.297124
    12  C   -0.301057
    13  C   -0.475692
    14  H    0.149041
    15  H    0.147344
    16  H    0.149463
    17  H    0.146459
    18  H    0.148317
    19  H    0.155389
    20  H    0.180153
    21  C   -0.170664
    22  C   -0.218542
    23  C   -0.170914
    24  C    0.157713
    25  C   -0.170605
    26  C   -0.218590
    27  H    0.225878
    28  H    0.223726
    29  H    0.275812
    30  H    0.275813
    31  H    0.223710
    32  N    0.490890
    33  O   -0.459310
    34  O   -0.461462
 Sum of Mulliken charges =  -0.00000

 Dipole moment (field-independent basis, Debye):
    X=             -5.0758    Y=             -2.1925    Z=              0.2681  Tot=              5.5356
 Quadrupole moment (field-independent basis, Debye-Ang):
   XX=            -60.2334   YY=            -90.6632   ZZ=            -95.8705
   XY=              6.1702   XZ=             -1.6966   YZ=              0.9924

 Normal termination of Gaussian 16 at Thu May  6 02:51:46 2021.
