 Gaussian 16, Revision A.03,
 Gaussian 16:  EM64L-G16RevA.03 25-Dec-2016

 -------------
 #p 6-31g* mp2
 -------------

 ------------------------------------------------------
 Input file generated by CHIRIPA (05-May-2021 14:55:19)
 ------------------------------------------------------
 Symbolic Z-matrix:
 Charge =  0 Multiplicity = 1

                         Standard orientation:
 ---------------------------------------------------------------------
 Center     Atomic      Atomic             Coordinates (Angstroms)
 Number     Number       Type             X           Y           Z
 ---------------------------------------------------------------------
      1          6           0       -0.909022    0.124059    0.736350
      2          6           0       -1.832667   -0.430062    1.628734
      3          6           0       -3.172824   -0.581492    1.260499
      4          6           0       -3.556556   -0.166232   -0.013707
      5          6           0       -2.660056    0.389400   -0.925217
      6          6           0       -1.324931    0.531304   -0.535535
      7          1           0        0.130090    0.237993    1.030734
      8          1           0       -1.512502   -0.747214    2.617144
      9          1           0       -3.908837   -1.007344    1.931582
     10          1           0       -3.009083    0.696282   -1.903697
     11          1           0       -0.609813    0.961969   -1.230645
     12          7           0       -4.972656   -0.321502   -0.414893
     13          8           0       -5.285507    0.052170   -1.543224
     14          8           0       -5.742931   -0.813933    0.406584
     15          6           0        4.236035    0.931030   -0.205321
     16          6           0        3.038512    1.636889    0.431616
     17          6           0        3.017168    3.138836    0.146148
     18          1           0        5.163251    1.389320    0.165066
     19          1           0        4.216601    1.098591   -1.291112
     20          1           0        3.059432    1.466891    1.515719
     21          1           0        2.114044    1.176739    0.059816
     22          1           0        2.972170    3.325509   -0.931688
     23          1           0        3.922931    3.617309    0.532487
     24          1           0        2.152863    3.623556    0.610782
     25          6           0        4.271269   -0.570987    0.071142
     26          6           0        5.468791   -1.276846   -0.565796
     27          6           0        5.490135   -2.778793   -0.280328
     28          1           0        4.290703   -0.738547    1.156932
     29          1           0        3.344054   -1.029277   -0.299245
     30          1           0        6.393259   -0.816695   -0.193996
     31          1           0        5.447871   -1.106847   -1.649898
     32          1           0        4.584373   -3.257266   -0.666667
     33          1           0        5.535133   -2.965466    0.797508
     34          1           0        6.354440   -3.263513   -0.744962
 ---------------------------------------------------------------------

 SCF Done:  E(RHF) =  -669.535521789     A.U. after   15 cycles
 E2 =    -0.2091247569D+01 EUMP2 =    -0.67162676935834D+03

 The electronic state is 1-A.
 Alpha  occ. eigenvalues --  -20.60721 -20.60716 -15.85776 -11.31128 -11.27706
 Alpha  occ. eigenvalues --  -11.27699 -11.27384 -11.26707 -11.26694 -11.22900
 Alpha  occ. eigenvalues --  -11.22371 -11.22314 -11.22252 -11.22090 -11.21661
 Alpha  occ. eigenvalues --   -1.59798  -1.39351  -1.19300  -1.09387  -1.08691
 Alpha  occ. eigenvalues --   -1.04706  -1.04445  -0.96849  -0.95531  -0.87868
 Alpha  occ. eigenvalues --   -0.86102  -0.82370  -0.80555  -0.79192  -0.77419
 Alpha  occ. eigenvalues --   -0.71993  -0.71121  -0.70412  -0.66021  -0.64950
 Alpha  occ. eigenvalues --   -0.64713  -0.62071  -0.61824  -0.60246  -0.58473
 Alpha  occ. eigenvalues --   -0.56123  -0.55208  -0.53546  -0.53262  -0.53032
 Alpha  occ. eigenvalues --   -0.52796  -0.50793  -0.48839  -0.48749  -0.48742
 Alpha  occ. eigenvalues --   -0.47592  -0.46714  -0.46627  -0.44760  -0.44690
 Alpha  occ. eigenvalues --   -0.37271  -0.36315
 Alpha virt. eigenvalues --    0.05120   0.11338   0.16610   0.19359   0.22449
 Alpha virt. eigenvalues --    0.23690   0.25143   0.25772   0.27045   0.27411
 Alpha virt. eigenvalues --    0.29176   0.30098   0.30781   0.31302   0.31776

 Mulliken charges:
               1
     1  C   -0.176056
     2  C   -0.219186
     3  C   -0.170745
     4  C    0.158093
     5  C   -0.170885
     6  C   -0.221155
     7  H    0.233883
     8  H    0.223537
     9  H    0.275330
    10  H    0.275311
    11  H    0.222953
    12  N    0.488073
    13  O   -0.460675
    14  O   -0.460579
    15  C   -0.297804
    16  C   -0.305707
    17  C   -0.476344
    18  H    0.153958
    19  H    0.151620
    20  H    0.152775
    21  H    0.142860
    22  H    0.156901
    23  H    0.160234
    24  H    0.161685
    25  C   -0.299413
    26  C   -0.300194
    27  C   -0.476365
    28  H    0.149466
    29  H    0.146926
    30  H    0.153836
    31  H    0.153446
    32  H    0.155814
    33  H    0.155545
    34  H    0.162862
 Sum of Mulliken charges =  -0.00000

 Dipole moment (field-independent basis, Debye):
    X=              5.2705    Y=              0.5851    Z=              1.4093  Tot=              5.4870
 Quadrupole moment (field-independent basis, Debye-Ang):
   XX=           -129.3628   YY=            -95.6731   ZZ=            -90.2149
   XY=             -1.8884   XZ=             -5.8229   YZ=             -2.0183

 Normal termination of Gaussian 16 at Thu May  6 19:03:19 2021.
