 Gaussian 16, Revision A.03,
 Gaussian 16:  EM64L-G16RevA.03 25-Dec-2016

 -------------
 #p 6-31g* mp2
 -------------

 ------------------------------------------------------
 Input file generated by CHIRIPA (05-May-2021 14:51:12)
 ------------------------------------------------------
 Symbolic Z-matrix:
 Charge =  0 Multiplicity = 1

                         Standard orientation:
 ---------------------------------------------------------------------
 Center     Atomic      Atomic             Coordinates (Angstroms)
 Number     Number       Type             X           Y           Z
 ---------------------------------------------------------------------
      1          6           0       -3.474860    0.289166   -0.164348
      2          6           0       -4.957403   -0.022552   -0.371431
      3          6           0       -5.643862    0.967788   -1.312598
      4          1           0       -3.373138    1.307536    0.235051
      5          1           0       -2.966539    0.283251   -1.138499
      6          1           0       -5.462509   -0.017415    0.602970
      7          1           0       -5.055618   -1.040368   -0.770204
      8          1           0       -5.166250    0.957446   -2.297677
      9          1           0       -5.575453    1.986211   -0.916702
     10          1           0       -6.702919    0.726271   -1.446493
     11          6           0       -2.774803   -0.692131    0.774111
     12          6           0       -1.292260   -0.380413    0.981194
     13          6           0       -0.605801   -1.370753    1.922361
     14          1           0       -3.283124   -0.686216    1.748262
     15          1           0       -2.876525   -1.710501    0.374712
     16          1           0       -1.194045    0.637403    1.379967
     17          1           0       -0.787154   -0.385550    0.006793
     18          1           0       -0.674210   -2.389177    1.526464
     19          1           0       -1.083413   -1.360411    2.907440
     20          1           0        0.453256   -1.129237    2.056256
     21          6           0        3.066280   -0.524787   -0.075673
     22          6           0        3.230319   -1.534421   -1.212210
     23          6           0        3.110645   -2.983047   -0.737917
     24          1           0        3.823610   -0.723544    0.694970
     25          1           0        2.087937   -0.675803    0.401229
     26          1           0        4.207488   -1.380634   -1.687717
     27          1           0        2.472632   -1.333116   -1.980327
     28          1           0        2.131075   -3.159430   -0.281918
     29          1           0        3.875788   -3.207218    0.012353
     30          1           0        3.231075   -3.687989   -1.566416
     31          6           0        3.183383    0.927752   -0.534089
     32          6           0        3.019344    1.937386    0.602446
     33          6           0        3.139018    3.386012    0.128153
     34          1           0        4.161726    1.078767   -1.010992
     35          1           0        2.426053    1.126509   -1.304733
     36          1           0        3.777031    1.736081    1.370563
     37          1           0        2.042175    1.783599    1.077955
     38          1           0        2.373876    3.610183   -0.622116
     39          1           0        4.118588    3.562395   -0.327845
     40          1           0        3.018589    4.090954    0.956653
 ---------------------------------------------------------------------

 SCF Done:  E(RHF) =  -470.733259742     A.U. after   11 cycles
 E2 =    -0.1583306650D+01 EUMP2 =    -0.47231656639232D+03

 The electronic state is 1-A.
 Alpha  occ. eigenvalues --  -11.21699 -11.21640 -11.21588 -11.21586 -11.21466
 Alpha  occ. eigenvalues --  -11.21405 -11.21372 -11.21305 -11.21127 -11.21102
 Alpha  occ. eigenvalues --  -11.21057 -11.21051  -1.08498  -1.08406  -1.03595
 Alpha  occ. eigenvalues --   -1.03509  -0.96047  -0.95953  -0.87060  -0.86971
 Alpha  occ. eigenvalues --   -0.79660  -0.79569  -0.78315  -0.78223  -0.65168
 Alpha  occ. eigenvalues --   -0.65018  -0.61038  -0.60862  -0.59441  -0.59312
 Alpha  occ. eigenvalues --   -0.57731  -0.57510  -0.55325  -0.55236  -0.52779
 Alpha  occ. eigenvalues --   -0.52649  -0.52514  -0.52316  -0.49986  -0.49888
 Alpha  occ. eigenvalues --   -0.47998  -0.47868  -0.46691  -0.46599  -0.45860
 Alpha  occ. eigenvalues --   -0.45781  -0.45744  -0.45631  -0.43823  -0.43760
 Alpha virt. eigenvalues --    0.20152   0.23152   0.23816   0.24230   0.26232
 Alpha virt. eigenvalues --    0.26418   0.26876   0.27311   0.28141   0.29515
 Alpha virt. eigenvalues --    0.30539   0.31335   0.31744   0.31785   0.32102

 Mulliken charges:
               1
     1  C   -0.298377
     2  C   -0.299726
     3  C   -0.475755
     4  H    0.149768
     5  H    0.149407
     6  H    0.152071
     7  H    0.152058
     8  H    0.155203
     9  H    0.155256
    10  H    0.160422
    11  C   -0.298270
    12  C   -0.301750
    13  C   -0.481070
    14  H    0.150002
    15  H    0.149948
    16  H    0.152353
    17  H    0.152133
    18  H    0.155301
    19  H    0.156123
    20  H    0.164736
    21  C   -0.309041
    22  C   -0.298884
    23  C   -0.476588
    24  H    0.149099
    25  H    0.161092
    26  H    0.151902
    27  H    0.151202
    28  H    0.156031
    29  H    0.155218
    30  H    0.159995
    31  C   -0.297280
    32  C   -0.300931
    33  C   -0.475679
    34  H    0.149398
    35  H    0.149422
    36  H    0.151736
    37  H    0.152875
    38  H    0.155332
    39  H    0.155175
    40  H    0.160092
 Sum of Mulliken charges =  -0.00000

 Dipole moment (field-independent basis, Debye):
    X=             -0.0323    Y=             -0.0029    Z=              0.0188  Tot=              0.0375
 Quadrupole moment (field-independent basis, Debye-Ang):
   XX=            -84.1285   YY=            -86.0609   ZZ=            -84.5761
   XY=              0.1617   XZ=             -0.4050   YZ=              1.0814

 Normal termination of Gaussian 16 at Thu May  6 05:31:52 2021.
