 Gaussian 16, Revision A.03,
 Gaussian 16:  EM64L-G16RevA.03 25-Dec-2016

 -------------
 #p 6-31g* mp2
 -------------

 ------------------------------------------------------
 Input file generated by CHIRIPA (05-May-2021 14:53:15)
 ------------------------------------------------------
 Symbolic Z-matrix:
 Charge =  0 Multiplicity = 1

                         Standard orientation:
 ---------------------------------------------------------------------
 Center     Atomic      Atomic             Coordinates (Angstroms)
 Number     Number       Type             X           Y           Z
 ---------------------------------------------------------------------
      1          6           0       -3.571640   -0.374886    0.213998
      2          6           0       -4.061023   -1.463804   -0.741379
      3          6           0       -4.000494   -2.861784   -0.125115
      4          1           0       -2.539859   -0.598970    0.517577
      5          1           0       -4.179151   -0.399756    1.129261
      6          1           0       -3.453666   -1.435980   -1.655140
      7          1           0       -5.091692   -1.236999   -1.042870
      8          1           0       -4.621020   -2.913019    0.775398
      9          1           0       -2.973686   -3.113131    0.159649
     10          1           0       -4.354854   -3.624814   -0.825169
     11          6           0       -3.626115    1.028211   -0.387734
     12          6           0       -3.136732    2.117129    0.567644
     13          6           0       -3.197261    3.515109   -0.048620
     14          1           0       -3.018604    1.053081   -1.302996
     15          1           0       -4.657896    1.252295   -0.691313
     16          1           0       -2.106063    1.890324    0.869134
     17          1           0       -3.744089    2.089305    1.481405
     18          1           0       -4.224069    3.766456   -0.333384
     19          1           0       -2.576736    3.566344   -0.949133
     20          1           0       -2.842902    4.278139    0.651433
     21          6           0        0.562717   -1.154351    0.774887
     22          6           0        1.508747   -0.796529    1.741072
     23          6           0        2.758025   -0.297253    1.360838
     24          6           0        3.029039   -0.168279   -0.000487
     25          6           0        2.107448   -0.516126   -0.986875
     26          6           0        0.864555   -1.013256   -0.583607
     27          1           0       -0.405273   -1.541367    1.079208
     28          1           0        1.277084   -0.905033    2.796819
     29          1           0        3.508907   -0.012600    2.087865
     30          1           0        2.367339   -0.396658   -2.031673
     31          1           0        0.131793   -1.290344   -1.336156
     32          7           0        4.348214    0.359147   -0.415215
     33          8           0        4.562530    0.463226   -1.620982
     34          8           0        5.142888    0.658476    0.473340
 ---------------------------------------------------------------------

 SCF Done:  E(RHF) =  -669.535479199     A.U. after   15 cycles
 E2 =    -0.2091879176D+01 EUMP2 =    -0.67162735837491D+03

 The electronic state is 1-A.
 Alpha  occ. eigenvalues --  -20.60789 -20.60784 -15.85843 -11.31225 -11.27791
 Alpha  occ. eigenvalues --  -11.27785 -11.27519 -11.26818 -11.26801 -11.22591
 Alpha  occ. eigenvalues --  -11.22412 -11.22212 -11.22131 -11.22100 -11.21520
 Alpha  occ. eigenvalues --   -1.59864  -1.39417  -1.19397  -1.09294  -1.08788
 Alpha  occ. eigenvalues --   -1.04800  -1.04320  -0.96774  -0.95623  -0.87784
 Alpha  occ. eigenvalues --   -0.86196  -0.82456  -0.80397  -0.79099  -0.77496
 Alpha  occ. eigenvalues --   -0.72060  -0.71187  -0.70530  -0.65948  -0.65045
 Alpha  occ. eigenvalues --   -0.64786  -0.62147  -0.61713  -0.60150  -0.58378
 Alpha  occ. eigenvalues --   -0.56099  -0.55308  -0.53434  -0.53200  -0.53113
 Alpha  occ. eigenvalues --   -0.52890  -0.50721  -0.48824  -0.48815  -0.48699
 Alpha  occ. eigenvalues --   -0.47444  -0.46620  -0.46536  -0.44819  -0.44587
 Alpha  occ. eigenvalues --   -0.37364  -0.36403
 Alpha virt. eigenvalues --    0.05003   0.11219   0.16390   0.18517   0.22765
 Alpha virt. eigenvalues --    0.23724   0.24987   0.25607   0.27184   0.27866
 Alpha virt. eigenvalues --    0.29310   0.30167   0.30996   0.31405   0.31786

 Mulliken charges:
               1
     1  C   -0.302701
     2  C   -0.300611
     3  C   -0.475750
     4  H    0.141489
     5  H    0.152656
     6  H    0.149331
     7  H    0.157254
     8  H    0.158525
     9  H    0.146827
    10  H    0.164893
    11  C   -0.297666
    12  C   -0.301194
    13  C   -0.476146
    14  H    0.149141
    15  H    0.152775
    16  H    0.152677
    17  H    0.152198
    18  H    0.156051
    19  H    0.156822
    20  H    0.162591
    21  C   -0.174482
    22  C   -0.219307
    23  C   -0.170827
    24  C    0.158693
    25  C   -0.170987
    26  C   -0.220142
    27  H    0.230996
    28  H    0.224175
    29  H    0.275765
    30  H    0.275724
    31  H    0.223749
    32  N    0.488042
    33  O   -0.460332
    34  O   -0.460230
 Sum of Mulliken charges =  -0.00000

 Dipole moment (field-independent basis, Debye):
    X=             -4.7989    Y=             -1.7806    Z=              1.4498  Tot=              5.3200
 Quadrupole moment (field-independent basis, Debye-Ang):
   XX=           -121.4649   YY=            -95.7920   ZZ=            -90.1114
   XY=             -4.8844   XZ=              5.7046   YZ=              0.6320

 Normal termination of Gaussian 16 at Wed May  5 18:40:31 2021.
