 Gaussian 16, Revision A.03,
 Gaussian 16:  EM64L-G16RevA.03 25-Dec-2016

 -------------
 #p 6-31g* mp2
 -------------

 ------------------------------------------------------
 Input file generated by CHIRIPA (05-May-2021 14:53:18)
 ------------------------------------------------------
 Symbolic Z-matrix:
 Charge =  0 Multiplicity = 1

                         Standard orientation:
 ---------------------------------------------------------------------
 Center     Atomic      Atomic             Coordinates (Angstroms)
 Number     Number       Type             X           Y           Z
 ---------------------------------------------------------------------
      1          6           0        4.510734   -0.174797    0.302320
      2          6           0        5.655582    0.392394   -0.537680
      3          6           0        6.988357    0.405479    0.211543
      4          1           0        4.410338    0.418106    1.221739
      5          1           0        4.766351   -1.196512    0.615616
      6          1           0        5.397280    1.412231   -0.850455
      7          1           0        5.753139   -0.201811   -1.455296
      8          1           0        7.272428   -0.608802    0.510103
      9          1           0        6.914547    1.014411    1.118381
     10          1           0        7.792853    0.814797   -0.407412
     11          6           0        3.171833   -0.194444   -0.432995
     12          6           0        2.026985   -0.761636    0.407006
     13          6           0        0.694210   -0.774721   -0.342217
     14          1           0        2.916216    0.827270   -0.746291
     15          1           0        3.272229   -0.787348   -1.352414
     16          1           0        1.929428   -0.167431    1.324622
     17          1           0        2.285287   -1.781473    0.719781
     18          1           0        0.768020   -1.383652   -1.249055
     19          1           0        0.410139    0.239560   -0.640778
     20          1           0       -0.110286   -1.184038    0.276737
     21          6           0       -2.849419    2.662557    0.082692
     22          6           0       -2.626771    1.933097    1.255228
     23          6           0       -2.708139    0.537428    1.249398
     24          6           0       -3.015657   -0.099227    0.047985
     25          6           0       -3.242791    0.599595   -1.136645
     26          6           0       -3.156178    1.994655   -1.107403
     27          1           0       -2.784174    3.746510    0.096314
     28          1           0       -2.388365    2.449136    2.180922
     29          1           0       -2.540451   -0.051962    2.142660
     30          1           0       -3.478607    0.057123   -2.044132
     31          1           0       -3.329580    2.558577   -2.019526
     32          7           0       -3.104573   -1.576437    0.029421
     33          8           0       -3.377052   -2.113641   -1.041936
     34          8           0       -2.900105   -2.169098    1.086579
 ---------------------------------------------------------------------

 SCF Done:  E(RHF) =  -669.535591214     A.U. after   15 cycles
 E2 =    -0.2092426078D+01 EUMP2 =    -0.67162801729242D+03

 The electronic state is 1-A.
 Alpha  occ. eigenvalues --  -20.60828 -20.60822 -15.85847 -11.31163 -11.27747
 Alpha  occ. eigenvalues --  -11.27740 -11.27505 -11.26776 -11.26766 -11.21594
 Alpha  occ. eigenvalues --  -11.21454 -11.21352 -11.21284 -11.21072 -11.20819
 Alpha  occ. eigenvalues --   -1.59885  -1.39442  -1.19356  -1.08764  -1.08360
 Alpha  occ. eigenvalues --   -1.04759  -1.03440  -0.95892  -0.95602  -0.86916
 Alpha  occ. eigenvalues --   -0.86160  -0.82438  -0.79515  -0.78176  -0.77487
 Alpha  occ. eigenvalues --   -0.72080  -0.71211  -0.70475  -0.65017  -0.64993
 Alpha  occ. eigenvalues --   -0.64769  -0.62110  -0.60839  -0.59266  -0.57497
 Alpha  occ. eigenvalues --   -0.55273  -0.55200  -0.53207  -0.52856  -0.52460
 Alpha  occ. eigenvalues --   -0.52305  -0.49810  -0.48843  -0.48835  -0.47827
 Alpha  occ. eigenvalues --   -0.46537  -0.45717  -0.45643  -0.44851  -0.43691
 Alpha  occ. eigenvalues --   -0.37299  -0.36351
 Alpha virt. eigenvalues --    0.05039   0.11244   0.16538   0.21396   0.22925
 Alpha virt. eigenvalues --    0.24366   0.26707   0.27272   0.27568   0.27824
 Alpha virt. eigenvalues --    0.28401   0.30614   0.31465   0.31756   0.31927

 Mulliken charges:
               1
     1  C   -0.298080
     2  C   -0.299443
     3  C   -0.475614
     4  H    0.148164
     5  H    0.150845
     6  H    0.150477
     7  H    0.152509
     8  H    0.155913
     9  H    0.154449
    10  H    0.159923
    11  C   -0.298154
    12  C   -0.298781
    13  C   -0.482339
    14  H    0.146748
    15  H    0.150745
    16  H    0.148064
    17  H    0.155445
    18  H    0.158670
    19  H    0.152390
    20  H    0.164094
    21  C   -0.171188
    22  C   -0.218402
    23  C   -0.171533
    24  C    0.161202
    25  C   -0.170714
    26  C   -0.218925
    27  H    0.225460
    28  H    0.223289
    29  H    0.275223
    30  H    0.275673
    31  H    0.223431
    32  N    0.489770
    33  O   -0.458509
    34  O   -0.460804
 Sum of Mulliken charges =  -0.00000

 Dipole moment (field-independent basis, Debye):
    X=              0.2493    Y=              5.1512    Z=              0.0383  Tot=              5.1573
 Quadrupole moment (field-independent basis, Debye-Ang):
   XX=            -98.3658   YY=            -95.4675   ZZ=            -90.0794
   XY=            -16.3096   XZ=              0.6234   YZ=              0.4574

 Normal termination of Gaussian 16 at Thu May  6 09:10:20 2021.
