 Gaussian 16, Revision A.03,
 Gaussian 16:  EM64L-G16RevA.03 25-Dec-2016

 -------------
 #p 6-31g* mp2
 -------------

 ------------------------------------------------------
 Input file generated by CHIRIPA (05-May-2021 14:55:21)
 ------------------------------------------------------
 Symbolic Z-matrix:
 Charge =  0 Multiplicity = 1

                         Standard orientation:
 ---------------------------------------------------------------------
 Center     Atomic      Atomic             Coordinates (Angstroms)
 Number     Number       Type             X           Y           Z
 ---------------------------------------------------------------------
      1          6           0        1.375068    2.289536    0.731602
      2          6           0        0.774208    1.093146    0.326458
      3          6           0        1.552771    0.030755   -0.142277
      4          6           0        2.935570    0.199888   -0.192786
      5          6           0        3.563778    1.379483    0.203698
      6          6           0        2.765484    2.428641    0.669039
      7          1           0        0.762597    3.109687    1.094408
      8          1           0       -0.305375    0.982291    0.373952
      9          1           0        1.113686   -0.906389   -0.462253
     10          1           0        4.642404    1.460226    0.144832
     11          1           0        3.234853    3.356626    0.983016
     12          7           0        3.770244   -0.917813   -0.687219
     13          8           0        4.986429   -0.743679   -0.721989
     14          8           0        3.192473   -1.946837   -1.030623
     15          6           0       -3.114368   -0.642677    0.727661
     16          6           0       -2.175907   -1.821141    0.465935
     17          6           0       -1.247665   -2.110999    1.645825
     18          1           0       -2.516429    0.250800    0.953744
     19          1           0       -3.714007   -0.852570    1.624194
     20          1           0       -1.579194   -1.609688   -0.430635
     21          1           0       -2.776146   -2.711871    0.240260
     22          1           0       -1.828021   -2.347517    2.543515
     23          1           0       -0.624270   -1.239071    1.868807
     24          1           0       -0.585472   -2.957084    1.437258
     25          6           0       -4.048527   -0.340615   -0.442738
     26          6           0       -4.986987    0.837848   -0.181013
     27          6           0       -5.915230    1.127707   -1.360903
     28          1           0       -3.448887   -0.130723   -1.339272
     29          1           0       -4.646465   -1.234092   -0.668821
     30          1           0       -4.386750    1.728578    0.044662
     31          1           0       -5.583700    0.626396    0.715558
     32          1           0       -6.538625    0.255778   -1.583885
     33          1           0       -5.334873    1.364224   -2.258593
     34          1           0       -6.577423    1.973791   -1.152335
 ---------------------------------------------------------------------

 SCF Done:  E(RHF) =  -669.534985575     A.U. after   15 cycles
 E2 =    -0.2093014567D+01 EUMP2 =    -0.67162800014202D+03

 The electronic state is 1-A.
 Alpha  occ. eigenvalues --  -20.60752 -20.60747 -15.85806 -11.31170 -11.27756
 Alpha  occ. eigenvalues --  -11.27733 -11.27497 -11.26766 -11.26729 -11.22414
 Alpha  occ. eigenvalues --  -11.22307 -11.22259 -11.22091 -11.21648 -11.21589
 Alpha  occ. eigenvalues --   -1.59827  -1.39380  -1.19354  -1.09216  -1.08746
 Alpha  occ. eigenvalues --   -1.04773  -1.04213  -0.96655  -0.95579  -0.87662
 Alpha  occ. eigenvalues --   -0.86157  -0.82419  -0.80282  -0.79026  -0.77467
 Alpha  occ. eigenvalues --   -0.72025  -0.71150  -0.70468  -0.65979  -0.65003
 Alpha  occ. eigenvalues --   -0.64726  -0.62326  -0.61364  -0.60009  -0.58258
 Alpha  occ. eigenvalues --   -0.55975  -0.55253  -0.53308  -0.53144  -0.53002
 Alpha  occ. eigenvalues --   -0.52852  -0.50598  -0.48788  -0.48779  -0.48572
 Alpha  occ. eigenvalues --   -0.47345  -0.46538  -0.46488  -0.44786  -0.44487
 Alpha  occ. eigenvalues --   -0.37336  -0.36331
 Alpha virt. eigenvalues --    0.05051   0.11264   0.16413   0.18582   0.22829
 Alpha virt. eigenvalues --    0.23645   0.25091   0.25704   0.27258   0.28568
 Alpha virt. eigenvalues --    0.29272   0.30370   0.31196   0.31350   0.31979

 Mulliken charges:
               1
     1  C   -0.173297
     2  C   -0.227171
     3  C   -0.175346
     4  C    0.158928
     5  C   -0.170578
     6  C   -0.218754
     7  H    0.225949
     8  H    0.234732
     9  H    0.280532
    10  H    0.275634
    11  H    0.223446
    12  N    0.488165
    13  O   -0.460588
    14  O   -0.460394
    15  C   -0.302003
    16  C   -0.305278
    17  C   -0.482830
    18  H    0.140041
    19  H    0.155122
    20  H    0.147597
    21  H    0.159444
    22  H    0.158692
    23  H    0.153564
    24  H    0.168847
    25  C   -0.299107
    26  C   -0.299354
    27  C   -0.476188
    28  H    0.149381
    29  H    0.154059
    30  H    0.148069
    31  H    0.153783
    32  H    0.157323
    33  H    0.155959
    34  H    0.161622
 Sum of Mulliken charges =  -0.00000

 Dipole moment (field-independent basis, Debye):
    X=             -3.0975    Y=              3.8191    Z=              1.7508  Tot=              5.2197
 Quadrupole moment (field-independent basis, Debye-Ang):
   XX=           -108.0207   YY=            -91.4206   ZZ=            -96.5438
   XY=             14.6903   XZ=              5.6034   YZ=             -0.0630

 Normal termination of Gaussian 16 at Thu May  6 06:11:54 2021.
