 Gaussian 16, Revision A.03,
 Gaussian 16:  EM64L-G16RevA.03 25-Dec-2016

 -------------
 #p 6-31g* mp2
 -------------

 ------------------------------------------------------
 Input file generated by CHIRIPA (05-May-2021 14:53:16)
 ------------------------------------------------------
 Symbolic Z-matrix:
 Charge =  0 Multiplicity = 1

                         Standard orientation:
 ---------------------------------------------------------------------
 Center     Atomic      Atomic             Coordinates (Angstroms)
 Number     Number       Type             X           Y           Z
 ---------------------------------------------------------------------
      1          6           0        3.767666    0.427428   -0.036481
      2          6           0        5.215793    0.703214   -0.442504
      3          6           0        5.473382    2.179163   -0.747492
      4          1           0        3.098202    0.759148   -0.841915
      5          1           0        3.519707    1.033793    0.845694
      6          1           0        5.461377    0.095472   -1.322819
      7          1           0        5.881899    0.370624    0.363910
      8          1           0        5.255622    2.797442    0.129384
      9          1           0        4.832711    2.520727   -1.566928
     10          1           0        6.514710    2.353785   -1.035593
     11          6           0        3.494546   -1.043702    0.271593
     12          6           0        2.046419   -1.319488    0.677617
     13          6           0        1.788830   -2.795437    0.982604
     14          1           0        3.742505   -1.650067   -0.610582
     15          1           0        4.164010   -1.375422    1.077028
     16          1           0        1.380313   -0.986897   -0.128797
     17          1           0        1.800835   -0.711746    1.557931
     18          1           0        2.429501   -3.137001    1.802040
     19          1           0        2.006590   -3.413716    0.105728
     20          1           0        0.747502   -2.970058    1.270705
     21          6           0       -3.004601    2.667838    0.576682
     22          6           0       -4.157587    1.956075    0.229497
     23          6           0       -4.076499    0.610871   -0.142523
     24          6           0       -2.820579    0.006088   -0.156471
     25          6           0       -1.653645    0.688411    0.184102
     26          6           0       -1.758507    2.032854    0.552918
     27          1           0       -3.076827    3.712530    0.864431
     28          1           0       -5.126653    2.446635    0.247052
     29          1           0       -4.953055    0.036178   -0.416011
     30          1           0       -0.701671    0.172238    0.157120
     31          1           0       -0.861401    2.583138    0.822052
     32          7           0       -2.722150   -1.417616   -0.548616
     33          8           0       -1.603832   -1.927501   -0.552899
     34          8           0       -3.765184   -1.996672   -0.844272
 ---------------------------------------------------------------------

 SCF Done:  E(RHF) =  -669.535901894     A.U. after   15 cycles
 E2 =    -0.2091974138D+01 EUMP2 =    -0.67162787603170D+03

 The electronic state is 1-A.
 Alpha  occ. eigenvalues --  -20.60834 -20.60823 -15.85870 -11.31174 -11.27754
 Alpha  occ. eigenvalues --  -11.27692 -11.27492 -11.26761 -11.26736 -11.21691
 Alpha  occ. eigenvalues --  -11.21506 -11.21437 -11.21271 -11.21222 -11.20390
 Alpha  occ. eigenvalues --   -1.59898  -1.39454  -1.19350  -1.08760  -1.08404
 Alpha  occ. eigenvalues --   -1.04744  -1.03407  -0.95828  -0.95594  -0.86838
 Alpha  occ. eigenvalues --   -0.86148  -0.82432  -0.79524  -0.78274  -0.77464
 Alpha  occ. eigenvalues --   -0.72095  -0.71215  -0.70463  -0.65059  -0.64990
 Alpha  occ. eigenvalues --   -0.64743  -0.62113  -0.60788  -0.59209  -0.57428
 Alpha  occ. eigenvalues --   -0.55259  -0.55109  -0.53081  -0.52851  -0.52467
 Alpha  occ. eigenvalues --   -0.52244  -0.49772  -0.48854  -0.48844  -0.47799
 Alpha  occ. eigenvalues --   -0.46551  -0.45759  -0.45686  -0.44865  -0.43655
 Alpha  occ. eigenvalues --   -0.37338  -0.36346
 Alpha virt. eigenvalues --    0.05019   0.11295   0.16514   0.20853   0.22966
 Alpha virt. eigenvalues --    0.24194   0.25852   0.26671   0.27675   0.28229
 Alpha virt. eigenvalues --    0.29339   0.30491   0.31539   0.31627   0.32353

 Mulliken charges:
               1
     1  C   -0.298446
     2  C   -0.299365
     3  C   -0.475733
     4  H    0.146784
     5  H    0.144861
     6  H    0.153857
     7  H    0.152739
     8  H    0.153241
     9  H    0.154394
    10  H    0.161146
    11  C   -0.296415
    12  C   -0.309662
    13  C   -0.474684
    14  H    0.152646
    15  H    0.149924
    16  H    0.158726
    17  H    0.143314
    18  H    0.149356
    19  H    0.158600
    20  H    0.174666
    21  C   -0.170193
    22  C   -0.219292
    23  C   -0.169784
    24  C    0.154699
    25  C   -0.177234
    26  C   -0.223458
    27  H    0.225588
    28  H    0.223330
    29  H    0.275440
    30  H    0.291526
    31  H    0.224625
    32  N    0.488739
    33  O   -0.464382
    34  O   -0.459553
 Sum of Mulliken charges =  -0.00000

 Dipole moment (field-independent basis, Debye):
    X=             -0.3935    Y=              4.8618    Z=              1.3297  Tot=              5.0557
 Quadrupole moment (field-independent basis, Debye-Ang):
   XX=            -88.0417   YY=            -96.0052   ZZ=            -95.1951
   XY=            -14.6665   XZ=             -3.0107   YZ=             -0.2402

 Normal termination of Gaussian 16 at Wed May  5 23:34:22 2021.
