 Gaussian 16, Revision A.03,
 Gaussian 16:  EM64L-G16RevA.03 25-Dec-2016

 -------------
 #p 6-31g* mp2
 -------------

 ------------------------------------------------------
 Input file generated by CHIRIPA (05-May-2021 14:53:14)
 ------------------------------------------------------
 Symbolic Z-matrix:
 Charge =  0 Multiplicity = 1

                         Standard orientation:
 ---------------------------------------------------------------------
 Center     Atomic      Atomic             Coordinates (Angstroms)
 Number     Number       Type             X           Y           Z
 ---------------------------------------------------------------------
      1          6           0        3.721514   -0.251903   -0.086046
      2          6           0        5.021797   -0.844294    0.458307
      3          6           0        5.096741   -2.361939    0.288218
      4          1           0        2.869879   -0.722016    0.424498
      5          1           0        3.627685   -0.507567   -1.150578
      6          1           0        5.113823   -0.586414    1.521155
      7          1           0        5.870442   -0.372578   -0.053456
      8          1           0        5.030262   -2.634741   -0.769969
      9          1           0        4.269344   -2.849792    0.813589
     10          1           0        6.034353   -2.764470    0.684088
     11          6           0        3.631772    1.264399    0.076749
     12          6           0        2.331488    1.856790   -0.467605
     13          6           0        2.256545    3.374436   -0.297516
     14          1           0        3.725601    1.520063    1.141280
     15          1           0        4.483407    1.734513   -0.433795
     16          1           0        1.482844    1.385074    0.044159
     17          1           0        2.239463    1.598910   -1.530452
     18          1           0        3.083942    3.862289   -0.822886
     19          1           0        2.323024    3.647237    0.760672
     20          1           0        1.318933    3.776966   -0.693385
     21          6           0       -4.943751    1.005638    0.338494
     22          6           0       -5.059872   -0.361304    0.065534
     23          6           0       -3.919001   -1.147350   -0.121793
     24          6           0       -2.672124   -0.530964   -0.028741
     25          6           0       -2.523708    0.828455    0.241889
     26          6           0       -3.678270    1.595116    0.425647
     27          1           0       -5.835324    1.608728    0.482628
     28          1           0       -6.041370   -0.821789   -0.002726
     29          1           0       -3.980025   -2.207795   -0.334281
     30          1           0       -1.531702    1.259155    0.303873
     31          1           0       -3.585061    2.656469    0.637509
     32          7           0       -1.457087   -1.352854   -0.225167
     33          8           0       -0.370070   -0.785894   -0.138071
     34          8           0       -1.614767   -2.548449   -0.462501
 ---------------------------------------------------------------------

 SCF Done:  E(RHF) =  -669.536024753     A.U. after   15 cycles
 E2 =    -0.2091523566D+01 EUMP2 =    -0.67162754831840D+03

 The electronic state is 1-A.
 Alpha  occ. eigenvalues --  -20.60931 -20.60926 -15.85970 -11.31287 -11.27851
 Alpha  occ. eigenvalues --  -11.27847 -11.27587 -11.26858 -11.26848 -11.20730
 Alpha  occ. eigenvalues --  -11.20682 -11.20650 -11.20525 -11.20181 -11.20160
 Alpha  occ. eigenvalues --   -1.59995  -1.39552  -1.19456  -1.08860  -1.07497
 Alpha  occ. eigenvalues --   -1.04852  -1.02719  -0.95703  -0.95186  -0.86253
 Alpha  occ. eigenvalues --   -0.86200  -0.82541  -0.78764  -0.77616  -0.77219
 Alpha  occ. eigenvalues --   -0.72191  -0.71310  -0.70565  -0.65115  -0.64856
 Alpha  occ. eigenvalues --   -0.64126  -0.62202  -0.60122  -0.58571  -0.56785
 Alpha  occ. eigenvalues --   -0.55356  -0.54480  -0.53184  -0.52943  -0.51927
 Alpha  occ. eigenvalues --   -0.51600  -0.49170  -0.48947  -0.48907  -0.47063
 Alpha  occ. eigenvalues --   -0.45766  -0.44977  -0.44801  -0.44675  -0.42936
 Alpha  occ. eigenvalues --   -0.37435  -0.36453
 Alpha virt. eigenvalues --    0.04940   0.11201   0.16439   0.20792   0.23444
 Alpha virt. eigenvalues --    0.24540   0.26467   0.27488   0.27835   0.28707
 Alpha virt. eigenvalues --    0.29197   0.30643   0.31640   0.32195   0.32436

 Mulliken charges:
               1
     1  C   -0.301492
     2  C   -0.299341
     3  C   -0.475114
     4  H    0.167242
     5  H    0.149946
     6  H    0.148541
     7  H    0.147731
     8  H    0.155263
     9  H    0.158969
    10  H    0.155847
    11  C   -0.297745
    12  C   -0.307041
    13  C   -0.475524
    14  H    0.145370
    15  H    0.145212
    16  H    0.168604
    17  H    0.152589
    18  H    0.154433
    19  H    0.151874
    20  H    0.151899
    21  C   -0.170408
    22  C   -0.218710
    23  C   -0.170607
    24  C    0.157118
    25  C   -0.171315
    26  C   -0.219556
    27  H    0.226000
    28  H    0.223780
    29  H    0.275787
    30  H    0.278589
    31  H    0.224226
    32  N    0.494341
    33  O   -0.467245
    34  O   -0.459262
 Sum of Mulliken charges =  -0.00000

 Dipole moment (field-independent basis, Debye):
    X=             -4.5288    Y=              2.6938    Z=              0.6825  Tot=              5.3134
 Quadrupole moment (field-independent basis, Debye-Ang):
   XX=            -71.4719   YY=            -96.6626   ZZ=            -94.8157
   XY=             -3.0323   XZ=             -1.7866   YZ=              0.1688

 Normal termination of Gaussian 16 at Thu May  6 17:08:51 2021.
