 Gaussian 16, Revision A.03,
 Gaussian 16:  EM64L-G16RevA.03 25-Dec-2016

 -------------
 #p 6-31g* mp2
 -------------

 ------------------------------------------------------
 Input file generated by CHIRIPA (05-May-2021 14:51:12)
 ------------------------------------------------------
 Symbolic Z-matrix:
 Charge =  0 Multiplicity = 1

                         Standard orientation:
 ---------------------------------------------------------------------
 Center     Atomic      Atomic             Coordinates (Angstroms)
 Number     Number       Type             X           Y           Z
 ---------------------------------------------------------------------
      1          6           0       -4.031884   -0.702226    0.005354
      2          6           0       -5.480295   -0.412366   -0.389705
      3          6           0       -6.183998   -1.629479   -0.990730
      4          1           0       -3.479282   -1.047316   -0.879231
      5          1           0       -4.014788   -1.530403    0.727313
      6          1           0       -5.494755    0.415934   -1.109654
      7          1           0       -6.029465   -0.067743    0.495881
      8          1           0       -6.199155   -2.457988   -0.275227
      9          1           0       -5.661407   -1.971563   -1.889885
     10          1           0       -7.218124   -1.399979   -1.265999
     11          6           0       -3.315076    0.504864    0.607723
     12          6           0       -1.866665    0.215004    1.002782
     13          6           0       -1.162962    1.432117    1.603807
     14          1           0       -3.332172    1.333041   -0.114236
     15          1           0       -3.867678    0.849954    1.492307
     16          1           0       -1.317495   -0.129619    0.117196
     17          1           0       -1.852205   -0.613296    1.722730
     18          1           0       -1.685553    1.774201    2.502961
     19          1           0       -1.147805    2.260626    0.888304
     20          1           0       -0.128836    1.202618    1.879075
     21          6           0        3.008935    0.450124   -0.171260
     22          6           0        2.748380    1.634028   -1.103177
     23          6           0        1.415071    2.326844   -0.820179
     24          1           0        2.189143   -0.274369   -0.271236
     25          1           0        2.990721    0.801041    0.869855
     26          1           0        2.768454    1.281233   -2.142287
     27          1           0        3.568985    2.355696   -1.001112
     28          1           0        1.388255    2.706044    0.206509
     29          1           0        0.583176    1.625476   -0.941149
     30          1           0        1.249078    3.170166   -1.497759
     31          6           0        4.338025   -0.252762   -0.441816
     32          6           0        4.598580   -1.436666    0.490100
     33          6           0        5.931889   -2.129482    0.207102
     34          1           0        4.356239   -0.603679   -1.482931
     35          1           0        5.157816    0.471731   -0.341841
     36          1           0        3.777975   -2.158335    0.388035
     37          1           0        4.578506   -1.083872    1.529210
     38          1           0        6.763784   -1.428115    0.328072
     39          1           0        5.958705   -2.508683   -0.819586
     40          1           0        6.097881   -2.972805    0.884682
 ---------------------------------------------------------------------

 SCF Done:  E(RHF) =  -470.732387506     A.U. after   11 cycles
 E2 =    -0.1583367282D+01 EUMP2 =    -0.47231575478871D+03

 The electronic state is 1-A.
 Alpha  occ. eigenvalues --  -11.21603 -11.21592 -11.21577 -11.21572 -11.21410
 Alpha  occ. eigenvalues --  -11.21388 -11.21351 -11.21327 -11.21072 -11.21066
 Alpha  occ. eigenvalues --  -11.20978 -11.20909  -1.08438  -1.08397  -1.03567
 Alpha  occ. eigenvalues --   -1.03447  -0.96052  -0.95857  -0.87095  -0.86851
 Alpha  occ. eigenvalues --   -0.79665  -0.79483  -0.78243  -0.78222  -0.65093
 Alpha  occ. eigenvalues --   -0.65013  -0.61014  -0.60837  -0.59452  -0.59210
 Alpha  occ. eigenvalues --   -0.57631  -0.57501  -0.55314  -0.55192  -0.52724
 Alpha  occ. eigenvalues --   -0.52672  -0.52364  -0.52260  -0.49914  -0.49863
 Alpha  occ. eigenvalues --   -0.47904  -0.47807  -0.46685  -0.46517  -0.45825
 Alpha  occ. eigenvalues --   -0.45750  -0.45682  -0.45638  -0.43781  -0.43725
 Alpha virt. eigenvalues --    0.21073   0.23030   0.23543   0.24975   0.25739
 Alpha virt. eigenvalues --    0.26546   0.26941   0.27601   0.27928   0.29469
 Alpha virt. eigenvalues --    0.29763   0.30722   0.31363   0.31918   0.32368

 Mulliken charges:
               1
     1  C   -0.298233
     2  C   -0.299636
     3  C   -0.475686
     4  H    0.149257
     5  H    0.149492
     6  H    0.151950
     7  H    0.151981
     8  H    0.155157
     9  H    0.155078
    10  H    0.160240
    11  C   -0.298329
    12  C   -0.302172
    13  C   -0.477500
    14  H    0.149643
    15  H    0.149839
    16  H    0.151585
    17  H    0.151937
    18  H    0.153533
    19  H    0.159473
    20  H    0.161799
    21  C   -0.299096
    22  C   -0.300260
    23  C   -0.478887
    24  H    0.149969
    25  H    0.149329
    26  H    0.151374
    27  H    0.151713
    28  H    0.158439
    29  H    0.158924
    30  H    0.158842
    31  C   -0.298228
    32  C   -0.299683
    33  C   -0.475707
    34  H    0.149572
    35  H    0.149745
    36  H    0.152037
    37  H    0.151870
    38  H    0.155186
    39  H    0.155180
    40  H    0.160270
 Sum of Mulliken charges =  -0.00000

 Dipole moment (field-independent basis, Debye):
    X=              0.0069    Y=              0.0205    Z=              0.0061  Tot=              0.0225
 Quadrupole moment (field-independent basis, Debye-Ang):
   XX=            -85.8443   YY=            -85.2851   ZZ=            -83.7500
   XY=              0.4186   XZ=             -0.1425   YZ=             -0.2212

 Normal termination of Gaussian 16 at Thu May  6 02:20:30 2021.
