 Gaussian 16, Revision A.03,
 Gaussian 16:  EM64L-G16RevA.03 25-Dec-2016

 -------------
 #p 6-31g* mp2
 -------------

 ------------------------------------------------------
 Input file generated by CHIRIPA (05-May-2021 14:57:21)
 ------------------------------------------------------
 Symbolic Z-matrix:
 Charge =  0 Multiplicity = 1

                         Standard orientation:
 ---------------------------------------------------------------------
 Center     Atomic      Atomic             Coordinates (Angstroms)
 Number     Number       Type             X           Y           Z
 ---------------------------------------------------------------------
      1          6           0        0.910288   -1.370346   -0.244495
      2          6           0        2.098194   -2.107212   -0.195214
      3          6           0        3.331503   -1.459033   -0.079620
      4          6           0        3.340080   -0.066514   -0.015537
      5          6           0        2.173715    0.695529   -0.062168
      6          6           0        0.951766    0.026210   -0.177932
      7          1           0       -0.043364   -1.882078   -0.334358
      8          1           0        2.069011   -3.191897   -0.246700
      9          1           0        4.266296   -2.004884   -0.039289
     10          1           0        2.234724    1.775730   -0.008665
     11          1           0        0.030811    0.601048   -0.215977
     12          7           0        4.639715    0.630874    0.106928
     13          8           0        4.620325    1.858587    0.161547
     14          8           0        5.653151   -0.063431    0.145978
     15          6           0       -3.323570   -2.327722    0.211482
     16          6           0       -3.276303   -1.715604   -1.045339
     17          6           0       -3.166844   -0.326140   -1.154697
     18          6           0       -3.106773    0.424029    0.018728
     19          6           0       -3.151535   -0.156427    1.285361
     20          6           0       -3.261145   -1.547555    1.370776
     21          1           0       -3.408660   -3.407736    0.287134
     22          1           0       -3.324587   -2.318983   -1.947363
     23          1           0       -3.128195    0.173693   -2.114952
     24          1           0       -3.101333    0.471491    2.166619
     25          1           0       -3.297637   -2.020213    2.348174
     26          7           0       -2.990813    1.895874   -0.084371
     27          8           0       -2.939638    2.534452    0.964550
     28          8           0       -2.953294    2.383055   -1.212149
 ---------------------------------------------------------------------

 SCF Done:  E(RHF) =  -868.337803353     A.U. after   16 cycles
 E2 =    -0.2601614574D+01 EUMP2 =    -0.87093941792704D+03

 The electronic state is 1-A.
 Alpha  occ. eigenvalues --  -20.61860 -20.61854 -20.60622 -20.60607 -15.86917
 Alpha  occ. eigenvalues --  -15.85671 -11.32429 -11.31051 -11.29005 -11.28956
 Alpha  occ. eigenvalues --  -11.28753 -11.28039 -11.27975 -11.27668 -11.27578
 Alpha  occ. eigenvalues --  -11.27355 -11.26701 -11.26592  -1.60950  -1.59693
 Alpha  occ. eigenvalues --   -1.40488  -1.39245  -1.20632  -1.19234  -1.09994
 Alpha  occ. eigenvalues --   -1.08629  -1.06004  -1.04638  -0.96785  -0.95456
 Alpha  occ. eigenvalues --   -0.87387  -0.86042  -0.83579  -0.82286  -0.78612
 Alpha  occ. eigenvalues --   -0.77333  -0.73105  -0.72325  -0.71887  -0.71663
 Alpha  occ. eigenvalues --   -0.71018  -0.70343  -0.66236  -0.65953  -0.64884
 Alpha  occ. eigenvalues --   -0.64663  -0.63305  -0.61990  -0.56475  -0.55268
 Alpha  occ. eigenvalues --   -0.54256  -0.54049  -0.52977  -0.52713  -0.49887
 Alpha  occ. eigenvalues --   -0.49863  -0.48654  -0.48640  -0.45843  -0.44647
 Alpha  occ. eigenvalues --   -0.38628  -0.37686  -0.37169  -0.36241
 Alpha virt. eigenvalues --    0.03858   0.05204   0.09974   0.11424   0.15320
 Alpha virt. eigenvalues --    0.16687   0.20338   0.21289   0.26310   0.26745
 Alpha virt. eigenvalues --    0.27250   0.28227   0.29871   0.30730   0.31552

 Mulliken charges:
               1
     1  C   -0.176086
     2  C   -0.220001
     3  C   -0.171079
     4  C    0.158124
     5  C   -0.171113
     6  C   -0.220304
     7  H    0.225612
     8  H    0.219673
     9  H    0.274565
    10  H    0.280001
    11  H    0.224713
    12  N    0.487962
    13  O   -0.458551
    14  O   -0.461828
    15  C   -0.176541
    16  C   -0.223146
    17  C   -0.174427
    18  C    0.150055
    19  C   -0.171345
    20  C   -0.218093
    21  H    0.229633
    22  H    0.228160
    23  H    0.280169
    24  H    0.280507
    25  H    0.228869
    26  N    0.487495
    27  O   -0.455892
    28  O   -0.457133
 Sum of Mulliken charges =  -0.00000

 Dipole moment (field-independent basis, Debye):
    X=             -5.3120    Y=             -7.5235    Z=             -0.0022  Tot=              9.2098
 Quadrupole moment (field-independent basis, Debye-Ang):
   XX=           -132.2941   YY=           -105.5595   ZZ=           -100.3569
   XY=              6.1292   XZ=             -2.6490   YZ=              0.5002

 Normal termination of Gaussian 16 at Thu May  6 09:37:30 2021.
