 Gaussian 16, Revision A.03,
 Gaussian 16:  EM64L-G16RevA.03 25-Dec-2016

 -------------
 #p 6-31g* mp2
 -------------

 ------------------------------------------------------
 Input file generated by CHIRIPA (05-May-2021 14:53:15)
 ------------------------------------------------------
 Symbolic Z-matrix:
 Charge =  0 Multiplicity = 1

                         Standard orientation:
 ---------------------------------------------------------------------
 Center     Atomic      Atomic             Coordinates (Angstroms)
 Number     Number       Type             X           Y           Z
 ---------------------------------------------------------------------
      1          6           0        3.379083    0.785721    0.110011
      2          6           0        3.362042    1.708958   -1.108729
      3          6           0        2.615635    3.017756   -0.848499
      4          1           0        2.345347    0.566461    0.410443
      5          1           0        3.844786    1.312899    0.954168
      6          1           0        2.897761    1.179707   -1.950722
      7          1           0        4.395938    1.925891   -1.406411
      8          1           0        3.081418    3.569861   -0.025805
      9          1           0        1.574729    2.819438   -0.573209
     10          1           0        2.615724    3.662638   -1.732799
     11          6           0        4.121621   -0.526741   -0.134546
     12          6           0        4.138663   -1.449979    1.084194
     13          6           0        4.885070   -2.758777    0.823965
     14          1           0        3.655919   -1.053919   -0.978702
     15          1           0        5.155358   -0.307482   -0.434978
     16          1           0        3.104767   -1.666911    1.381876
     17          1           0        4.602944   -0.920727    1.926187
     18          1           0        5.925976   -2.560458    0.548674
     19          1           0        4.419286   -3.310882    0.001270
     20          1           0        4.884981   -3.403659    1.708265
     21          6           0       -2.565783    2.205763    0.964249
     22          6           0       -1.598609    1.631599    0.132725
     23          6           0       -1.789811    0.354018   -0.401855
     24          6           0       -2.965170   -0.324189   -0.082710
     25          6           0       -3.947404    0.220978    0.742700
     26          6           0       -3.735032    1.499864    1.266051
     27          1           0       -2.409030    3.198726    1.375162
     28          1           0       -0.689592    2.177488   -0.103364
     29          1           0       -1.057481   -0.114204   -1.048292
     30          1           0       -4.843414   -0.347651    0.960061
     31          1           0       -4.487874    1.943280    1.911540
     32          7           0       -3.178793   -1.677398   -0.642702
     33          8           0       -4.222849   -2.254249   -0.346350
     34          8           0       -2.298128   -2.135568   -1.367372
 ---------------------------------------------------------------------

 SCF Done:  E(RHF) =  -669.535542764     A.U. after   15 cycles
 E2 =    -0.2091113729D+01 EUMP2 =    -0.67162665649285D+03

 The electronic state is 1-A.
 Alpha  occ. eigenvalues --  -20.60776 -20.60771 -15.85830 -11.31192 -11.27764
 Alpha  occ. eigenvalues --  -11.27760 -11.27498 -11.26775 -11.26758 -11.22236
 Alpha  occ. eigenvalues --  -11.22001 -11.21903 -11.21770 -11.21657 -11.21122
 Alpha  occ. eigenvalues --   -1.59852  -1.39405  -1.19365  -1.08856  -1.08758
 Alpha  occ. eigenvalues --   -1.04770  -1.03963  -0.96429  -0.95594  -0.87448
 Alpha  occ. eigenvalues --   -0.86167  -0.82430  -0.80040  -0.78625  -0.77478
 Alpha  occ. eigenvalues --   -0.72048  -0.71175  -0.70471  -0.65510  -0.65016
 Alpha  occ. eigenvalues --   -0.64783  -0.62161  -0.61331  -0.59810  -0.58015
 Alpha  occ. eigenvalues --   -0.55757  -0.55256  -0.53123  -0.53095  -0.52999
 Alpha  occ. eigenvalues --   -0.52716  -0.50369  -0.48808  -0.48803  -0.48341
 Alpha  occ. eigenvalues --   -0.47068  -0.46176  -0.46069  -0.44812  -0.44200
 Alpha  occ. eigenvalues --   -0.37342  -0.36371
 Alpha virt. eigenvalues --    0.05054   0.11279   0.16519   0.19089   0.22822
 Alpha virt. eigenvalues --    0.23760   0.25341   0.26473   0.27237   0.28474
 Alpha virt. eigenvalues --    0.28834   0.30015   0.31219   0.31712   0.32234

 Mulliken charges:
               1
     1  C   -0.298386
     2  C   -0.300579
     3  C   -0.479874
     4  H    0.145301
     5  H    0.150495
     6  H    0.153184
     7  H    0.155965
     8  H    0.158632
     9  H    0.145005
    10  H    0.164199
    11  C   -0.299118
    12  C   -0.300212
    13  C   -0.476291
    14  H    0.152246
    15  H    0.150633
    16  H    0.153667
    17  H    0.151215
    18  H    0.154801
    19  H    0.158004
    20  H    0.161498
    21  C   -0.173162
    22  C   -0.227019
    23  C   -0.174616
    24  C    0.158846
    25  C   -0.171057
    26  C   -0.218461
    27  H    0.226672
    28  H    0.236896
    29  H    0.275381
    30  H    0.275616
    31  H    0.223480
    32  N    0.488160
    33  O   -0.460428
    34  O   -0.460691
 Sum of Mulliken charges =  -0.00000

 Dipole moment (field-independent basis, Debye):
    X=              0.9030    Y=              4.7298    Z=              1.9700  Tot=              5.2026
 Quadrupole moment (field-independent basis, Debye-Ang):
   XX=            -94.2532   YY=            -99.1567   ZZ=            -94.5135
   XY=            -13.3794   XZ=             -8.2658   YZ=             -1.0414

 Normal termination of Gaussian 16 at Thu May  6 13:51:01 2021.
