 Gaussian 16, Revision A.03,
 Gaussian 16:  EM64L-G16RevA.03 25-Dec-2016

 -------------
 #p 6-31g* mp2
 -------------

 ------------------------------------------------------
 Input file generated by CHIRIPA (05-May-2021 14:53:16)
 ------------------------------------------------------
 Symbolic Z-matrix:
 Charge =  0 Multiplicity = 1

                         Standard orientation:
 ---------------------------------------------------------------------
 Center     Atomic      Atomic             Coordinates (Angstroms)
 Number     Number       Type             X           Y           Z
 ---------------------------------------------------------------------
      1          6           0       -2.277925    0.746686   -0.120305
      2          6           0       -2.695253    1.725214    0.978014
      3          6           0       -1.973674    3.069469    0.877536
      4          1           0       -1.192351    0.586631   -0.066862
      5          1           0       -2.479199    1.199527   -1.101029
      6          1           0       -2.494533    1.270105    1.956382
      7          1           0       -3.779988    1.882809    0.922071
      8          1           0       -2.183108    3.548154   -0.084545
      9          1           0       -0.890349    2.931968    0.955643
     10          1           0       -2.286983    3.753685    1.672235
     11          6           0       -2.990690   -0.601687   -0.033220
     12          6           0       -2.573362   -1.580215   -1.131539
     13          6           0       -3.294941   -2.924470   -1.031061
     14          1           0       -2.789415   -1.054528    0.947504
     15          1           0       -4.076264   -0.441633   -0.086663
     16          1           0       -1.488627   -1.737810   -1.075596
     17          1           0       -2.774082   -1.125106   -2.109907
     18          1           0       -4.378266   -2.786969   -1.109168
     19          1           0       -3.085507   -3.403155   -0.068980
     20          1           0       -2.981632   -3.608686   -1.825760
     21          6           0        2.064744   -2.042258    1.616634
     22          6           0        1.329371   -0.898405    1.944271
     23          6           0        1.318394    0.207672    1.089274
     24          6           0        2.057406    0.135322   -0.090522
     25          6           0        2.799966   -0.990010   -0.444812
     26          6           0        2.796405   -2.084336    0.425238
     27          1           0        2.067625   -2.896922    2.286663
     28          1           0        0.760225   -0.862913    2.868857
     29          1           0        0.757818    1.105837    1.318340
     30          1           0        3.357534   -0.995738   -1.373522
     31          1           0        3.368421   -2.971343    0.168214
     32          7           0        2.053481    1.300056   -1.003637
     33          8           0        2.712812    1.211281   -2.037097
     34          8           0        1.391147    2.279695   -0.668587
 ---------------------------------------------------------------------

 SCF Done:  E(RHF) =  -669.534546518     A.U. after   15 cycles
 E2 =    -0.2094821275D+01 EUMP2 =    -0.67162936779320D+03

 The electronic state is 1-A.
 Alpha  occ. eigenvalues --  -20.60922 -20.60905 -15.85948 -11.31316 -11.27883
 Alpha  occ. eigenvalues --  -11.27879 -11.27622 -11.26896 -11.26882 -11.21575
 Alpha  occ. eigenvalues --  -11.21478 -11.21349 -11.21144 -11.21124 -11.20590
 Alpha  occ. eigenvalues --   -1.59977  -1.39534  -1.19499  -1.08883  -1.08334
 Alpha  occ. eigenvalues --   -1.04902  -1.03414  -0.95835  -0.95722  -0.86845
 Alpha  occ. eigenvalues --   -0.86301  -0.82553  -0.79478  -0.78184  -0.77562
 Alpha  occ. eigenvalues --   -0.72177  -0.71293  -0.70618  -0.65173  -0.65137
 Alpha  occ. eigenvalues --   -0.64764  -0.62282  -0.60775  -0.59209  -0.57438
 Alpha  occ. eigenvalues --   -0.55391  -0.55161  -0.53239  -0.52987  -0.52531
 Alpha  occ. eigenvalues --   -0.52222  -0.49804  -0.48957  -0.48922  -0.47744
 Alpha  occ. eigenvalues --   -0.46514  -0.45738  -0.45623  -0.44776  -0.43660
 Alpha  occ. eigenvalues --   -0.37452  -0.36446
 Alpha virt. eigenvalues --    0.04913   0.11055   0.16395   0.20333   0.23099
 Alpha virt. eigenvalues --    0.23920   0.26410   0.27003   0.27714   0.27895
 Alpha virt. eigenvalues --    0.29080   0.30642   0.31476   0.31878   0.31968

 Mulliken charges:
               1
     1  C   -0.302590
     2  C   -0.302124
     3  C   -0.483366
     4  H    0.151448
     5  H    0.155302
     6  H    0.140970
     7  H    0.152515
     8  H    0.162143
     9  H    0.168960
    10  H    0.155996
    11  C   -0.296364
    12  C   -0.300226
    13  C   -0.475192
    14  H    0.142960
    15  H    0.149851
    16  H    0.151688
    17  H    0.154724
    18  H    0.155794
    19  H    0.151835
    20  H    0.159862
    21  C   -0.170344
    22  C   -0.222264
    23  C   -0.174480
    24  C    0.158406
    25  C   -0.170093
    26  C   -0.218725
    27  H    0.226339
    28  H    0.224782
    29  H    0.284410
    30  H    0.276164
    31  H    0.224101
    32  N    0.490796
    33  O   -0.459101
    34  O   -0.464178
 Sum of Mulliken charges =  -0.00000

 Dipole moment (field-independent basis, Debye):
    X=              0.1674    Y=             -4.0145    Z=              3.0703  Tot=              5.0568
 Quadrupole moment (field-independent basis, Debye-Ang):
   XX=            -93.2000   YY=            -95.9027   ZZ=            -93.5524
   XY=            -11.1972   XZ=              5.2841   YZ=              1.9584

 Normal termination of Gaussian 16 at Wed May  5 23:36:56 2021.
