 Gaussian 16, Revision A.03,
 Gaussian 16:  EM64L-G16RevA.03 25-Dec-2016

 -------------
 #p 6-31g* mp2
 -------------

 ------------------------------------------------------
 Input file generated by CHIRIPA (05-May-2021 14:51:09)
 ------------------------------------------------------
 Symbolic Z-matrix:
 Charge =  0 Multiplicity = 1

                         Standard orientation:
 ---------------------------------------------------------------------
 Center     Atomic      Atomic             Coordinates (Angstroms)
 Number     Number       Type             X           Y           Z
 ---------------------------------------------------------------------
      1          6           0        3.375874    0.847974    0.224080
      2          6           0        3.146733    2.132120   -0.573697
      3          6           0        3.324770    3.393294    0.272198
      4          1           0        2.679903    0.822591    1.073742
      5          1           0        4.388638    0.864974    0.650009
      6          1           0        2.135194    2.112077   -0.999142
      7          1           0        3.843200    2.154357   -1.421668
      8          1           0        4.337666    3.440461    0.685016
      9          1           0        2.619955    3.397940    1.109942
     10          1           0        3.156365    4.299557   -0.317874
     11          6           0        3.201487   -0.421344   -0.607874
     12          6           0        3.430629   -1.705490    0.189903
     13          6           0        3.252591   -2.966663   -0.655992
     14          1           0        2.188723   -0.438343   -1.033803
     15          1           0        3.897458   -0.395961   -1.457536
     16          1           0        2.734161   -1.727727    1.037874
     17          1           0        4.442167   -1.685447    0.615348
     18          1           0        3.957406   -2.971310   -1.493736
     19          1           0        2.239695   -3.013830   -1.068810
     20          1           0        3.420997   -3.872927   -0.065920
     21          6           0       -3.957423   -0.337870   -0.155524
     22          6           0       -4.930709    0.835315   -0.035803
     23          6           0       -6.264078    0.571044   -0.735862
     24          1           0       -3.779200   -0.551179   -1.218389
     25          1           0       -4.424009   -1.237196    0.269805
     26          1           0       -4.461891    1.732477   -0.459981
     27          1           0       -5.106487    1.045979    1.026901
     28          1           0       -6.756434   -0.308047   -0.307626
     29          1           0       -6.108177    0.382351   -1.802956
     30          1           0       -6.944691    1.422519   -0.637794
     31          6           0       -2.619938   -0.088760    0.539318
     32          6           0       -1.646652   -1.261946    0.419597
     33          6           0       -0.313283   -0.997675    1.119656
     34          1           0       -2.153353    0.810566    0.113988
     35          1           0       -2.798161    0.124548    1.602184
     36          1           0       -1.470874   -1.472610   -0.643107
     37          1           0       -2.115470   -2.159107    0.843775
     38          1           0       -0.469185   -0.808982    2.186751
     39          1           0        0.179073   -0.118583    0.691420
     40          1           0        0.367329   -1.849149    1.021588
 ---------------------------------------------------------------------

 SCF Done:  E(RHF) =  -470.732582691     A.U. after   11 cycles
 E2 =    -0.1583900938D+01 EUMP2 =    -0.47231648362949D+03

 The electronic state is 1-A.
 Alpha  occ. eigenvalues --  -11.21677 -11.21634 -11.21593 -11.21495 -11.21458
 Alpha  occ. eigenvalues --  -11.21396 -11.21338 -11.21276 -11.21139 -11.21096
 Alpha  occ. eigenvalues --  -11.21060 -11.21045  -1.08494  -1.08376  -1.03603
 Alpha  occ. eigenvalues --   -1.03481  -0.96047  -0.95943  -0.87082  -0.86946
 Alpha  occ. eigenvalues --   -0.79670  -0.79548  -0.78300  -0.78189  -0.65235
 Alpha  occ. eigenvalues --   -0.64952  -0.61055  -0.60924  -0.59361  -0.59292
 Alpha  occ. eigenvalues --   -0.57660  -0.57545  -0.55467  -0.55100  -0.52759
 Alpha  occ. eigenvalues --   -0.52631  -0.52477  -0.52336  -0.50002  -0.49852
 Alpha  occ. eigenvalues --   -0.48008  -0.47832  -0.46703  -0.46569  -0.45876
 Alpha  occ. eigenvalues --   -0.45781  -0.45666  -0.45647  -0.43791  -0.43729
 Alpha virt. eigenvalues --    0.20353   0.23043   0.23329   0.24951   0.26029
 Alpha virt. eigenvalues --    0.26496   0.27063   0.27432   0.27881   0.29587
 Alpha virt. eigenvalues --    0.30454   0.31338   0.31729   0.32023   0.32167

 Mulliken charges:
               1
     1  C   -0.301479
     2  C   -0.299885
     3  C   -0.475635
     4  H    0.152758
     5  H    0.149661
     6  H    0.150746
     7  H    0.152078
     8  H    0.155305
     9  H    0.155255
    10  H    0.160063
    11  C   -0.298975
    12  C   -0.303673
    13  C   -0.477158
    14  H    0.150940
    15  H    0.149379
    16  H    0.156906
    17  H    0.151783
    18  H    0.155343
    19  H    0.155245
    20  H    0.159923
    21  C   -0.298318
    22  C   -0.299681
    23  C   -0.475739
    24  H    0.149744
    25  H    0.149694
    26  H    0.151979
    27  H    0.152005
    28  H    0.155245
    29  H    0.155250
    30  H    0.160381
    31  C   -0.298632
    32  C   -0.300208
    33  C   -0.483716
    34  H    0.149323
    35  H    0.149848
    36  H    0.151772
    37  H    0.152432
    38  H    0.155265
    39  H    0.159070
    40  H    0.165705
 Sum of Mulliken charges =  -0.00000

 Dipole moment (field-independent basis, Debye):
    X=             -0.0290    Y=             -0.0073    Z=              0.0246  Tot=              0.0387
 Quadrupole moment (field-independent basis, Debye-Ang):
   XX=            -84.7551   YY=            -85.6934   ZZ=            -84.4040
   XY=              0.0678   XZ=             -1.0401   YZ=             -0.8770

 Normal termination of Gaussian 16 at Thu May  6 05:20:49 2021.
