 Gaussian 16, Revision A.03,
 Gaussian 16:  EM64L-G16RevA.03 25-Dec-2016

 -------------
 #p 6-31g* mp2
 -------------

 ------------------------------------------------------
 Input file generated by CHIRIPA (05-May-2021 14:51:08)
 ------------------------------------------------------
 Symbolic Z-matrix:
 Charge =  0 Multiplicity = 1

                         Standard orientation:
 ---------------------------------------------------------------------
 Center     Atomic      Atomic             Coordinates (Angstroms)
 Number     Number       Type             X           Y           Z
 ---------------------------------------------------------------------
      1          6           0        3.453202   -0.026592   -0.704868
      2          6           0        3.677982   -1.397096   -0.065196
      3          6           0        4.779703   -2.199407   -0.758234
      4          1           0        3.199064   -0.161152   -1.765176
      5          1           0        4.393521    0.541297   -0.678455
      6          1           0        2.737165   -1.961706   -0.091561
      7          1           0        3.931427   -1.259267    0.993758
      8          1           0        5.731531   -1.659836   -0.719672
      9          1           0        4.530484   -2.366266   -1.811158
     10          1           0        4.923710   -3.175643   -0.284859
     11          6           0        2.354857    0.787375   -0.023088
     12          6           0        2.130076    2.157878   -0.662760
     13          6           0        1.028356    2.960190    0.030278
     14          1           0        1.414538    0.219486   -0.049501
     15          1           0        2.608995    0.921934    1.037220
     16          1           0        1.876632    2.020049   -1.721714
     17          1           0        3.070893    2.722488   -0.636395
     18          1           0        1.277574    3.127049    1.083202
     19          1           0        0.076527    2.420619   -0.008284
     20          1           0        0.884349    3.936426   -0.443098
     21          6           0       -3.653694   -0.435859    0.228485
     22          6           0       -4.009818   -0.346925   -1.255850
     23          6           0       -5.513176   -0.459513   -1.510866
     24          1           0       -4.025167   -1.387871    0.631753
     25          1           0       -4.179558    0.360658    0.772933
     26          1           0       -3.482355   -1.142516   -1.797545
     27          1           0       -3.637286    0.604902   -1.655677
     28          1           0       -6.052356    0.342256   -0.996035
     29          1           0       -5.896544   -1.415091   -1.138708
     30          1           0       -5.745350   -0.393431   -2.578381
     31          6           0       -2.154364   -0.324924    0.499471
     32          6           0       -1.798240   -0.413857    1.983806
     33          6           0       -0.294882   -0.301269    2.238822
     34          1           0       -1.628501   -1.121441   -0.044977
     35          1           0       -1.782891    0.627089    0.096203
     36          1           0       -2.170773   -1.365684    2.383633
     37          1           0       -2.325704    0.381734    2.525500
     38          1           0        0.088486    0.654308    1.866664
     39          1           0        0.244298   -1.103039    1.723990
     40          1           0       -0.062709   -0.367352    3.306337
 ---------------------------------------------------------------------

 SCF Done:  E(RHF) =  -470.730915804     A.U. after   11 cycles
 E2 =    -0.1585286738D+01 EUMP2 =    -0.47231620254213D+03

 The electronic state is 1-A.
 Alpha  occ. eigenvalues --  -11.21628 -11.21574 -11.21573 -11.21555 -11.21442
 Alpha  occ. eigenvalues --  -11.21380 -11.21313 -11.21189 -11.21120 -11.21089
 Alpha  occ. eigenvalues --  -11.21050 -11.20863  -1.08471  -1.08359  -1.03573
 Alpha  occ. eigenvalues --   -1.03464  -0.96005  -0.95927  -0.87051  -0.86929
 Alpha  occ. eigenvalues --   -0.79770  -0.79478  -0.78424  -0.77985  -0.65103
 Alpha  occ. eigenvalues --   -0.65002  -0.61014  -0.60850  -0.59438  -0.59245
 Alpha  occ. eigenvalues --   -0.57702  -0.57484  -0.55265  -0.55238  -0.52740
 Alpha  occ. eigenvalues --   -0.52643  -0.52569  -0.52208  -0.49954  -0.49886
 Alpha  occ. eigenvalues --   -0.48304  -0.47721  -0.46705  -0.46542  -0.46121
 Alpha  occ. eigenvalues --   -0.45723  -0.45631  -0.44943  -0.43774  -0.43743
 Alpha virt. eigenvalues --    0.20879   0.22850   0.23409   0.24226   0.25764
 Alpha virt. eigenvalues --    0.26172   0.26473   0.27628   0.28036   0.29956
 Alpha virt. eigenvalues --    0.30423   0.31418   0.31580   0.31718   0.32149

 Mulliken charges:
               1
     1  C   -0.297734
     2  C   -0.300065
     3  C   -0.475639
     4  H    0.149003
     5  H    0.148827
     6  H    0.151295
     7  H    0.152374
     8  H    0.155279
     9  H    0.155032
    10  H    0.160058
    11  C   -0.304298
    12  C   -0.297928
    13  C   -0.483839
    14  H    0.158278
    15  H    0.149938
    16  H    0.151600
    17  H    0.151548
    18  H    0.155517
    19  H    0.159567
    20  H    0.160966
    21  C   -0.297785
    22  C   -0.299731
    23  C   -0.475727
    24  H    0.150017
    25  H    0.149895
    26  H    0.151734
    27  H    0.151829
    28  H    0.155339
    29  H    0.155254
    30  H    0.160296
    31  C   -0.304752
    32  C   -0.299244
    33  C   -0.483362
    34  H    0.148775
    35  H    0.153643
    36  H    0.151393
    37  H    0.151592
    38  H    0.166694
    39  H    0.155546
    40  H    0.158815
 Sum of Mulliken charges =  -0.00000

 Dipole moment (field-independent basis, Debye):
    X=             -0.0025    Y=              0.0149    Z=              0.0080  Tot=              0.0171
 Quadrupole moment (field-independent basis, Debye-Ang):
   XX=            -86.1013   YY=            -84.1475   ZZ=            -84.7419
   XY=              0.6524   XZ=              0.4664   YZ=              0.1006

 Normal termination of Gaussian 16 at Thu May  6 16:32:21 2021.
