 Gaussian 16, Revision A.03,
 Gaussian 16:  EM64L-G16RevA.03 25-Dec-2016

 -------------
 #p 6-31g* mp2
 -------------

 ------------------------------------------------------
 Input file generated by CHIRIPA (05-May-2021 14:51:14)
 ------------------------------------------------------
 Symbolic Z-matrix:
 Charge =  0 Multiplicity = 1

                         Standard orientation:
 ---------------------------------------------------------------------
 Center     Atomic      Atomic             Coordinates (Angstroms)
 Number     Number       Type             X           Y           Z
 ---------------------------------------------------------------------
      1          6           0        4.289965   -0.592126    0.244520
      2          6           0        5.266610    0.150573   -0.667920
      3          6           0        6.725550   -0.218088   -0.397038
      4          1           0        4.536918   -0.371727    1.292080
      5          1           0        4.426272   -1.674407    0.112290
      6          1           0        5.127544    1.231136   -0.535027
      7          1           0        5.017183   -0.071468   -1.713435
      8          1           0        6.886481   -1.290338   -0.548635
      9          1           0        6.997468    0.019667    0.636468
     10          1           0        7.406502    0.324292   -1.060354
     11          6           0        2.827554   -0.234161   -0.014215
     12          6           0        1.850909   -0.976860    0.898225
     13          6           0        0.391969   -0.608199    0.627343
     14          1           0        2.691246    0.848119    0.118015
     15          1           0        2.580600   -0.454560   -1.061775
     16          1           0        2.100335   -0.754819    1.943739
     17          1           0        1.989975   -2.057423    0.765332
     18          1           0        0.120050   -0.845954   -0.406163
     19          1           0        0.231038    0.464051    0.778940
     20          1           0       -0.288984   -1.150579    1.290659
     21          6           0       -4.077096   -0.054472    0.194838
     22          6           0       -4.581917   -1.126208   -0.771869
     23          6           0       -5.618336   -2.053962   -0.137123
     24          1           0       -3.642664   -0.541945    1.078344
     25          1           0       -4.930538    0.537958    0.552691
     26          1           0       -3.727607   -1.715555   -1.128860
     27          1           0       -5.015024   -0.636131   -1.653265
     28          1           0       -6.488693   -1.483676    0.203249
     29          1           0       -5.193961   -2.569234    0.730633
     30          1           0       -5.965627   -2.812394   -0.845665
     31          6           0       -3.040422    0.880759   -0.425143
     32          6           0       -2.535602    1.952496    0.541564
     33          6           0       -1.499182    2.880249   -0.093181
     34          1           0       -2.186979    0.288329   -0.782995
     35          1           0       -3.474853    1.368232   -1.308650
     36          1           0       -2.102494    1.462418    1.422960
     37          1           0       -3.389910    2.541842    0.898556
     38          1           0       -1.923558    3.395522   -0.960938
     39          1           0       -0.628826    2.309963   -0.433554
     40          1           0       -1.151892    3.638682    0.615360
 ---------------------------------------------------------------------

 SCF Done:  E(RHF) =  -470.732350599     A.U. after   11 cycles
 E2 =    -0.1584010675D+01 EUMP2 =    -0.47231636127402D+03

 The electronic state is 1-A.
 Alpha  occ. eigenvalues --  -11.21662 -11.21625 -11.21542 -11.21494 -11.21453
 Alpha  occ. eigenvalues --  -11.21391 -11.21301 -11.21210 -11.21148 -11.21089
 Alpha  occ. eigenvalues --  -11.21029 -11.20996  -1.08485  -1.08333  -1.03610
 Alpha  occ. eigenvalues --   -1.03439  -0.96046  -0.95908  -0.87072  -0.86924
 Alpha  occ. eigenvalues --   -0.79671  -0.79515  -0.78302  -0.78139  -0.65136
 Alpha  occ. eigenvalues --   -0.64964  -0.61169  -0.60746  -0.59418  -0.59273
 Alpha  occ. eigenvalues --   -0.57638  -0.57518  -0.55555  -0.54992  -0.52733
 Alpha  occ. eigenvalues --   -0.52616  -0.52453  -0.52334  -0.50049  -0.49771
 Alpha  occ. eigenvalues --   -0.48093  -0.47745  -0.46676  -0.46539  -0.45928
 Alpha  occ. eigenvalues --   -0.45764  -0.45640  -0.45442  -0.43829  -0.43701
 Alpha virt. eigenvalues --    0.21029   0.22930   0.23795   0.24770   0.25702
 Alpha virt. eigenvalues --    0.26507   0.26657   0.27616   0.28130   0.29574
 Alpha virt. eigenvalues --    0.30749   0.31298   0.31481   0.31770   0.32246

 Mulliken charges:
               1
     1  C   -0.298256
     2  C   -0.299728
     3  C   -0.475748
     4  H    0.149791
     5  H    0.149653
     6  H    0.152148
     7  H    0.152011
     8  H    0.155195
     9  H    0.155228
    10  H    0.160392
    11  C   -0.298880
    12  C   -0.300397
    13  C   -0.482645
    14  H    0.149777
    15  H    0.149634
    16  H    0.152136
    17  H    0.151993
    18  H    0.155007
    19  H    0.164245
    20  H    0.160232
    21  C   -0.298366
    22  C   -0.299580
    23  C   -0.475599
    24  H    0.149629
    25  H    0.149016
    26  H    0.151711
    27  H    0.151720
    28  H    0.155085
    29  H    0.154968
    30  H    0.159969
    31  C   -0.302633
    32  C   -0.301283
    33  C   -0.479728
    34  H    0.157074
    35  H    0.148628
    36  H    0.153397
    37  H    0.151812
    38  H    0.155391
    39  H    0.157781
    40  H    0.159222
 Sum of Mulliken charges =  -0.00000

 Dipole moment (field-independent basis, Debye):
    X=              0.0543    Y=             -0.0150    Z=              0.0019  Tot=              0.0564
 Quadrupole moment (field-independent basis, Debye-Ang):
   XX=            -86.1742   YY=            -84.5481   ZZ=            -84.3337
   XY=             -0.7608   XZ=              0.4331   YZ=              0.5902

 Normal termination of Gaussian 16 at Thu May  6 00:51:55 2021.
