 Gaussian 16, Revision A.03,
 Gaussian 16:  EM64L-G16RevA.03 25-Dec-2016

 -------------
 #p 6-31g* mp2
 -------------

 ------------------------------------------------------
 Input file generated by CHIRIPA (05-May-2021 14:53:12)
 ------------------------------------------------------
 Symbolic Z-matrix:
 Charge =  0 Multiplicity = 1

                         Standard orientation:
 ---------------------------------------------------------------------
 Center     Atomic      Atomic             Coordinates (Angstroms)
 Number     Number       Type             X           Y           Z
 ---------------------------------------------------------------------
      1          6           0        5.015417   -0.268321    0.173489
      2          6           0        5.636900    0.642035   -0.886226
      3          6           0        7.142974    0.826322   -0.697621
      4          1           0        5.213068    0.150974    1.169516
      5          1           0        5.512342   -1.247861    0.142473
      6          1           0        5.138010    1.619121   -0.854154
      7          1           0        5.437581    0.220624   -1.879856
      8          1           0        7.658724   -0.137924   -0.750856
      9          1           0        7.357451    1.268519    0.280674
     10          1           0        7.566703    1.480575   -1.465909
     11          6           0        3.510282   -0.462250   -0.001694
     12          6           0        2.888799   -1.372607    1.058020
     13          6           0        1.382725   -1.556893    0.869416
     14          1           0        3.013357    0.517290    0.029321
     15          1           0        3.312631   -0.881546   -0.997722
     16          1           0        3.088118   -0.951196    2.051651
     17          1           0        3.387689   -2.349693    1.025949
     18          1           0        1.168248   -1.999090   -0.108880
     19          1           0        0.866975   -0.592648    0.922650
     20          1           0        0.958996   -2.211147    1.637704
     21          6           0       -4.511691   -1.871833   -0.629954
     22          6           0       -3.141981   -1.877173   -0.346426
     23          6           0       -2.477094   -0.687877   -0.033298
     24          6           0       -3.216144    0.493931   -0.012693
     25          6           0       -4.581663    0.531760   -0.290568
     26          6           0       -5.225901   -0.669503   -0.601171
     27          1           0       -5.020171   -2.800353   -0.872218
     28          1           0       -2.584777   -2.809428   -0.368032
     29          1           0       -1.417456   -0.663328    0.190270
     30          1           0       -5.110347    1.476771   -0.261164
     31          1           0       -6.289714   -0.662349   -0.820936
     32          7           0       -2.523188    1.759319    0.317464
     33          8           0       -3.196889    2.787244    0.328976
     34          8           0       -1.319468    1.699245    0.558478
 ---------------------------------------------------------------------

 SCF Done:  E(RHF) =  -669.536031400     A.U. after   15 cycles
 E2 =    -0.2091394781D+01 EUMP2 =    -0.67162742618092D+03

 The electronic state is 1-A.
 Alpha  occ. eigenvalues --  -20.60792 -20.60787 -15.85835 -11.31123 -11.27710
 Alpha  occ. eigenvalues --  -11.27630 -11.27449 -11.26716 -11.26684 -11.21598
 Alpha  occ. eigenvalues --  -11.21372 -11.21274 -11.21206 -11.21146 -11.20869
 Alpha  occ. eigenvalues --   -1.59859  -1.39416  -1.19302  -1.08716  -1.08278
 Alpha  occ. eigenvalues --   -1.04694  -1.03445  -0.95925  -0.95554  -0.86963
 Alpha  occ. eigenvalues --   -0.86094  -0.82391  -0.79533  -0.78075  -0.77434
 Alpha  occ. eigenvalues --   -0.72060  -0.71176  -0.70418  -0.64963  -0.64900
 Alpha  occ. eigenvalues --   -0.64701  -0.62062  -0.60825  -0.59283  -0.57513
 Alpha  occ. eigenvalues --   -0.55263  -0.55150  -0.53034  -0.52913  -0.52599
 Alpha  occ. eigenvalues --   -0.52252  -0.49852  -0.48808  -0.48805  -0.47818
 Alpha  occ. eigenvalues --   -0.46510  -0.45627  -0.45511  -0.44835  -0.43686
 Alpha  occ. eigenvalues --   -0.37293  -0.36295
 Alpha virt. eigenvalues --    0.05084   0.11354   0.16582   0.20988   0.23067
 Alpha virt. eigenvalues --    0.24302   0.25842   0.26736   0.27727   0.27960
 Alpha virt. eigenvalues --    0.29498   0.30183   0.31612   0.31719   0.32010

 Mulliken charges:
               1
     1  C   -0.298533
     2  C   -0.300020
     3  C   -0.475712
     4  H    0.150718
     5  H    0.147705
     6  H    0.154981
     7  H    0.150996
     8  H    0.154008
     9  H    0.155616
    10  H    0.160248
    11  C   -0.300657
    12  C   -0.297328
    13  C   -0.493629
    14  H    0.158678
    15  H    0.147465
    16  H    0.155481
    17  H    0.150350
    18  H    0.148574
    19  H    0.173701
    20  H    0.157597
    21  C   -0.170274
    22  C   -0.224060
    23  C   -0.178437
    24  C    0.155584
    25  C   -0.169706
    26  C   -0.219448
    27  H    0.225332
    28  H    0.224097
    29  H    0.294267
    30  H    0.275259
    31  H    0.223127
    32  N    0.488375
    33  O   -0.459928
    34  O   -0.464426
 Sum of Mulliken charges =  -0.00000

 Dipole moment (field-independent basis, Debye):
    X=             -2.3806    Y=             -4.3478    Z=             -1.1287  Tot=              5.0838
 Quadrupole moment (field-independent basis, Debye-Ang):
   XX=            -76.6733   YY=            -98.0573   ZZ=            -95.2138
   XY=             10.7415   XZ=              4.3980   YZ=             -0.2581

 Normal termination of Gaussian 16 at Thu May  6 00:58:00 2021.
