 Gaussian 16, Revision A.03,
 Gaussian 16:  EM64L-G16RevA.03 25-Dec-2016

 -------------
 #p 6-31g* mp2
 -------------

 ------------------------------------------------------
 Input file generated by CHIRIPA (05-May-2021 14:55:24)
 ------------------------------------------------------
 Symbolic Z-matrix:
 Charge =  0 Multiplicity = 1

                         Standard orientation:
 ---------------------------------------------------------------------
 Center     Atomic      Atomic             Coordinates (Angstroms)
 Number     Number       Type             X           Y           Z
 ---------------------------------------------------------------------
      1          6           0        2.261891    2.042372    1.256394
      2          6           0        3.430416    1.353652    1.598057
      3          6           0        3.763664    0.157950    0.954791
      4          6           0        2.901729   -0.322454   -0.029877
      5          6           0        1.730397    0.340668   -0.392560
      6          6           0        1.417100    1.534577    0.263926
      7          1           0        2.010765    2.970526    1.761234
      8          1           0        4.088365    1.745651    2.368438
      9          1           0        4.662031   -0.395588    1.199639
     10          1           0        1.094255   -0.074971   -1.164561
     11          1           0        0.508951    2.067313   -0.003475
     12          7           0        3.243963   -1.587341   -0.717871
     13          8           0        2.467938   -1.989576   -1.581948
     14          8           0        4.281751   -2.152574   -0.380018
     15          6           0       -3.643913   -0.510510    0.283684
     16          6           0       -5.038094   -1.118301    0.441274
     17          6           0       -5.025515   -2.431169    1.224864
     18          1           0       -2.990206   -1.234549   -0.221667
     19          1           0       -3.211075   -0.340282    1.279207
     20          1           0       -5.468730   -1.286049   -0.554230
     21          1           0       -5.688609   -0.392657    0.946138
     22          1           0       -4.620285   -2.276015    2.230008
     23          1           0       -4.399156   -3.174483    0.721115
     24          1           0       -6.032378   -2.848220    1.325639
     25          6           0       -3.640119    0.802312   -0.497477
     26          6           0       -2.245938    1.410104   -0.655068
     27          6           0       -2.258518    2.722972   -1.438657
     28          1           0       -4.072957    0.632085   -1.493002
     29          1           0       -4.293826    1.526351    0.007874
     30          1           0       -1.595423    0.684460   -1.159932
     31          1           0       -1.815302    1.577852    0.340437
     32          1           0       -2.884876    3.466284   -0.934909
     33          1           0       -2.663747    2.567817   -2.443802
     34          1           0       -1.251654    3.140023   -1.539433
 ---------------------------------------------------------------------

 SCF Done:  E(RHF) =  -669.534920245     A.U. after   15 cycles
 E2 =    -0.2092272895D+01 EUMP2 =    -0.67162719313969D+03

 The electronic state is 1-A.
 Alpha  occ. eigenvalues --  -20.60715 -20.60710 -15.85767 -11.31108 -11.27675
 Alpha  occ. eigenvalues --  -11.27651 -11.27401 -11.26693 -11.26593 -11.22616
 Alpha  occ. eigenvalues --  -11.22082 -11.22030 -11.21894 -11.21780 -11.21241
 Alpha  occ. eigenvalues --   -1.59791  -1.39345  -1.19272  -1.09034  -1.08673
 Alpha  occ. eigenvalues --   -1.04681  -1.04146  -0.96573  -0.95515  -0.87582
 Alpha  occ. eigenvalues --   -0.86075  -0.82361  -0.80279  -0.78797  -0.77376
 Alpha  occ. eigenvalues --   -0.71986  -0.71112  -0.70391  -0.65674  -0.64923
 Alpha  occ. eigenvalues --   -0.64708  -0.62125  -0.61529  -0.59925  -0.58166
 Alpha  occ. eigenvalues --   -0.55822  -0.55168  -0.53308  -0.53080  -0.52972
 Alpha  occ. eigenvalues --   -0.52672  -0.50489  -0.48748  -0.48744  -0.48545
 Alpha  occ. eigenvalues --   -0.47280  -0.46319  -0.46204  -0.44756  -0.44382
 Alpha  occ. eigenvalues --   -0.37258  -0.36256
 Alpha virt. eigenvalues --    0.05126   0.11330   0.16587   0.19734   0.22666
 Alpha virt. eigenvalues --    0.23872   0.24851   0.26123   0.26664   0.28313
 Alpha virt. eigenvalues --    0.29207   0.29968   0.30940   0.31547   0.31899

 Mulliken charges:
               1
     1  C   -0.173164
     2  C   -0.218415
     3  C   -0.171225
     4  C    0.159188
     5  C   -0.176311
     6  C   -0.225441
     7  H    0.225439
     8  H    0.222931
     9  H    0.275209
    10  H    0.276102
    11  H    0.238517
    12  N    0.488323
    13  O   -0.460949
    14  O   -0.460707
    15  C   -0.299849
    16  C   -0.300309
    17  C   -0.476340
    18  H    0.153325
    19  H    0.149575
    20  H    0.153302
    21  H    0.151625
    22  H    0.155224
    23  H    0.157986
    24  H    0.161318
    25  C   -0.297480
    26  C   -0.309333
    27  C   -0.480222
    28  H    0.153098
    29  H    0.151173
    30  H    0.152429
    31  H    0.148514
    32  H    0.159190
    33  H    0.162718
    34  H    0.154561
 Sum of Mulliken charges =  -0.00000

 Dipole moment (field-independent basis, Debye):
    X=             -1.4474    Y=              4.4091    Z=              2.4014  Tot=              5.2251
 Quadrupole moment (field-independent basis, Debye-Ang):
   XX=            -97.8989   YY=            -98.9055   ZZ=            -93.4086
   XY=             12.8749   XZ=              9.9504   YZ=             -0.1807

 Normal termination of Gaussian 16 at Thu May  6 04:46:59 2021.
