 Gaussian 16, Revision A.03,
 Gaussian 16:  EM64L-G16RevA.03 25-Dec-2016

 -------------
 #p 6-31g* mp2
 -------------

 ------------------------------------------------------
 Input file generated by CHIRIPA (05-May-2021 14:55:22)
 ------------------------------------------------------
 Symbolic Z-matrix:
 Charge =  0 Multiplicity = 1

                         Standard orientation:
 ---------------------------------------------------------------------
 Center     Atomic      Atomic             Coordinates (Angstroms)
 Number     Number       Type             X           Y           Z
 ---------------------------------------------------------------------
      1          6           0       -2.506592    2.077368    0.545310
      2          6           0       -3.338658    1.366929   -0.326163
      3          6           0       -3.123293    0.005809   -0.561784
      4          6           0       -2.061804   -0.616068    0.093807
      5          6           0       -1.215394    0.064482    0.967725
      6          6           0       -1.449479    1.425027    1.188338
      7          1           0       -2.681163    3.134495    0.722517
      8          1           0       -4.160389    1.870950   -0.826927
      9          1           0       -3.752096   -0.568257   -1.231465
     10          1           0       -0.404304   -0.465303    1.452366
     11          1           0       -0.801676    1.974240    1.865658
     12          7           0       -1.823898   -2.056721   -0.147691
     13          8           0       -0.881926   -2.581503    0.442166
     14          8           0       -2.583903   -2.633843   -0.922261
     15          6           0        2.091044    0.954930   -0.237047
     16          6           0        2.488504    2.421885   -0.404528
     17          6           0        1.280765    3.350352   -0.535339
     18          1           0        1.481037    0.646435   -1.097086
     19          1           0        1.452240    0.854487    0.651343
     20          1           0        3.127501    2.519313   -1.291551
     21          1           0        3.097796    2.726869    0.455916
     22          1           0        0.644797    3.282680    0.353236
     23          1           0        0.674671    3.073945   -1.404159
     24          1           0        1.587802    4.394137   -0.654095
     25          6           0        3.287551    0.014367   -0.104991
     26          6           0        2.890090   -1.452589    0.062491
     27          6           0        4.097829   -2.381056    0.193301
     28          1           0        3.926354    0.114808   -0.993381
     29          1           0        3.897557    0.322861    0.755049
     30          1           0        2.280799   -1.757573   -0.797953
     31          1           0        2.251093   -1.550017    0.949513
     32          1           0        4.703925   -2.104649    1.062121
     33          1           0        4.733798   -2.313385   -0.695274
     34          1           0        3.790792   -3.424840    0.312057
 ---------------------------------------------------------------------

 SCF Done:  E(RHF) =  -669.532831535     A.U. after   15 cycles
 E2 =    -0.2095490219D+01 EUMP2 =    -0.67162832175427D+03

 The electronic state is 1-A.
 Alpha  occ. eigenvalues --  -20.60788 -20.60774 -15.85826 -11.31159 -11.27734
 Alpha  occ. eigenvalues --  -11.27721 -11.27473 -11.26738 -11.26722 -11.21951
 Alpha  occ. eigenvalues --  -11.21607 -11.21569 -11.21340 -11.21215 -11.20686
 Alpha  occ. eigenvalues --   -1.59852  -1.39406  -1.19347  -1.08747  -1.08525
 Alpha  occ. eigenvalues --   -1.04763  -1.03558  -0.96063  -0.95575  -0.87085
 Alpha  occ. eigenvalues --   -0.86147  -0.82436  -0.79668  -0.78368  -0.77400
 Alpha  occ. eigenvalues --   -0.72047  -0.71170  -0.70460  -0.65235  -0.64984
 Alpha  occ. eigenvalues --   -0.64802  -0.62118  -0.60948  -0.59441  -0.57627
 Alpha  occ. eigenvalues --   -0.55394  -0.55249  -0.53137  -0.52910  -0.52698
 Alpha  occ. eigenvalues --   -0.52433  -0.50025  -0.48820  -0.48799  -0.47919
 Alpha  occ. eigenvalues --   -0.46719  -0.45846  -0.45715  -0.44763  -0.43823
 Alpha  occ. eigenvalues --   -0.37298  -0.36203
 Alpha virt. eigenvalues --    0.05049   0.11171   0.16427   0.19915   0.23177
 Alpha virt. eigenvalues --    0.23634   0.25239   0.26597   0.26999   0.28611
 Alpha virt. eigenvalues --    0.29418   0.30903   0.31555   0.31852   0.32222

 Mulliken charges:
               1
     1  C   -0.169628
     2  C   -0.219397
     3  C   -0.171285
     4  C    0.154721
     5  C   -0.167504
     6  C   -0.214526
     7  H    0.225986
     8  H    0.223283
     9  H    0.275298
    10  H    0.277935
    11  H    0.222327
    12  N    0.488128
    13  O   -0.460753
    14  O   -0.460541
    15  C   -0.295859
    16  C   -0.300119
    17  C   -0.473791
    18  H    0.153040
    19  H    0.138544
    20  H    0.154655
    21  H    0.150759
    22  H    0.144473
    23  H    0.158085
    24  H    0.159700
    25  C   -0.299169
    26  C   -0.300211
    27  C   -0.476672
    28  H    0.149974
    29  H    0.147054
    30  H    0.159533
    31  H    0.154085
    32  H    0.151877
    33  H    0.153556
    34  H    0.166444
 Sum of Mulliken charges =  -0.00000

 Dipole moment (field-independent basis, Debye):
    X=             -0.8493    Y=              4.9268    Z=              0.7583  Tot=              5.0566
 Quadrupole moment (field-independent basis, Debye-Ang):
   XX=            -89.3622   YY=           -102.3711   ZZ=            -92.1483
   XY=             -9.7190   XZ=              0.6931   YZ=              0.1733

 Normal termination of Gaussian 16 at Wed May  5 23:53:01 2021.
