 Gaussian 16, Revision A.03,
 Gaussian 16:  EM64L-G16RevA.03 25-Dec-2016

 -------------
 #p 6-31g* mp2
 -------------

 ------------------------------------------------------
 Input file generated by CHIRIPA (05-May-2021 14:51:07)
 ------------------------------------------------------
 Symbolic Z-matrix:
 Charge =  0 Multiplicity = 1

                         Standard orientation:
 ---------------------------------------------------------------------
 Center     Atomic      Atomic             Coordinates (Angstroms)
 Number     Number       Type             X           Y           Z
 ---------------------------------------------------------------------
      1          6           0        2.873517   -0.032292   -0.014620
      2          6           0        3.193993   -1.045427   -1.114091
      3          6           0        4.216377   -0.520062   -2.122316
      4          1           0        2.495901    0.891192   -0.474542
      5          1           0        3.801594    0.236075    0.508876
      6          1           0        2.265379   -1.312849   -1.634453
      7          1           0        3.570710   -1.966676   -0.651487
      8          1           0        5.157762   -0.270812   -1.622047
      9          1           0        3.845014    0.386730   -2.610598
     10          1           0        4.430798   -1.260309   -2.899437
     11          6           0        1.852957   -0.542945    1.000969
     12          6           0        1.532481    0.470190    2.100441
     13          6           0        0.510097   -0.055175    3.108666
     14          1           0        0.924880   -0.811312    0.477474
     15          1           0        2.230573   -1.466429    1.460891
     16          1           0        1.155764    1.391438    1.637837
     17          1           0        2.461095    0.737611    2.620803
     18          1           0        0.881460   -0.961968    3.596947
     19          1           0       -0.431288   -0.304426    2.608396
     20          1           0        0.295676    0.685072    3.885787
     21          6           0       -2.441357    1.022943   -0.684560
     22          6           0       -1.204910    1.865901   -0.370543
     23          6           0       -1.376546    3.334695   -0.759103
     24          1           0       -2.664288    1.096141   -1.757820
     25          1           0       -3.307662    1.444209   -0.155934
     26          1           0       -0.340919    1.442353   -0.898504
     27          1           0       -0.984784    1.790533    0.702061
     28          1           0       -2.220916    3.779062   -0.222280
     29          1           0       -1.573392    3.428904   -1.831939
     30          1           0       -0.480932    3.918957   -0.525919
     31          6           0       -2.285117   -0.447705   -0.301790
     32          6           0       -3.521564   -1.290663   -0.615807
     33          6           0       -3.349928   -2.759457   -0.227246
     34          1           0       -1.418812   -0.868971   -0.830416
     35          1           0       -2.062187   -0.520904    0.771471
     36          1           0       -3.741690   -1.215295   -1.688411
     37          1           0       -4.385555   -0.867115   -0.087846
     38          1           0       -3.153082   -2.853666    0.845589
     39          1           0       -2.505558   -3.203824   -0.764069
     40          1           0       -4.245541   -3.343718   -0.460431
 ---------------------------------------------------------------------

 SCF Done:  E(RHF) =  -470.732199227     A.U. after   11 cycles
 E2 =    -0.1585687245D+01 EUMP2 =    -0.47231788647182D+03

 The electronic state is 1-A.
 Alpha  occ. eigenvalues --  -11.21672 -11.21670 -11.21592 -11.21504 -11.21477
 Alpha  occ. eigenvalues --  -11.21442 -11.21338 -11.21239 -11.21148 -11.21112
 Alpha  occ. eigenvalues --  -11.21067 -11.21032  -1.08556  -1.08344  -1.03622
 Alpha  occ. eigenvalues --   -1.03477  -0.96059  -0.95944  -0.87076  -0.86956
 Alpha  occ. eigenvalues --   -0.79741  -0.79509  -0.78400  -0.78154  -0.65187
 Alpha  occ. eigenvalues --   -0.65008  -0.61112  -0.60820  -0.59420  -0.59296
 Alpha  occ. eigenvalues --   -0.57686  -0.57550  -0.55377  -0.55221  -0.52742
 Alpha  occ. eigenvalues --   -0.52642  -0.52490  -0.52373  -0.50084  -0.49826
 Alpha  occ. eigenvalues --   -0.48084  -0.47906  -0.46864  -0.46380  -0.46228
 Alpha  occ. eigenvalues --   -0.45787  -0.45549  -0.45260  -0.43863  -0.43728
 Alpha virt. eigenvalues --    0.20038   0.22404   0.23298   0.23995   0.25199
 Alpha virt. eigenvalues --    0.26117   0.26275   0.28568   0.28803   0.30027
 Alpha virt. eigenvalues --    0.30561   0.31452   0.31623   0.31817   0.32336

 Mulliken charges:
               1
     1  C   -0.300201
     2  C   -0.299440
     3  C   -0.475614
     4  H    0.150709
     5  H    0.149447
     6  H    0.150604
     7  H    0.152161
     8  H    0.155343
     9  H    0.154903
    10  H    0.160102
    11  C   -0.303896
    12  C   -0.303140
    13  C   -0.482315
    14  H    0.156827
    15  H    0.149038
    16  H    0.156741
    17  H    0.151502
    18  H    0.155475
    19  H    0.159511
    20  H    0.159502
    21  C   -0.297380
    22  C   -0.308184
    23  C   -0.476043
    24  H    0.149819
    25  H    0.149861
    26  H    0.153987
    27  H    0.158825
    28  H    0.155648
    29  H    0.155480
    30  H    0.160327
    31  C   -0.307396
    32  C   -0.299084
    33  C   -0.475936
    34  H    0.151014
    35  H    0.155897
    36  H    0.152204
    37  H    0.152258
    38  H    0.155500
    39  H    0.155363
    40  H    0.160580
 Sum of Mulliken charges =  -0.00000

 Dipole moment (field-independent basis, Debye):
    X=             -0.0612    Y=              0.0096    Z=             -0.0155  Tot=              0.0639
 Quadrupole moment (field-independent basis, Debye-Ang):
   XX=            -84.5982   YY=            -85.8001   ZZ=            -84.4203
   XY=             -0.5605   XZ=              0.6480   YZ=              0.4120

 Normal termination of Gaussian 16 at Wed May  5 22:53:34 2021.
