 Gaussian 16, Revision A.03,
 Gaussian 16:  EM64L-G16RevA.03 25-Dec-2016

 -------------
 #p 6-31g* mp2
 -------------

 ------------------------------------------------------
 Input file generated by CHIRIPA (05-May-2021 14:55:23)
 ------------------------------------------------------
 Symbolic Z-matrix:
 Charge =  0 Multiplicity = 1

                         Standard orientation:
 ---------------------------------------------------------------------
 Center     Atomic      Atomic             Coordinates (Angstroms)
 Number     Number       Type             X           Y           Z
 ---------------------------------------------------------------------
      1          6           0        3.957800    2.403371    0.500548
      2          6           0        4.833399    1.362484    0.174355
      3          6           0        4.338942    0.106217   -0.188763
      4          6           0        2.957004   -0.074985   -0.215309
      5          6           0        2.059008    0.942237    0.104302
      6          6           0        2.575835    2.190301    0.464544
      7          1           0        4.350594    3.376083    0.781509
      8          1           0        5.907118    1.525082    0.201454
      9          1           0        4.994199   -0.717108   -0.446040
     10          1           0        0.993595    0.749858    0.068200
     11          1           0        1.893464    2.996833    0.717371
     12          7           0        2.421704   -1.400596   -0.598203
     13          8           0        1.200059   -1.534659   -0.613917
     14          8           0        3.233917   -2.280447   -0.875351
     15          6           0       -4.134550    0.508053   -0.026416
     16          6           0       -5.626028    0.560945   -0.359102
     17          6           0       -6.084398    1.951349   -0.800087
     18          1           0       -3.916209    1.236327    0.766609
     19          1           0       -3.558110    0.822928   -0.907305
     20          1           0       -6.199431    0.244737    0.521715
     21          1           0       -5.840878   -0.167676   -1.151293
     22          1           0       -5.538036    2.271891   -1.693027
     23          1           0       -5.898626    2.686647   -0.010513
     24          1           0       -7.153694    1.966452   -1.032977
     25          6           0       -3.661235   -0.875392    0.416056
     26          6           0       -2.169757   -0.928284    0.748742
     27          6           0       -1.711387   -2.318688    1.189727
     28          1           0       -4.237675   -1.190267    1.296945
     29          1           0       -3.879576   -1.603666   -0.376969
     30          1           0       -1.954906   -0.199663    1.540934
     31          1           0       -1.596354   -0.612076   -0.132075
     32          1           0       -1.897159   -3.053987    0.400154
     33          1           0       -2.257749   -2.639230    2.082667
     34          1           0       -0.642091   -2.333791    1.422618
 ---------------------------------------------------------------------

 SCF Done:  E(RHF) =  -669.535947135     A.U. after   15 cycles
 E2 =    -0.2091808854D+01 EUMP2 =    -0.67162775598922D+03

 The electronic state is 1-A.
 Alpha  occ. eigenvalues --  -20.60922 -20.60915 -15.85950 -11.31257 -11.27825
 Alpha  occ. eigenvalues --  -11.27805 -11.27562 -11.26830 -11.26816 -11.21361
 Alpha  occ. eigenvalues --  -11.21087 -11.20928 -11.20875 -11.20814 -11.19898
 Alpha  occ. eigenvalues --   -1.59985  -1.39542  -1.19428  -1.08837  -1.07974
 Alpha  occ. eigenvalues --   -1.04821  -1.02977  -0.95694  -0.95395  -0.86431
 Alpha  occ. eigenvalues --   -0.86222  -0.82514  -0.79093  -0.77818  -0.77536
 Alpha  occ. eigenvalues --   -0.72188  -0.71300  -0.70537  -0.65091  -0.64825
 Alpha  occ. eigenvalues --   -0.64598  -0.62169  -0.60362  -0.58817  -0.57000
 Alpha  occ. eigenvalues --   -0.55329  -0.54700  -0.53158  -0.52913  -0.52068
 Alpha  occ. eigenvalues --   -0.51843  -0.49384  -0.48940  -0.48916  -0.47393
 Alpha  occ. eigenvalues --   -0.46134  -0.45327  -0.45213  -0.44927  -0.43216
 Alpha  occ. eigenvalues --   -0.37410  -0.36422
 Alpha virt. eigenvalues --    0.04932   0.11228   0.16412   0.20942   0.23260
 Alpha virt. eigenvalues --    0.24375   0.26260   0.27133   0.27624   0.28497
 Alpha virt. eigenvalues --    0.29070   0.30523   0.31590   0.31953   0.32701

 Mulliken charges:
               1
     1  C   -0.170355
     2  C   -0.218815
     3  C   -0.170528
     4  C    0.156766
     5  C   -0.172841
     6  C   -0.219853
     7  H    0.225883
     8  H    0.223656
     9  H    0.275655
    10  H    0.281010
    11  H    0.224277
    12  N    0.491782
    13  O   -0.463981
    14  O   -0.459039
    15  C   -0.297718
    16  C   -0.299163
    17  C   -0.475409
    18  H    0.145388
    19  H    0.147811
    20  H    0.151682
    21  H    0.153022
    22  H    0.154367
    23  H    0.153287
    24  H    0.159859
    25  C   -0.297516
    26  C   -0.305322
    27  C   -0.471397
    28  H    0.147706
    29  H    0.151730
    30  H    0.140511
    31  H    0.162313
    32  H    0.158722
    33  H    0.145428
    34  H    0.171081
 Sum of Mulliken charges =  -0.00000

 Dipole moment (field-independent basis, Debye):
    X=              2.1078    Y=              4.5570    Z=              1.2489  Tot=              5.1738
 Quadrupole moment (field-independent basis, Debye-Ang):
   XX=            -80.0528   YY=            -96.1218   ZZ=            -95.5642
   XY=             12.6566   XZ=              2.9317   YZ=             -0.1040

 Normal termination of Gaussian 16 at Thu May  6 06:17:13 2021.
