 Gaussian 16, Revision A.03,
 Gaussian 16:  EM64L-G16RevA.03 25-Dec-2016

 -------------
 #p 6-31g* mp2
 -------------

 ------------------------------------------------------
 Input file generated by CHIRIPA (05-May-2021 14:55:22)
 ------------------------------------------------------
 Symbolic Z-matrix:
 Charge =  0 Multiplicity = 1

                         Standard orientation:
 ---------------------------------------------------------------------
 Center     Atomic      Atomic             Coordinates (Angstroms)
 Number     Number       Type             X           Y           Z
 ---------------------------------------------------------------------
      1          6           0        2.631956    2.599747   -0.039933
      2          6           0        4.011021    2.371383    0.010569
      3          6           0        4.514952    1.067334    0.018104
      4          6           0        3.607155    0.010330   -0.025941
      5          6           0        2.227795    0.205456   -0.076751
      6          6           0        1.746306    1.517962   -0.083355
      7          1           0        2.249206    3.616049   -0.045425
      8          1           0        4.701177    3.209588    0.044364
      9          1           0        5.577845    0.861954    0.056765
     10          1           0        1.564568   -0.650385   -0.109677
     11          1           0        0.674809    1.692316   -0.122621
     12          7           0        4.128766   -1.374685   -0.018456
     13          8           0        3.308096   -2.288787   -0.057903
     14          8           0        5.348397   -1.519932    0.026714
     15          6           0       -3.931024   -0.714809   -0.254930
     16          6           0       -2.652361   -0.637634    0.579966
     17          6           0       -1.508891   -1.461838   -0.012451
     18          1           0       -4.241268   -1.765049   -0.342617
     19          1           0       -3.716439   -0.366099   -1.274610
     20          1           0       -2.869622   -0.985083    1.598147
     21          1           0       -2.345230    0.412561    0.665837
     22          1           0       -1.263620   -1.111751   -1.020362
     23          1           0       -1.790991   -2.517336   -0.082753
     24          1           0       -0.604631   -1.392429    0.600214
     25          6           0       -5.083217    0.103999    0.324495
     26          6           0       -6.361879    0.026825   -0.510401
     27          6           0       -7.505350    0.851028    0.082017
     28          1           0       -5.297802   -0.244712    1.344176
     29          1           0       -4.772972    1.154239    0.412182
     30          1           0       -6.669009   -1.023372   -0.596271
     31          1           0       -6.144618    0.374273   -1.528582
     32          1           0       -7.223249    1.906527    0.152319
     33          1           0       -7.750620    0.500941    1.089927
     34          1           0       -8.409609    0.781620   -0.530647
 ---------------------------------------------------------------------

 SCF Done:  E(RHF) =  -669.535527045     A.U. after   15 cycles
 E2 =    -0.2091174352D+01 EUMP2 =    -0.67162670139660D+03

 The electronic state is 1-A.
 Alpha  occ. eigenvalues --  -20.60711 -20.60706 -15.85763 -11.31116 -11.27702
 Alpha  occ. eigenvalues --  -11.27643 -11.27451 -11.26722 -11.26701 -11.22224
 Alpha  occ. eigenvalues --  -11.21926 -11.21856 -11.21766 -11.21730 -11.21354
 Alpha  occ. eigenvalues --   -1.59786  -1.39340  -1.19297  -1.08886  -1.08698
 Alpha  occ. eigenvalues --   -1.04702  -1.04000  -0.96450  -0.95531  -0.87469
 Alpha  occ. eigenvalues --   -0.86099  -0.82362  -0.80064  -0.78679  -0.77408
 Alpha  occ. eigenvalues --   -0.71983  -0.71110  -0.70419  -0.65519  -0.64951
 Alpha  occ. eigenvalues --   -0.64713  -0.62126  -0.61373  -0.59801  -0.58047
 Alpha  occ. eigenvalues --   -0.55729  -0.55208  -0.53246  -0.53035  -0.52879
 Alpha  occ. eigenvalues --   -0.52661  -0.50376  -0.48741  -0.48737  -0.48372
 Alpha  occ. eigenvalues --   -0.47095  -0.46225  -0.46141  -0.44747  -0.44244
 Alpha  occ. eigenvalues --   -0.37288  -0.36303
 Alpha virt. eigenvalues --    0.05111   0.11334   0.16599   0.19695   0.22667
 Alpha virt. eigenvalues --    0.23730   0.25880   0.26266   0.26819   0.27907
 Alpha virt. eigenvalues --    0.29121   0.29707   0.31165   0.31518   0.31934

 Mulliken charges:
               1
     1  C   -0.170740
     2  C   -0.218882
     3  C   -0.170419
     4  C    0.159557
     5  C   -0.179538
     6  C   -0.222386
     7  H    0.225241
     8  H    0.223177
     9  H    0.275383
    10  H    0.285794
    11  H    0.224508
    12  N    0.487375
    13  O   -0.460154
    14  O   -0.460741
    15  C   -0.298999
    16  C   -0.299352
    17  C   -0.483647
    18  H    0.152969
    19  H    0.149263
    20  H    0.156235
    21  H    0.144577
    22  H    0.153612
    23  H    0.164955
    24  H    0.160333
    25  C   -0.298332
    26  C   -0.300010
    27  C   -0.475884
    28  H    0.150962
    29  H    0.147801
    30  H    0.153465
    31  H    0.151957
    32  H    0.154571
    33  H    0.155943
    34  H    0.161407
 Sum of Mulliken charges =  -0.00000

 Dipole moment (field-independent basis, Debye):
    X=             -2.0172    Y=              4.7766    Z=             -0.0210  Tot=              5.1851
 Quadrupole moment (field-independent basis, Debye-Ang):
   XX=           -103.9494   YY=            -93.9980   ZZ=            -95.4742
   XY=             20.6846   XZ=              0.2410   YZ=             -0.6915

 Normal termination of Gaussian 16 at Thu May  6 14:11:36 2021.
