 Gaussian 16, Revision A.03,
 Gaussian 16:  EM64L-G16RevA.03 25-Dec-2016

 -------------
 #p 6-31g* mp2
 -------------

 ------------------------------------------------------
 Input file generated by CHIRIPA (05-May-2021 14:57:25)
 ------------------------------------------------------
 Symbolic Z-matrix:
 Charge =  0 Multiplicity = 1

                         Standard orientation:
 ---------------------------------------------------------------------
 Center     Atomic      Atomic             Coordinates (Angstroms)
 Number     Number       Type             X           Y           Z
 ---------------------------------------------------------------------
      1          6           0        4.385936    2.515395   -0.129444
      2          6           0        5.209729    1.542679   -0.705387
      3          6           0        4.843283    0.193832   -0.675804
      4          6           0        3.640791   -0.148459   -0.059247
      5          6           0        2.798620    0.797374    0.523366
      6          6           0        3.185128    2.140299    0.482016
      7          1           0        4.678393    3.560913   -0.156995
      8          1           0        6.142856    1.831077   -1.180934
      9          1           0        5.462146   -0.579779   -1.113927
     10          1           0        1.874373    0.479257    0.990258
     11          1           0        2.543380    2.893568    0.930114
     12          7           0        3.242232   -1.573289   -0.021700
     13          8           0        2.177820   -1.848990    0.527530
     14          8           0        4.001799   -2.387391   -0.542212
     15          6           0       -1.718037   -1.314059    1.016648
     16          6           0       -2.266323   -0.228327    1.707365
     17          6           0       -3.368055    0.459300    1.189771
     18          6           0       -3.898714    0.032318   -0.026525
     19          6           0       -3.374893   -1.045713   -0.738389
     20          6           0       -2.273094   -1.718573   -0.201877
     21          1           0       -0.862160   -1.842488    1.426074
     22          1           0       -1.837327    0.088040    2.653895
     23          1           0       -3.812329    1.303111    1.703603
     24          1           0       -3.824327   -1.337738   -1.679744
     25          1           0       -1.849365   -2.561423   -0.740488
     26          7           0       -5.065104    0.752462   -0.584491
     27          8           0       -5.514220    0.356581   -1.657903
     28          8           0       -5.508120    1.699156    0.062150
 ---------------------------------------------------------------------

 SCF Done:  E(RHF) =  -868.339856956     A.U. after   16 cycles
 E2 =    -0.2598502761D+01 EUMP2 =    -0.87093835971764D+03

 The electronic state is 1-A.
 Alpha  occ. eigenvalues --  -20.61672 -20.61610 -20.60526 -20.60516 -15.86691
 Alpha  occ. eigenvalues --  -15.85575 -11.31819 -11.30820 -11.28390 -11.28337
 Alpha  occ. eigenvalues --  -11.28038 -11.27436 -11.27354 -11.27322 -11.27298
 Alpha  occ. eigenvalues --  -11.26923 -11.26383 -11.26227  -1.60706  -1.59604
 Alpha  occ. eigenvalues --   -1.40272  -1.39160  -1.19965  -1.18973  -1.09398
 Alpha  occ. eigenvalues --   -1.08350  -1.05336  -1.04367  -0.96277  -0.95207
 Alpha  occ. eigenvalues --   -0.86744  -0.85745  -0.83127  -0.82055  -0.78203
 Alpha  occ. eigenvalues --   -0.77156  -0.72936  -0.72012  -0.71792  -0.71070
 Alpha  occ. eigenvalues --   -0.70929  -0.69953  -0.65624  -0.65334  -0.64604
 Alpha  occ. eigenvalues --   -0.64344  -0.62693  -0.61721  -0.55833  -0.54705
 Alpha  occ. eigenvalues --   -0.53672  -0.53427  -0.52699  -0.52436  -0.49685
 Alpha  occ. eigenvalues --   -0.49635  -0.48556  -0.48538  -0.45728  -0.44594
 Alpha  occ. eigenvalues --   -0.37922  -0.36930  -0.36892  -0.35999
 Alpha virt. eigenvalues --    0.04325   0.05383   0.10732   0.11649   0.15872
 Alpha virt. eigenvalues --    0.16897   0.20669   0.21995   0.26576   0.27331
 Alpha virt. eigenvalues --    0.27825   0.29047   0.30606   0.31421   0.32301

 Mulliken charges:
               1
     1  C   -0.169815
     2  C   -0.218340
     3  C   -0.170439
     4  C    0.158252
     5  C   -0.169442
     6  C   -0.218057
     7  H    0.228217
     8  H    0.225676
     9  H    0.276617
    10  H    0.270289
    11  H    0.225065
    12  N    0.492192
    13  O   -0.473864
    14  O   -0.455964
    15  C   -0.175076
    16  C   -0.224382
    17  C   -0.172083
    18  C    0.157234
    19  C   -0.171918
    20  C   -0.220273
    21  H    0.245396
    22  H    0.219470
    23  H    0.272627
    24  H    0.274702
    25  H    0.229581
    26  N    0.488194
    27  O   -0.461020
    28  O   -0.462838
 Sum of Mulliken charges =  -0.00000

 Dipole moment (field-independent basis, Debye):
    X=              5.8936    Y=              2.4103    Z=              1.7458  Tot=              6.6024
 Quadrupole moment (field-independent basis, Debye-Ang):
   XX=           -124.0200   YY=           -104.7978   ZZ=           -101.6513
   XY=             27.8115   XZ=            -10.8931   YZ=              3.3210

 Normal termination of Gaussian 16 at Fri May  7 03:29:49 2021.
