 Gaussian 16, Revision A.03,
 Gaussian 16:  EM64L-G16RevA.03 25-Dec-2016

 -------------
 #p 6-31g* mp2
 -------------

 ------------------------------------------------------
 Input file generated by CHIRIPA (05-May-2021 14:51:10)
 ------------------------------------------------------
 Symbolic Z-matrix:
 Charge =  0 Multiplicity = 1

                         Standard orientation:
 ---------------------------------------------------------------------
 Center     Atomic      Atomic             Coordinates (Angstroms)
 Number     Number       Type             X           Y           Z
 ---------------------------------------------------------------------
      1          6           0       -4.962410   -0.611662    0.209279
      2          6           0       -6.332521   -0.188128   -0.321192
      3          6           0       -7.456933   -1.117354    0.137100
      4          1           0       -4.749615   -1.637656   -0.120874
      5          1           0       -4.993891   -0.636848    1.307355
      6          1           0       -6.298067   -0.162410   -1.417899
      7          1           0       -6.541996    0.837045    0.010102
      8          1           0       -7.520166   -1.135743    1.229924
      9          1           0       -7.274850   -2.140876   -0.206191
     10          1           0       -8.427538   -0.796116   -0.253531
     11          6           0       -3.828103    0.307546   -0.240311
     12          6           0       -2.457992   -0.115988    0.290160
     13          6           0       -1.333581    0.813237   -0.168132
     14          1           0       -3.796623    0.332732   -1.338386
     15          1           0       -4.040899    1.333539    0.089842
     16          1           0       -2.248517   -1.141162   -0.041134
     17          1           0       -2.492447   -0.141707    1.386868
     18          1           0       -1.515663    1.836760    0.175159
     19          1           0       -1.270348    0.831626   -1.260956
     20          1           0       -0.362976    0.492000    0.222499
     21          6           0        3.922424    0.604996    0.408846
     22          6           0        3.112307    1.551587   -0.477529
     23          6           0        2.170986    2.451294    0.323866
     24          1           0        3.233145   -0.015340    0.997933
     25          1           0        4.504114    1.196468    1.129396
     26          1           0        2.533380    0.958563   -1.197100
     27          1           0        3.803594    2.169608   -1.064716
     28          1           0        2.736008    3.067566    1.030662
     29          1           0        1.458577    1.849640    0.897525
     30          1           0        1.601679    3.119832   -0.329439
     31          6           0        4.868090   -0.300879   -0.377815
     32          6           0        5.678207   -1.247470    0.508561
     33          6           0        6.619528   -2.147178   -0.292834
     34          1           0        4.286399   -0.892351   -1.098365
     35          1           0        5.557368    0.319456   -0.966902
     36          1           0        4.986919   -1.865492    1.095748
     37          1           0        6.257134   -0.654447    1.228131
     38          1           0        7.331936   -1.545524   -0.866494
     39          1           0        6.054505   -2.763450   -0.999630
     40          1           0        7.188834   -2.815716    0.360471
 ---------------------------------------------------------------------

 SCF Done:  E(RHF) =  -470.732949090     A.U. after   11 cycles
 E2 =    -0.1582459925D+01 EUMP2 =    -0.47231540901519D+03

 The electronic state is 1-A.
 Alpha  occ. eigenvalues --  -11.21606 -11.21605 -11.21587 -11.21542 -11.21410
 Alpha  occ. eigenvalues --  -11.21382 -11.21351 -11.21322 -11.21075 -11.21060
 Alpha  occ. eigenvalues --  -11.21055 -11.20942  -1.08438  -1.08398  -1.03551
 Alpha  occ. eigenvalues --   -1.03473  -0.96030  -0.95893  -0.87070  -0.86886
 Alpha  occ. eigenvalues --   -0.79638  -0.79512  -0.78249  -0.78212  -0.65067
 Alpha  occ. eigenvalues --   -0.65038  -0.60968  -0.60911  -0.59346  -0.59303
 Alpha  occ. eigenvalues --   -0.57640  -0.57509  -0.55327  -0.55198  -0.52745
 Alpha  occ. eigenvalues --   -0.52599  -0.52417  -0.52292  -0.49983  -0.49786
 Alpha  occ. eigenvalues --   -0.47954  -0.47825  -0.46674  -0.46538  -0.45790
 Alpha  occ. eigenvalues --   -0.45756  -0.45719  -0.45675  -0.43758  -0.43734
 Alpha virt. eigenvalues --    0.21568   0.22993   0.23632   0.24941   0.26467
 Alpha virt. eigenvalues --    0.26621   0.27244   0.27487   0.27695   0.29010
 Alpha virt. eigenvalues --    0.30171   0.31288   0.31512   0.32002   0.32135

 Mulliken charges:
               1
     1  C   -0.298241
     2  C   -0.299637
     3  C   -0.475702
     4  H    0.149576
     5  H    0.149534
     6  H    0.151918
     7  H    0.151987
     8  H    0.155194
     9  H    0.155153
    10  H    0.160274
    11  C   -0.298574
    12  C   -0.299991
    13  C   -0.477692
    14  H    0.149487
    15  H    0.149773
    16  H    0.151543
    17  H    0.151813
    18  H    0.156188
    19  H    0.154882
    20  H    0.163279
    21  C   -0.298172
    22  C   -0.301017
    23  C   -0.477373
    24  H    0.148715
    25  H    0.149579
    26  H    0.152617
    27  H    0.151771
    28  H    0.153962
    29  H    0.158650
    30  H    0.160663
    31  C   -0.298235
    32  C   -0.299624
    33  C   -0.475685
    34  H    0.149457
    35  H    0.149674
    36  H    0.151846
    37  H    0.151914
    38  H    0.155172
    39  H    0.155132
    40  H    0.160194
 Sum of Mulliken charges =  -0.00000

 Dipole moment (field-independent basis, Debye):
    X=             -0.0208    Y=              0.0106    Z=             -0.0046  Tot=              0.0238
 Quadrupole moment (field-independent basis, Debye-Ang):
   XX=            -85.7238   YY=            -84.8208   ZZ=            -84.3552
   XY=              0.3924   XZ=              0.4624   YZ=              0.3701

 Normal termination of Gaussian 16 at Wed May  5 18:11:03 2021.
