 Gaussian 16, Revision A.03,
 Gaussian 16:  EM64L-G16RevA.03 25-Dec-2016

 -------------
 #p 6-31g* mp2
 -------------

 ------------------------------------------------------
 Input file generated by CHIRIPA (05-May-2021 14:57:26)
 ------------------------------------------------------
 Symbolic Z-matrix:
 Charge =  0 Multiplicity = 1

                         Standard orientation:
 ---------------------------------------------------------------------
 Center     Atomic      Atomic             Coordinates (Angstroms)
 Number     Number       Type             X           Y           Z
 ---------------------------------------------------------------------
      1          6           0       -2.006800    0.846671    0.973671
      2          6           0       -3.057267    1.728570    0.699270
      3          6           0       -4.274840    1.250772    0.205536
      4          6           0       -4.408000   -0.121111   -0.003021
      5          6           0       -3.380045   -1.025017    0.260708
      6          6           0       -2.171252   -0.524889    0.753902
      7          1           0       -1.064371    1.226509    1.357006
      8          1           0       -2.932390    2.794238    0.868984
      9          1           0       -5.104533    1.911230   -0.015423
     10          1           0       -3.534436   -2.082100    0.081389
     11          1           0       -1.357171   -1.212118    0.966111
     12          7           0       -5.692342   -0.638753   -0.525429
     13          8           0       -5.784408   -1.851797   -0.700606
     14          8           0       -6.582626    0.178363   -0.749824
     15          6           0        3.142416    2.321775   -0.254850
     16          6           0        2.427493    1.262263    0.313342
     17          6           0        3.001467   -0.008577    0.413675
     18          6           0        4.298213   -0.185203   -0.066472
     19          6           0        5.036067    0.850436   -0.637711
     20          6           0        4.442130    2.112847   -0.727729
     21          1           0        2.688786    3.305720   -0.328785
     22          1           0        1.417951    1.421602    0.681419
     23          1           0        2.470548   -0.846445    0.849018
     24          1           0        6.040665    0.660868   -0.995852
     25          1           0        4.999713    2.933830   -1.169468
     26          7           0        4.916420   -1.526123    0.034286
     27          8           0        6.060344   -1.655786   -0.396135
     28          8           0        4.245341   -2.422084    0.541775
 ---------------------------------------------------------------------

 SCF Done:  E(RHF) =  -868.336354923     A.U. after   16 cycles
 E2 =    -0.2599669968D+01 EUMP2 =    -0.87093602489140D+03

 The electronic state is 1-A.
 Alpha  occ. eigenvalues --  -20.61361 -20.61348 -20.61146 -20.61139 -15.86418
 Alpha  occ. eigenvalues --  -15.86202 -11.31899 -11.31715 -11.28568 -11.28444
 Alpha  occ. eigenvalues --  -11.28290 -11.28268 -11.28267 -11.28213 -11.27661
 Alpha  occ. eigenvalues --  -11.27466 -11.27402 -11.27384  -1.60429  -1.60217
 Alpha  occ. eigenvalues --   -1.39981  -1.39766  -1.20093  -1.19912  -1.09465
 Alpha  occ. eigenvalues --   -1.09312  -1.05532  -1.05325  -0.96277  -0.96119
 Alpha  occ. eigenvalues --   -0.86926  -0.86736  -0.83127  -0.82930  -0.78154
 Alpha  occ. eigenvalues --   -0.77926  -0.72633  -0.72420  -0.71754  -0.71540
 Alpha  occ. eigenvalues --   -0.71205  -0.71118  -0.65755  -0.65596  -0.65564
 Alpha  occ. eigenvalues --   -0.65334  -0.62898  -0.62657  -0.56089  -0.55893
 Alpha  occ. eigenvalues --   -0.53828  -0.53683  -0.53595  -0.53429  -0.49401
 Alpha  occ. eigenvalues --   -0.49381  -0.49192  -0.49163  -0.45361  -0.45138
 Alpha  occ. eigenvalues --   -0.38066  -0.37945  -0.37128  -0.36910
 Alpha virt. eigenvalues --    0.04416   0.04579   0.10526   0.10726   0.15849
 Alpha virt. eigenvalues --    0.15942   0.17642   0.22038   0.24559   0.25839
 Alpha virt. eigenvalues --    0.27820   0.28712   0.29873   0.31361   0.32513

 Mulliken charges:
               1
     1  C   -0.174650
     2  C   -0.218458
     3  C   -0.170225
     4  C    0.159554
     5  C   -0.169809
     6  C   -0.218501
     7  H    0.219471
     8  H    0.222948
     9  H    0.277188
    10  H    0.278939
    11  H    0.223752
    12  N    0.487849
    13  O   -0.458017
    14  O   -0.459257
    15  C   -0.171160
    16  C   -0.218972
    17  C   -0.171339
    18  C    0.159381
    19  C   -0.169593
    20  C   -0.218042
    21  H    0.226438
    22  H    0.216342
    23  H    0.271991
    24  H    0.278156
    25  H    0.226158
    26  N    0.488233
    27  O   -0.457728
    28  O   -0.460649
 Sum of Mulliken charges =  -0.00000

 Dipole moment (field-independent basis, Debye):
    X=              2.3665    Y=              6.4893    Z=              1.3598  Tot=              7.0399
 Quadrupole moment (field-independent basis, Debye-Ang):
   XX=           -158.0318   YY=           -102.4707   ZZ=           -105.5015
   XY=             12.2486   XZ=            -11.7580   YZ=             -1.6286

 Normal termination of Gaussian 16 at Fri May  7 01:59:42 2021.
