 Gaussian 16, Revision A.03,
 Gaussian 16:  EM64L-G16RevA.03 25-Dec-2016

 -------------
 #p 6-31g* mp2
 -------------

 ------------------------------------------------------
 Input file generated by CHIRIPA (05-May-2021 14:57:23)
 ------------------------------------------------------
 Symbolic Z-matrix:
 Charge =  0 Multiplicity = 1

                         Standard orientation:
 ---------------------------------------------------------------------
 Center     Atomic      Atomic             Coordinates (Angstroms)
 Number     Number       Type             X           Y           Z
 ---------------------------------------------------------------------
      1          6           0        1.263913   -2.363640   -0.274608
      2          6           0        2.645803   -2.566364   -0.350806
      3          6           0        3.529176   -1.489694   -0.228407
      4          6           0        2.993817   -0.218013   -0.029639
      5          6           0        1.621952    0.016136    0.050673
      6          6           0        0.757291   -1.075309   -0.074464
      7          1           0        0.584956   -3.205762   -0.370754
      8          1           0        3.042082   -3.565797   -0.506181
      9          1           0        4.603352   -1.618249   -0.283520
     10          1           0        1.256742    1.024033    0.206181
     11          1           0       -0.315445   -0.914896   -0.014882
     12          7           0        3.919099    0.929629    0.101389
     13          8           0        3.422270    2.040177    0.275977
     14          8           0        5.123645    0.696873    0.027019
     15          6           0       -1.718437    2.653499   -0.191700
     16          6           0       -1.634342    1.956033    1.017842
     17          6           0       -2.252594    0.710634    1.163765
     18          6           0       -2.949875    0.189990    0.074720
     19          6           0       -3.051687    0.860592   -1.143154
     20          6           0       -2.425594    2.104520   -1.266443
     21          1           0       -1.235119    3.620383   -0.296265
     22          1           0       -1.085827    2.379942    1.854189
     23          1           0       -2.203396    0.149237    2.088876
     24          1           0       -3.605565    0.412371   -1.959079
     25          1           0       -2.492570    2.643934   -2.206970
     26          7           0       -3.608541   -1.127679    0.217221
     27          8           0       -4.216859   -1.564710   -0.757247
     28          8           0       -3.504013   -1.698485    1.300684
 ---------------------------------------------------------------------

 SCF Done:  E(RHF) =  -868.338075729     A.U. after   16 cycles
 E2 =    -0.2602705443D+01 EUMP2 =    -0.87094078117203D+03

 The electronic state is 1-A.
 Alpha  occ. eigenvalues --  -20.61759 -20.61753 -20.60962 -20.60931 -15.86808
 Alpha  occ. eigenvalues --  -15.85994 -11.32169 -11.31175 -11.28736 -11.28712
 Alpha  occ. eigenvalues --  -11.28380 -11.27719 -11.27692 -11.27683 -11.27643
 Alpha  occ. eigenvalues --  -11.27345 -11.26676 -11.26551  -1.60848  -1.60025
 Alpha  occ. eigenvalues --   -1.40391  -1.39586  -1.20384  -1.19316  -1.09730
 Alpha  occ. eigenvalues --   -1.08733  -1.05739  -1.04685  -0.96553  -0.95603
 Alpha  occ. eigenvalues --   -0.87111  -0.86093  -0.83355  -0.82449  -0.78428
 Alpha  occ. eigenvalues --   -0.77549  -0.73001  -0.72240  -0.72199  -0.71351
 Alpha  occ. eigenvalues --   -0.71344  -0.70400  -0.65963  -0.65647  -0.64959
 Alpha  occ. eigenvalues --   -0.64712  -0.63032  -0.62125  -0.56123  -0.55235
 Alpha  occ. eigenvalues --   -0.54047  -0.53746  -0.53039  -0.52677  -0.49775
 Alpha  occ. eigenvalues --   -0.49765  -0.48987  -0.48949  -0.45779  -0.45032
 Alpha  occ. eigenvalues --   -0.38303  -0.37413  -0.37251  -0.36249
 Alpha virt. eigenvalues --    0.04021   0.05002   0.10121   0.11417   0.15518
 Alpha virt. eigenvalues --    0.16565   0.20614   0.21696   0.26363   0.27483
 Alpha virt. eigenvalues --    0.27590   0.28609   0.30197   0.31183   0.31739

 Mulliken charges:
               1
     1  C   -0.172943
     2  C   -0.218862
     3  C   -0.171413
     4  C    0.159315
     5  C   -0.179579
     6  C   -0.222840
     7  H    0.232083
     8  H    0.224197
     9  H    0.274867
    10  H    0.269946
    11  H    0.232697
    12  N    0.488593
    13  O   -0.466244
    14  O   -0.459438
    15  C   -0.172881
    16  C   -0.221851
    17  C   -0.184997
    18  C    0.150881
    19  C   -0.171996
    20  C   -0.216500
    21  H    0.236020
    22  H    0.233050
    23  H    0.279288
    24  H    0.278735
    25  H    0.229355
    26  N    0.487898
    27  O   -0.457666
    28  O   -0.459716
 Sum of Mulliken charges =  -0.00000

 Dipole moment (field-independent basis, Debye):
    X=             -1.2406    Y=              0.7186    Z=             -1.0291  Tot=              1.7648
 Quadrupole moment (field-independent basis, Debye-Ang):
   XX=           -135.3173   YY=            -99.4361   ZZ=           -101.0008
   XY=            -28.2985   XZ=              1.7657   YZ=              0.4915

 Normal termination of Gaussian 16 at Fri May  7 03:24:12 2021.
