 Gaussian 16, Revision A.03,
 Gaussian 16:  EM64L-G16RevA.03 25-Dec-2016

 -------------
 #p 6-31g* mp2
 -------------

 ------------------------------------------------------
 Input file generated by CHIRIPA (05-May-2021 14:51:10)
 ------------------------------------------------------
 Symbolic Z-matrix:
 Charge =  0 Multiplicity = 1

                         Standard orientation:
 ---------------------------------------------------------------------
 Center     Atomic      Atomic             Coordinates (Angstroms)
 Number     Number       Type             X           Y           Z
 ---------------------------------------------------------------------
      1          6           0       -2.799573    1.114578   -0.253377
      2          6           0       -3.154716    2.525861    0.215813
      3          6           0       -2.167923    3.581076   -0.284740
      4          1           0       -1.786882    0.864421    0.091331
      5          1           0       -2.769006    1.097654   -1.351636
      6          1           0       -3.185961    2.539787    1.312830
      7          1           0       -4.166753    2.772614   -0.129889
      8          1           0       -2.142548    3.596403   -1.379145
      9          1           0       -1.156183    3.362252    0.071771
     10          1           0       -2.440735    4.582558    0.062345
     11          6           0       -3.776835    0.048609    0.238961
     12          6           0       -3.421691   -1.362674   -0.230229
     13          6           0       -4.408485   -2.417889    0.270324
     14          1           0       -3.807401    0.065534    1.337220
     15          1           0       -4.789526    0.298766   -0.105747
     16          1           0       -2.409654   -1.609427    0.115473
     17          1           0       -3.390446   -1.376599   -1.327246
     18          1           0       -5.420224   -2.199065   -0.086187
     19          1           0       -4.433859   -2.433216    1.364729
     20          1           0       -4.135672   -3.419370   -0.076761
     21          6           0        3.965830   -0.344221   -0.253385
     22          6           0        4.530568    0.846336    0.522263
     23          6           0        5.886608    1.309680   -0.010900
     24          1           0        4.682420   -1.175776   -0.209076
     25          1           0        3.870018   -0.070308   -1.313189
     26          1           0        4.623988    0.570717    1.580527
     27          1           0        3.812465    1.675088    0.476263
     28          1           0        5.805388    1.611156   -1.060242
     29          1           0        6.621522    0.500510    0.050297
     30          1           0        6.271854    2.161617    0.558001
     31          6           0        2.610577   -0.818965    0.267801
     32          6           0        2.045840   -2.009523   -0.507847
     33          6           0        0.689800   -2.472868    0.025315
     34          1           0        2.706389   -1.092880    1.327606
     35          1           0        1.893988    0.012588    0.223492
     36          1           0        2.763942   -2.838274   -0.461847
     37          1           0        1.952419   -1.733905   -1.566111
     38          1           0       -0.045115   -1.663697   -0.035881
     39          1           0        0.771019   -2.774342    1.074657
     40          1           0        0.304553   -3.324805   -0.543586
 ---------------------------------------------------------------------

 SCF Done:  E(RHF) =  -470.733232525     A.U. after   11 cycles
 E2 =    -0.1582791556D+01 EUMP2 =    -0.47231602408148D+03

 The electronic state is 1-A.
 Alpha  occ. eigenvalues --  -11.21620 -11.21615 -11.21612 -11.21517 -11.21424
 Alpha  occ. eigenvalues --  -11.21418 -11.21364 -11.21340 -11.21097 -11.21078
 Alpha  occ. eigenvalues --  -11.21077 -11.21021  -1.08449  -1.08421  -1.03552
 Alpha  occ. eigenvalues --   -1.03505  -0.95999  -0.95967  -0.87031  -0.86970
 Alpha  occ. eigenvalues --   -0.79668  -0.79527  -0.78295  -0.78204  -0.65127
 Alpha  occ. eigenvalues --   -0.65012  -0.61013  -0.60850  -0.59368  -0.59332
 Alpha  occ. eigenvalues --   -0.57607  -0.57577  -0.55302  -0.55249  -0.52702
 Alpha  occ. eigenvalues --   -0.52656  -0.52452  -0.52369  -0.50025  -0.49860
 Alpha  occ. eigenvalues --   -0.48031  -0.47819  -0.46770  -0.46520  -0.45934
 Alpha  occ. eigenvalues --   -0.45751  -0.45733  -0.45434  -0.43800  -0.43767
 Alpha virt. eigenvalues --    0.21210   0.23101   0.23874   0.24232   0.25372
 Alpha virt. eigenvalues --    0.26896   0.27014   0.27587   0.27840   0.29173
 Alpha virt. eigenvalues --    0.30767   0.31585   0.31665   0.31777   0.32160

 Mulliken charges:
               1
     1  C   -0.299970
     2  C   -0.299609
     3  C   -0.475675
     4  H    0.149710
     5  H    0.149497
     6  H    0.152173
     7  H    0.152259
     8  H    0.155115
     9  H    0.154783
    10  H    0.160442
    11  C   -0.297804
    12  C   -0.307840
    13  C   -0.475091
    14  H    0.149431
    15  H    0.149563
    16  H    0.161783
    17  H    0.151189
    18  H    0.154732
    19  H    0.154998
    20  H    0.160270
    21  C   -0.298307
    22  C   -0.299675
    23  C   -0.475723
    24  H    0.149740
    25  H    0.149758
    26  H    0.151857
    27  H    0.151932
    28  H    0.155295
    29  H    0.155181
    30  H    0.160303
    31  C   -0.298537
    32  C   -0.299487
    33  C   -0.481494
    34  H    0.149420
    35  H    0.149283
    36  H    0.151960
    37  H    0.152339
    38  H    0.160608
    39  H    0.154827
    40  H    0.160759
 Sum of Mulliken charges =  -0.00000

 Dipole moment (field-independent basis, Debye):
    X=              0.0103    Y=             -0.0094    Z=             -0.0012  Tot=              0.0140
 Quadrupole moment (field-independent basis, Debye-Ang):
   XX=            -85.6475   YY=            -85.3137   ZZ=            -83.8160
   XY=             -1.3969   XZ=              1.2070   YZ=             -0.1604

 Normal termination of Gaussian 16 at Wed May  5 19:46:59 2021.
