 Gaussian 16, Revision A.03,
 Gaussian 16:  EM64L-G16RevA.03 25-Dec-2016

 -------------
 #p 6-31g* mp2
 -------------

 ------------------------------------------------------
 Input file generated by CHIRIPA (05-May-2021 14:55:19)
 ------------------------------------------------------
 Symbolic Z-matrix:
 Charge =  0 Multiplicity = 1

                         Standard orientation:
 ---------------------------------------------------------------------
 Center     Atomic      Atomic             Coordinates (Angstroms)
 Number     Number       Type             X           Y           Z
 ---------------------------------------------------------------------
      1          6           0        2.150508   -2.458663    1.141446
      2          6           0        3.416531   -1.865055    1.104898
      3          6           0        3.626912   -0.685007    0.385332
      4          6           0        2.544027   -0.123099   -0.289139
      5          6           0        1.270854   -0.690568   -0.271842
      6          6           0        1.083591   -1.870562    0.454172
      7          1           0        1.996058   -3.375331    1.702927
      8          1           0        4.246952   -2.319559    1.637694
      9          1           0        4.596610   -0.204316    0.340169
     10          1           0        0.462432   -0.214075   -0.812976
     11          1           0        0.099289   -2.329350    0.480788
     12          7           0        2.754511    1.126136   -1.054324
     13          8           0        1.784124    1.601403   -1.640078
     14          8           0        3.885889    1.606364   -1.053834
     15          6           0       -3.092765    0.873801    0.812242
     16          6           0       -1.896062    1.810063    0.641070
     17          6           0       -1.670455    2.709405    1.856832
     18          1           0       -3.994685    1.472416    0.999715
     19          1           0       -2.938647    0.252634    1.705437
     20          1           0       -2.051749    2.428315   -0.252319
     21          1           0       -0.996921    1.209158    0.453792
     22          1           0       -1.489723    2.107313    2.753169
     23          1           0       -2.550546    3.333396    2.043046
     24          1           0       -0.810133    3.370491    1.713051
     25          6           0       -3.331138   -0.031590   -0.394892
     26          6           0       -4.527841   -0.967852   -0.223719
     27          6           0       -4.753447   -1.867195   -1.439481
     28          1           0       -3.485255    0.589577   -1.288086
     29          1           0       -2.429218   -0.630205   -0.582365
     30          1           0       -5.426982   -0.366948   -0.036441
     31          1           0       -4.372153   -1.586103    0.669669
     32          1           0       -3.873357   -2.491186   -1.625696
     33          1           0       -4.934179   -1.265102   -2.335819
     34          1           0       -5.613768   -2.528281   -1.295700
 ---------------------------------------------------------------------

 SCF Done:  E(RHF) =  -669.535275594     A.U. after   15 cycles
 E2 =    -0.2092377266D+01 EUMP2 =    -0.67162765286014D+03

 The electronic state is 1-A.
 Alpha  occ. eigenvalues --  -20.60783 -20.60776 -15.85832 -11.31215 -11.27788
 Alpha  occ. eigenvalues --  -11.27760 -11.27535 -11.26815 -11.26804 -11.22005
 Alpha  occ. eigenvalues --  -11.21842 -11.21639 -11.21579 -11.21446 -11.20995
 Alpha  occ. eigenvalues --   -1.59855  -1.39407  -1.19394  -1.08784  -1.08724
 Alpha  occ. eigenvalues --   -1.04802  -1.03732  -0.96195  -0.95616  -0.87209
 Alpha  occ. eigenvalues --   -0.86198  -0.82448  -0.79812  -0.78546  -0.77478
 Alpha  occ. eigenvalues --   -0.72051  -0.71178  -0.70509  -0.65398  -0.65040
 Alpha  occ. eigenvalues --   -0.64800  -0.62165  -0.61120  -0.59557  -0.57787
 Alpha  occ. eigenvalues --   -0.55502  -0.55303  -0.53131  -0.52935  -0.52823
 Alpha  occ. eigenvalues --   -0.52602  -0.50150  -0.48814  -0.48806  -0.48109
 Alpha  occ. eigenvalues --   -0.46867  -0.46064  -0.45970  -0.44796  -0.44012
 Alpha  occ. eigenvalues --   -0.37372  -0.36383
 Alpha virt. eigenvalues --    0.05000   0.11166   0.16507   0.19332   0.22920
 Alpha virt. eigenvalues --    0.24114   0.24659   0.26733   0.27671   0.27966
 Alpha virt. eigenvalues --    0.29875   0.30777   0.31394   0.31698   0.32022

 Mulliken charges:
               1
     1  C   -0.170668
     2  C   -0.218312
     3  C   -0.170751
     4  C    0.158357
     5  C   -0.173778
     6  C   -0.220822
     7  H    0.225735
     8  H    0.223659
     9  H    0.275743
    10  H    0.280851
    11  H    0.223839
    12  N    0.488158
    13  O   -0.460257
    14  O   -0.460388
    15  C   -0.298928
    16  C   -0.302392
    17  C   -0.476526
    18  H    0.152081
    19  H    0.146213
    20  H    0.159331
    21  H    0.149568
    22  H    0.152236
    23  H    0.155128
    24  H    0.166599
    25  C   -0.297854
    26  C   -0.299841
    27  C   -0.475323
    28  H    0.155507
    29  H    0.137292
    30  H    0.155076
    31  H    0.149394
    32  H    0.151490
    33  H    0.158205
    34  H    0.161378
 Sum of Mulliken charges =  -0.00000

 Dipole moment (field-independent basis, Debye):
    X=             -0.7815    Y=             -4.2683    Z=              2.6634  Tot=              5.0915
 Quadrupole moment (field-independent basis, Debye-Ang):
   XX=            -93.1360   YY=            -94.0733   ZZ=            -97.2357
   XY=            -12.1542   XZ=              8.9048   YZ=             -0.0603

 Normal termination of Gaussian 16 at Thu May  6 01:19:16 2021.
