 Gaussian 16, Revision A.03,
 Gaussian 16:  EM64L-G16RevA.03 25-Dec-2016

 -------------
 #p 6-31g* mp2
 -------------

 ------------------------------------------------------
 Input file generated by CHIRIPA (05-May-2021 14:57:21)
 ------------------------------------------------------
 Symbolic Z-matrix:
 Charge =  0 Multiplicity = 1

                         Standard orientation:
 ---------------------------------------------------------------------
 Center     Atomic      Atomic             Coordinates (Angstroms)
 Number     Number       Type             X           Y           Z
 ---------------------------------------------------------------------
      1          6           0       -5.204823    1.207840   -0.670760
      2          6           0       -4.409939    0.561313   -1.622958
      3          6           0       -3.371751   -0.285812   -1.224094
      4          6           0       -3.155404   -0.464454    0.141399
      5          6           0       -3.930067    0.165553    1.114168
      6          6           0       -4.962777    1.008249    0.692361
      7          1           0       -6.009185    1.864187   -0.989518
      8          1           0       -4.595621    0.714448   -2.682258
      9          1           0       -2.741113   -0.798814   -1.940016
     10          1           0       -3.720791   -0.006803    2.162936
     11          1           0       -5.578495    1.509043    1.434077
     12          7           0       -2.059220   -1.358923    0.575802
     13          8           0       -1.889033   -1.499673    1.784877
     14          8           0       -1.390976   -1.902321   -0.301013
     15          6           0        4.070979   -2.075963   -0.385067
     16          6           0        5.022320   -1.075176   -0.161693
     17          6           0        4.626564    0.254087    0.014336
     18          6           0        3.265021    0.548381   -0.039326
     19          6           0        2.293202   -0.426343   -0.260172
     20          6           0        2.711852   -1.748930   -0.433508
     21          1           0        4.387303   -3.105973   -0.520764
     22          1           0        6.078520   -1.326237   -0.123574
     23          1           0        5.341906    1.048616    0.188769
     24          1           0        1.247554   -0.145336   -0.292910
     25          1           0        1.970811   -2.524084   -0.606824
     26          7           0        2.833932    1.952078    0.145603
     27          8           0        1.628312    2.185402    0.093885
     28          8           0        3.709831    2.792393    0.338765
 ---------------------------------------------------------------------

 SCF Done:  E(RHF) =  -868.340774682     A.U. after   16 cycles
 E2 =    -0.2598422287D+01 EUMP2 =    -0.87093919696848D+03

 The electronic state is 1-A.
 Alpha  occ. eigenvalues --  -20.61362 -20.61300 -20.60132 -20.60127 -15.86343
 Alpha  occ. eigenvalues --  -15.85173 -11.31341 -11.30287 -11.27894 -11.27857
 Alpha  occ. eigenvalues --  -11.27562 -11.26893 -11.26823 -11.26801 -11.26693
 Alpha  occ. eigenvalues --  -11.26543 -11.25894 -11.25620  -1.60387  -1.59209
 Alpha  occ. eigenvalues --   -1.39951  -1.38770  -1.19482  -1.18435  -1.08950
 Alpha  occ. eigenvalues --   -1.07891  -1.04838  -1.03769  -0.95846  -0.94764
 Alpha  occ. eigenvalues --   -0.86257  -0.85199  -0.82699  -0.81581  -0.77780
 Alpha  occ. eigenvalues --   -0.76652  -0.72581  -0.71681  -0.71401  -0.70604
 Alpha  occ. eigenvalues --   -0.70524  -0.69558  -0.65149  -0.64849  -0.64079
 Alpha  occ. eigenvalues --   -0.63755  -0.62198  -0.61098  -0.55364  -0.54333
 Alpha  occ. eigenvalues --   -0.53170  -0.52936  -0.52157  -0.51838  -0.49355
 Alpha  occ. eigenvalues --   -0.49297  -0.48166  -0.48134  -0.45425  -0.44229
 Alpha  occ. eigenvalues --   -0.37436  -0.36444  -0.36413  -0.35366
 Alpha virt. eigenvalues --    0.04715   0.05832   0.11243   0.12268   0.16264
 Alpha virt. eigenvalues --    0.17379   0.21344   0.22451   0.27289   0.27951
 Alpha virt. eigenvalues --    0.28597   0.29147   0.30991   0.31951   0.32435

 Mulliken charges:
               1
     1  C   -0.168951
     2  C   -0.217693
     3  C   -0.169270
     4  C    0.159081
     5  C   -0.168388
     6  C   -0.217940
     7  H    0.227084
     8  H    0.224345
     9  H    0.273287
    10  H    0.276462
    11  H    0.224992
    12  N    0.489133
    13  O   -0.454901
    14  O   -0.473238
    15  C   -0.171731
    16  C   -0.219060
    17  C   -0.172736
    18  C    0.158083
    19  C   -0.170807
    20  C   -0.221201
    21  H    0.223415
    22  H    0.219700
    23  H    0.271909
    24  H    0.278632
    25  H    0.238560
    26  N    0.488404
    27  O   -0.463538
    28  O   -0.463634
 Sum of Mulliken charges =  -0.00000

 Dipole moment (field-independent basis, Debye):
    X=             -2.8106    Y=             -1.8573    Z=             -2.1229  Tot=              3.9819
 Quadrupole moment (field-independent basis, Debye-Ang):
   XX=            -66.6600   YY=           -114.0941   ZZ=           -101.2958
   XY=            -23.2525   XZ=              1.4188   YZ=              2.1080

 Normal termination of Gaussian 16 at Thu May  6 06:30:30 2021.
