 Gaussian 16, Revision A.03,
 Gaussian 16:  EM64L-G16RevA.03 25-Dec-2016

 -------------
 #p 6-31g* mp2
 -------------

 ------------------------------------------------------
 Input file generated by CHIRIPA (05-May-2021 14:55:19)
 ------------------------------------------------------
 Symbolic Z-matrix:
 Charge =  0 Multiplicity = 1

                         Standard orientation:
 ---------------------------------------------------------------------
 Center     Atomic      Atomic             Coordinates (Angstroms)
 Number     Number       Type             X           Y           Z
 ---------------------------------------------------------------------
      1          6           0       -1.720365    2.366670    0.641845
      2          6           0       -1.551595    1.949861   -0.682658
      3          6           0       -1.799887    0.623035   -1.046570
      4          6           0       -2.217574   -0.264338   -0.055916
      5          6           0       -2.394833    0.120529    1.272145
      6          6           0       -2.140704    1.452286    1.613307
      7          1           0       -1.525219    3.399295    0.915705
      8          1           0       -1.225257    2.657796   -1.439213
      9          1           0       -1.677269    0.273523   -2.064521
     10          1           0       -2.721223   -0.608225    2.004133
     11          1           0       -2.272616    1.773172    2.642713
     12          7           0       -2.483520   -1.671599   -0.429131
     13          8           0       -2.850592   -2.433916    0.462366
     14          8           0       -2.319859   -1.985646   -1.606087
     15          6           0        2.963250   -0.534764    0.460458
     16          6           0        3.099257   -1.878123   -0.257088
     17          6           0        3.461356   -3.021125    0.691713
     18          1           0        3.906929   -0.302812    0.972915
     19          1           0        2.195912   -0.620602    1.242263
     20          1           0        3.865132   -1.789382   -1.038227
     21          1           0        2.155206   -2.106813   -0.768055
     22          1           0        2.694233   -3.138436    1.463957
     23          1           0        4.413874   -2.819203    1.192251
     24          1           0        3.553546   -3.972104    0.157861
     25          6           0        2.601534    0.617719   -0.474781
     26          6           0        2.465526    1.961078    0.242767
     27          6           0        2.103428    3.104080   -0.706036
     28          1           0        3.368871    0.703558   -1.256586
     29          1           0        1.657854    0.385766   -0.987237
     30          1           0        3.409576    2.189768    0.753733
     31          1           0        1.699651    1.872338    1.023904
     32          1           0        1.150910    2.902157   -1.206574
     33          1           0        2.870550    3.221391   -1.478280
     34          1           0        2.011237    4.055060   -0.172184
 ---------------------------------------------------------------------

 SCF Done:  E(RHF) =  -669.535255335     A.U. after   15 cycles
 E2 =    -0.2093442292D+01 EUMP2 =    -0.67162869762659D+03

 The electronic state is 1-A.
 Alpha  occ. eigenvalues --  -20.60871 -20.60866 -15.85926 -11.31324 -11.27893
 Alpha  occ. eigenvalues --  -11.27883 -11.27628 -11.26911 -11.26899 -11.21954
 Alpha  occ. eigenvalues --  -11.21682 -11.21551 -11.21477 -11.21398 -11.20879
 Alpha  occ. eigenvalues --   -1.59947  -1.39499  -1.19500  -1.08889  -1.08552
 Alpha  occ. eigenvalues --   -1.04910  -1.03677  -0.96155  -0.95708  -0.87183
 Alpha  occ. eigenvalues --   -0.86294  -0.82545  -0.79761  -0.78339  -0.77589
 Alpha  occ. eigenvalues --   -0.72142  -0.71272  -0.70586  -0.65252  -0.65146
 Alpha  occ. eigenvalues --   -0.64887  -0.62284  -0.61064  -0.59548  -0.57744
 Alpha  occ. eigenvalues --   -0.55500  -0.55355  -0.53203  -0.53040  -0.52848
 Alpha  occ. eigenvalues --   -0.52532  -0.50086  -0.48901  -0.48896  -0.48065
 Alpha  occ. eigenvalues --   -0.46778  -0.45885  -0.45789  -0.44896  -0.43922
 Alpha  occ. eigenvalues --   -0.37443  -0.36464
 Alpha virt. eigenvalues --    0.04920   0.11036   0.16338   0.20564   0.22883
 Alpha virt. eigenvalues --    0.24291   0.25796   0.26658   0.27190   0.28251
 Alpha virt. eigenvalues --    0.29010   0.29856   0.31393   0.31883   0.31982

 Mulliken charges:
               1
     1  C   -0.170004
     2  C   -0.216515
     3  C   -0.172757
     4  C    0.158378
     5  C   -0.170859
     6  C   -0.219212
     7  H    0.227482
     8  H    0.225607
     9  H    0.276391
    10  H    0.276099
    11  H    0.224276
    12  N    0.487976
    13  O   -0.459998
    14  O   -0.460103
    15  C   -0.298555
    16  C   -0.301025
    17  C   -0.475777
    18  H    0.148777
    19  H    0.149580
    20  H    0.151206
    21  H    0.156826
    22  H    0.156626
    23  H    0.153242
    24  H    0.162626
    25  C   -0.299335
    26  C   -0.299094
    27  C   -0.477939
    28  H    0.149445
    29  H    0.149984
    30  H    0.152727
    31  H    0.151726
    32  H    0.147996
    33  H    0.158110
    34  H    0.156092
 Sum of Mulliken charges =  -0.00000

 Dipole moment (field-independent basis, Debye):
    X=              0.8602    Y=              4.8622    Z=              1.3402  Tot=              5.1163
 Quadrupole moment (field-independent basis, Debye-Ang):
   XX=            -98.4817   YY=            -98.7271   ZZ=            -90.7650
   XY=            -10.9279   XZ=             -4.6985   YZ=             -1.1298

 Normal termination of Gaussian 16 at Wed May  5 17:22:37 2021.
