 Gaussian 16, Revision A.03,
 Gaussian 16:  EM64L-G16RevA.03 25-Dec-2016

 -------------
 #p 6-31g* mp2
 -------------

 ------------------------------------------------------
 Input file generated by CHIRIPA (05-May-2021 14:51:08)
 ------------------------------------------------------
 Symbolic Z-matrix:
 Charge =  0 Multiplicity = 1

                         Standard orientation:
 ---------------------------------------------------------------------
 Center     Atomic      Atomic             Coordinates (Angstroms)
 Number     Number       Type             X           Y           Z
 ---------------------------------------------------------------------
      1          6           0        2.154582   -1.026286   -0.336080
      2          6           0        1.388196   -2.066779    0.481239
      3          6           0        0.043210   -2.436649   -0.144864
      4          1           0        1.536731   -0.123932   -0.440786
      5          1           0        2.316009   -1.414122   -1.351422
      6          1           0        1.229471   -1.677663    1.495148
      7          1           0        2.008019   -2.966690    0.584175
      8          1           0        0.186086   -2.849167   -1.148864
      9          1           0       -0.596886   -1.552816   -0.232714
     10          1           0       -0.487819   -3.181786    0.455669
     11          6           0        3.501200   -0.646263    0.277052
     12          6           0        4.267586    0.394231   -0.540267
     13          6           0        5.612571    0.764100    0.085836
     14          1           0        3.339772   -0.258427    1.292394
     15          1           0        4.119050   -1.548617    0.381758
     16          1           0        3.647762    1.294141   -0.643202
     17          1           0        4.426310    0.005114   -1.554176
     18          1           0        6.252667   -0.119732    0.173687
     19          1           0        5.469695    1.176619    1.089836
     20          1           0        6.143600    1.509237   -0.514697
     21          6           0       -2.409376    1.392984   -0.284095
     22          6           0       -1.268372    1.872857    0.613580
     23          6           0       -0.440173    2.986737   -0.027631
     24          1           0       -1.993536    1.040077   -1.237762
     25          1           0       -3.061298    2.244527   -0.523402
     26          1           0       -0.619571    1.020386    0.852253
     27          1           0       -1.686959    2.224486    1.565294
     28          1           0       -1.068973    3.854829   -0.250401
     29          1           0        0.004479    2.643888   -0.967493
     30          1           0        0.369925    3.314728    0.631173
     31          6           0       -3.246406    0.279564    0.343123
     32          6           0       -4.387409   -0.200309   -0.554553
     33          6           0       -5.215608   -1.314188    0.086659
     34          1           0       -2.594483   -0.571979    0.582430
     35          1           0       -3.662245    0.632471    1.296789
     36          1           0       -3.968822   -0.551937   -1.506266
     37          1           0       -5.036210    0.652162   -0.793226
     38          1           0       -5.660261   -0.971339    1.026520
     39          1           0       -4.586808   -2.182280    0.309429
     40          1           0       -6.025706   -1.642180   -0.572145
 ---------------------------------------------------------------------

 SCF Done:  E(RHF) =  -470.733082222     A.U. after   11 cycles
 E2 =    -0.1584066985D+01 EUMP2 =    -0.47231714920679D+03

 The electronic state is 1-A.
 Alpha  occ. eigenvalues --  -11.21666 -11.21661 -11.21608 -11.21581 -11.21439
 Alpha  occ. eigenvalues --  -11.21421 -11.21376 -11.21335 -11.21143 -11.21136
 Alpha  occ. eigenvalues --  -11.21075 -11.21043  -1.08492  -1.08429  -1.03575
 Alpha  occ. eigenvalues --   -1.03546  -0.96050  -0.95973  -0.87050  -0.87006
 Alpha  occ. eigenvalues --   -0.79640  -0.79611  -0.78315  -0.78228  -0.65362
 Alpha  occ. eigenvalues --   -0.64877  -0.61040  -0.60871  -0.59394  -0.59355
 Alpha  occ. eigenvalues --   -0.57656  -0.57592  -0.55543  -0.55078  -0.52717
 Alpha  occ. eigenvalues --   -0.52697  -0.52474  -0.52385  -0.50058  -0.49858
 Alpha  occ. eigenvalues --   -0.47979  -0.47918  -0.46742  -0.46651  -0.45972
 Alpha  occ. eigenvalues --   -0.45771  -0.45764  -0.45407  -0.43820  -0.43802
 Alpha virt. eigenvalues --    0.19096   0.22625   0.23976   0.24201   0.26184
 Alpha virt. eigenvalues --    0.26705   0.26841   0.27723   0.28748   0.29651
 Alpha virt. eigenvalues --    0.30833   0.31384   0.31660   0.31716   0.32341

 Mulliken charges:
               1
     1  C   -0.303056
     2  C   -0.299444
     3  C   -0.483754
     4  H    0.153626
     5  H    0.149615
     6  H    0.152200
     7  H    0.152525
     8  H    0.155580
     9  H    0.162339
    10  H    0.160245
    11  C   -0.298038
    12  C   -0.300089
    13  C   -0.475718
    14  H    0.149639
    15  H    0.149744
    16  H    0.152672
    17  H    0.151821
    18  H    0.155135
    19  H    0.155223
    20  H    0.160373
    21  C   -0.299079
    22  C   -0.304356
    23  C   -0.476587
    24  H    0.149965
    25  H    0.150133
    26  H    0.154643
    27  H    0.152589
    28  H    0.155864
    29  H    0.155815
    30  H    0.160049
    31  C   -0.304488
    32  C   -0.299378
    33  C   -0.475878
    34  H    0.155371
    35  H    0.149728
    36  H    0.152274
    37  H    0.151763
    38  H    0.154948
    39  H    0.155811
    40  H    0.160175
 Sum of Mulliken charges =  -0.00000

 Dipole moment (field-independent basis, Debye):
    X=              0.0032    Y=             -0.0010    Z=             -0.0023  Tot=              0.0040
 Quadrupole moment (field-independent basis, Debye-Ang):
   XX=            -85.6596   YY=            -84.4842   ZZ=            -84.5503
   XY=             -1.7060   XZ=             -0.5984   YZ=              0.8382

 Normal termination of Gaussian 16 at Thu May  6 08:26:33 2021.
