 Gaussian 16, Revision A.03,
 Gaussian 16:  EM64L-G16RevA.03 25-Dec-2016

 -------------
 #p 6-31g* mp2
 -------------

 ------------------------------------------------------
 Input file generated by CHIRIPA (05-May-2021 14:53:17)
 ------------------------------------------------------
 Symbolic Z-matrix:
 Charge =  0 Multiplicity = 1

                         Standard orientation:
 ---------------------------------------------------------------------
 Center     Atomic      Atomic             Coordinates (Angstroms)
 Number     Number       Type             X           Y           Z
 ---------------------------------------------------------------------
      1          6           0        4.043923   -0.244341    0.334286
      2          6           0        4.869577   -1.080906   -0.643691
      3          6           0        5.496221   -2.311087    0.013398
      4          1           0        4.684705    0.070564    1.169259
      5          1           0        3.253254   -0.872916    0.766872
      6          1           0        5.657594   -0.450572   -1.075342
      7          1           0        4.226802   -1.393696   -1.476530
      8          1           0        4.720896   -2.963034    0.428654
      9          1           0        6.159817   -2.014551    0.832121
     10          1           0        6.081970   -2.894695   -0.703651
     11          6           0        3.411038    0.988919   -0.307784
     12          6           0        2.585385    1.825484    0.670194
     13          6           0        1.958741    3.055665    0.013105
     14          1           0        4.201708    1.617494   -0.740369
     15          1           0        2.770257    0.674014   -1.142756
     16          1           0        3.228159    2.138274    1.503032
     17          1           0        1.797368    1.195150    1.101845
     18          1           0        1.295144    2.759129   -0.805618
     19          1           0        2.734066    3.707612   -0.402151
     20          1           0        1.372991    3.639273    0.730154
     21          6           0       -3.037023    2.224752   -0.158864
     22          6           0       -1.796634    1.592139   -0.025613
     23          6           0       -1.715466    0.198928    0.057586
     24          6           0       -2.900017   -0.534050    0.004005
     25          6           0       -4.150819    0.067008   -0.128332
     26          6           0       -4.208092    1.461514   -0.209708
     27          1           0       -3.090795    3.307535   -0.222787
     28          1           0       -0.885522    2.182341    0.014144
     29          1           0       -0.768408   -0.316613    0.161117
     30          1           0       -5.041727   -0.548091   -0.165115
     31          1           0       -5.172779    1.950107   -0.313153
     32          7           0       -2.826736   -2.009665    0.091119
     33          8           0       -3.884962   -2.632829    0.041508
     34          8           0       -1.712459   -2.515148    0.207361
 ---------------------------------------------------------------------

 SCF Done:  E(RHF) =  -669.535489030     A.U. after   15 cycles
 E2 =    -0.2091594820D+01 EUMP2 =    -0.67162708385013D+03

 The electronic state is 1-A.
 Alpha  occ. eigenvalues --  -20.60753 -20.60747 -15.85804 -11.31151 -11.27716
 Alpha  occ. eigenvalues --  -11.27706 -11.27438 -11.26730 -11.26642 -11.22433
 Alpha  occ. eigenvalues --  -11.22158 -11.21915 -11.21730 -11.21639 -11.21063
 Alpha  occ. eigenvalues --   -1.59828  -1.39382  -1.19315  -1.08899  -1.08711
 Alpha  occ. eigenvalues --   -1.04717  -1.04024  -0.96486  -0.95553  -0.87512
 Alpha  occ. eigenvalues --   -0.86108  -0.82386  -0.80114  -0.78626  -0.77441
 Alpha  occ. eigenvalues --   -0.72024  -0.71150  -0.70428  -0.65584  -0.64962
 Alpha  occ. eigenvalues --   -0.64721  -0.62192  -0.61295  -0.59900  -0.58053
 Alpha  occ. eigenvalues --   -0.55816  -0.55185  -0.53232  -0.53050  -0.52889
 Alpha  occ. eigenvalues --   -0.52755  -0.50396  -0.48781  -0.48775  -0.48407
 Alpha  occ. eigenvalues --   -0.47147  -0.46180  -0.46061  -0.44792  -0.44251
 Alpha  occ. eigenvalues --   -0.37295  -0.36315
 Alpha virt. eigenvalues --    0.05086   0.11312   0.16559   0.18960   0.22924
 Alpha virt. eigenvalues --    0.23859   0.25317   0.26411   0.27098   0.28661
 Alpha virt. eigenvalues --    0.29359   0.30895   0.31089   0.31539   0.31990

 Mulliken charges:
               1
     1  C   -0.299549
     2  C   -0.300196
     3  C   -0.476618
     4  H    0.150388
     5  H    0.152845
     6  H    0.151289
     7  H    0.154058
     8  H    0.159059
     9  H    0.154647
    10  H    0.161331
    11  C   -0.299222
    12  C   -0.302103
    13  C   -0.484661
    14  H    0.151517
    15  H    0.149780
    16  H    0.157490
    17  H    0.148438
    18  H    0.150688
    19  H    0.163826
    20  H    0.158164
    21  C   -0.172999
    22  C   -0.227883
    23  C   -0.175658
    24  C    0.159273
    25  C   -0.171240
    26  C   -0.218354
    27  H    0.226060
    28  H    0.239140
    29  H    0.275298
    30  H    0.275375
    31  H    0.223185
    32  N    0.488168
    33  O   -0.460491
    34  O   -0.461046
 Sum of Mulliken charges =  -0.00000

 Dipole moment (field-independent basis, Debye):
    X=             -0.0490    Y=              5.1814    Z=             -0.3016  Tot=              5.1904
 Quadrupole moment (field-independent basis, Debye-Ang):
   XX=            -87.0849   YY=           -101.3351   ZZ=            -95.7015
   XY=            -13.8726   XZ=              1.4103   YZ=              0.6434

 Normal termination of Gaussian 16 at Thu May  6 02:47:50 2021.
