 Gaussian 16, Revision A.03,
 Gaussian 16:  EM64L-G16RevA.03 25-Dec-2016

 -------------
 #p 6-31g* mp2
 -------------

 ------------------------------------------------------
 Input file generated by CHIRIPA (05-May-2021 14:53:15)
 ------------------------------------------------------
 Symbolic Z-matrix:
 Charge =  0 Multiplicity = 1

                         Standard orientation:
 ---------------------------------------------------------------------
 Center     Atomic      Atomic             Coordinates (Angstroms)
 Number     Number       Type             X           Y           Z
 ---------------------------------------------------------------------
      1          6           0       -4.025903    0.682330   -0.439777
      2          6           0       -4.438919    1.703759    0.620452
      3          6           0       -4.939844    3.015124    0.014491
      4          1           0       -3.241634    1.118126   -1.073771
      5          1           0       -4.882714    0.479825   -1.097244
      6          1           0       -3.581984    1.903237    1.276567
      7          1           0       -5.222161    1.265411    1.252115
      8          1           0       -5.810437    2.836325   -0.624806
      9          1           0       -4.160941    3.477775   -0.600216
     10          1           0       -5.229741    3.730862    0.790080
     11          6           0       -3.522877   -0.633834    0.150481
     12          6           0       -3.109861   -1.655263   -0.909748
     13          6           0       -2.608936   -2.966628   -0.303787
     14          1           0       -2.666067   -0.431329    0.807948
     15          1           0       -4.307146   -1.069630    0.784475
     16          1           0       -2.326619   -1.216915   -1.541411
     17          1           0       -3.966796   -1.854741   -1.565863
     18          1           0       -3.387839   -3.429279    0.310920
     19          1           0       -1.738343   -2.787829    0.335511
     20          1           0       -2.319039   -3.682366   -1.079376
     21          6           0        1.085359   -1.456191    1.022975
     22          6           0        1.912158   -0.744835    1.898702
     23          6           0        2.947701    0.054620    1.405681
     24          6           0        3.128887    0.120005    0.025034
     25          6           0        2.321912   -0.576791   -0.873053
     26          6           0        1.292509   -1.370051   -0.357672
     27          1           0        0.283309   -2.074821    1.414651
     28          1           0        1.753612   -0.809843    2.971401
     29          1           0        3.602593    0.615869    2.061069
     30          1           0        2.504520   -0.492068   -1.937428
     31          1           0        0.651959   -1.921394   -1.040139
     32          7           0        4.221921    0.963072   -0.508741
     33          8           0        4.360808    1.003858   -1.729267
     34          8           0        4.919055    1.567119    0.303520
 ---------------------------------------------------------------------

 SCF Done:  E(RHF) =  -669.535448021     A.U. after   15 cycles
 E2 =    -0.2091724339D+01 EUMP2 =    -0.67162717236040D+03

 The electronic state is 1-A.
 Alpha  occ. eigenvalues --  -20.60774 -20.60769 -15.85827 -11.31200 -11.27765
 Alpha  occ. eigenvalues --  -11.27760 -11.27497 -11.26783 -11.26764 -11.22561
 Alpha  occ. eigenvalues --  -11.22317 -11.22161 -11.22057 -11.21931 -11.21407
 Alpha  occ. eigenvalues --   -1.59849  -1.39403  -1.19370  -1.09141  -1.08764
 Alpha  occ. eigenvalues --   -1.04773  -1.04266  -0.96728  -0.95600  -0.87744
 Alpha  occ. eigenvalues --   -0.86167  -0.82432  -0.80342  -0.78905  -0.77476
 Alpha  occ. eigenvalues --   -0.72045  -0.71173  -0.70510  -0.65798  -0.65020
 Alpha  occ. eigenvalues --   -0.64766  -0.62156  -0.61614  -0.60120  -0.58319
 Alpha  occ. eigenvalues --   -0.56072  -0.55255  -0.53422  -0.53136  -0.53097
 Alpha  occ. eigenvalues --   -0.52854  -0.50669  -0.48805  -0.48800  -0.48645
 Alpha  occ. eigenvalues --   -0.47370  -0.46455  -0.46346  -0.44807  -0.44492
 Alpha  occ. eigenvalues --   -0.37347  -0.36375
 Alpha virt. eigenvalues --    0.05041   0.11227   0.16480   0.19013   0.22703
 Alpha virt. eigenvalues --    0.23898   0.25016   0.25926   0.26798   0.27753
 Alpha virt. eigenvalues --    0.28902   0.29929   0.30865   0.31479   0.31866

 Mulliken charges:
               1
     1  C   -0.299000
     2  C   -0.300204
     3  C   -0.476253
     4  H    0.151770
     5  H    0.150993
     6  H    0.152270
     7  H    0.152020
     8  H    0.155787
     9  H    0.156938
    10  H    0.161657
    11  C   -0.298543
    12  C   -0.300866
    13  C   -0.480590
    14  H    0.147005
    15  H    0.151049
    16  H    0.150487
    17  H    0.156908
    18  H    0.161286
    19  H    0.144546
    20  H    0.162523
    21  C   -0.175642
    22  C   -0.218715
    23  C   -0.170930
    24  C    0.158530
    25  C   -0.171267
    26  C   -0.222079
    27  H    0.230656
    28  H    0.223830
    29  H    0.275606
    30  H    0.275669
    31  H    0.227289
    32  N    0.488035
    33  O   -0.460404
    34  O   -0.460359
 Sum of Mulliken charges =  -0.00000

 Dipole moment (field-independent basis, Debye):
    X=             -4.0285    Y=             -2.9162    Z=              1.8478  Tot=              5.3054
 Quadrupole moment (field-independent basis, Debye-Ang):
   XX=           -117.7944   YY=            -96.6296   ZZ=            -90.4339
   XY=             -8.6648   XZ=              7.2358   YZ=              1.8776

 Normal termination of Gaussian 16 at Thu May  6 04:16:26 2021.
