 Gaussian 16, Revision A.03,
 Gaussian 16:  EM64L-G16RevA.03 25-Dec-2016

 -------------
 #p 6-31g* mp2
 -------------

 ------------------------------------------------------
 Input file generated by CHIRIPA (05-May-2021 14:55:19)
 ------------------------------------------------------
 Symbolic Z-matrix:
 Charge =  0 Multiplicity = 1

                         Standard orientation:
 ---------------------------------------------------------------------
 Center     Atomic      Atomic             Coordinates (Angstroms)
 Number     Number       Type             X           Y           Z
 ---------------------------------------------------------------------
      1          6           0        2.925143    2.480867    0.148095
      2          6           0        2.403266    1.661044    1.154104
      3          6           0        2.582277    0.275372    1.104946
      4          6           0        3.291504   -0.259249    0.030485
      5          6           0        3.823575    0.531131   -0.987106
      6          6           0        3.632385    1.914294   -0.917421
      7          1           0        2.781353    3.556316    0.194255
      8          1           0        1.853589    2.098289    1.982788
      9          1           0        2.188945   -0.382631    1.870284
     10          1           0        4.367053    0.066151   -1.800644
     11          1           0        4.038801    2.548535   -1.700114
     12          7           0        3.487461   -1.724869   -0.032423
     13          8           0        4.116063   -2.171292   -0.989607
     14          8           0        3.008740   -2.399448    0.876647
     15          6           0       -3.547966    0.443885   -0.182076
     16          6           0       -2.256007   -0.224855    0.288683
     17          6           0       -1.016723    0.630091    0.022155
     18          1           0       -3.472248    0.657283   -1.257098
     19          1           0       -3.655300    1.414135    0.322392
     20          1           0       -2.151842   -1.194175   -0.215484
     21          1           0       -2.334884   -0.436860    1.362669
     22          1           0       -1.094336    1.592462    0.538312
     23          1           0       -0.910253    0.830845   -1.048809
     24          1           0       -0.104453    0.133039    0.366487
     25          6           0       -4.795606   -0.398581    0.077494
     26          6           0       -6.087565    0.270158   -0.393265
     27          6           0       -7.326850   -0.584787   -0.126737
     28          1           0       -4.688272   -1.368832   -0.426975
     29          1           0       -4.871323   -0.611980    1.152516
     30          1           0       -6.008688    0.482164   -1.467252
     31          1           0       -6.191729    1.239479    0.110902
     32          1           0       -7.433318   -0.785541    0.944227
     33          1           0       -7.249236   -1.547159   -0.642894
     34          1           0       -8.239118   -0.087736   -0.471069
 ---------------------------------------------------------------------

 SCF Done:  E(RHF) =  -669.534447123     A.U. after   15 cycles
 E2 =    -0.2092422368D+01 EUMP2 =    -0.67162686949136D+03

 The electronic state is 1-A.
 Alpha  occ. eigenvalues --  -20.60782 -20.60777 -15.85836 -11.31202 -11.27753
 Alpha  occ. eigenvalues --  -11.27749 -11.27494 -11.26779 -11.26764 -11.21666
 Alpha  occ. eigenvalues --  -11.21664 -11.21489 -11.21412 -11.21186 -11.21107
 Alpha  occ. eigenvalues --   -1.59858  -1.39412  -1.19377  -1.08764  -1.08507
 Alpha  occ. eigenvalues --   -1.04789  -1.03610  -0.96075  -0.95601  -0.87094
 Alpha  occ. eigenvalues --   -0.86175  -0.82435  -0.79677  -0.78318  -0.77483
 Alpha  occ. eigenvalues --   -0.72054  -0.71183  -0.70482  -0.65141  -0.65026
 Alpha  occ. eigenvalues --   -0.64779  -0.62137  -0.61013  -0.59478  -0.57696
 Alpha  occ. eigenvalues --   -0.55370  -0.55269  -0.53521  -0.52875  -0.52511
 Alpha  occ. eigenvalues --   -0.52315  -0.50019  -0.48812  -0.48809  -0.47995
 Alpha  occ. eigenvalues --   -0.46711  -0.45861  -0.45787  -0.44818  -0.43878
 Alpha  occ. eigenvalues --   -0.37344  -0.36264
 Alpha virt. eigenvalues --    0.05041   0.11173   0.16534   0.21187   0.22822
 Alpha virt. eigenvalues --    0.24218   0.26505   0.26940   0.27364   0.28125
 Alpha virt. eigenvalues --    0.28617   0.30328   0.31417   0.31654   0.31933

 Mulliken charges:
               1
     1  C   -0.171252
     2  C   -0.210457
     3  C   -0.177829
     4  C    0.161217
     5  C   -0.171450
     6  C   -0.217930
     7  H    0.225660
     8  H    0.223996
     9  H    0.275854
    10  H    0.275531
    11  H    0.223467
    12  N    0.488177
    13  O   -0.460276
    14  O   -0.460848
    15  C   -0.298335
    16  C   -0.299760
    17  C   -0.478094
    18  H    0.149615
    19  H    0.147073
    20  H    0.156230
    21  H    0.150409
    22  H    0.146620
    23  H    0.155789
    24  H    0.165255
    25  C   -0.298394
    26  C   -0.299577
    27  C   -0.475764
    28  H    0.151264
    29  H    0.149618
    30  H    0.151901
    31  H    0.150880
    32  H    0.155241
    33  H    0.156067
    34  H    0.160101
 Sum of Mulliken charges =  -0.00000

 Dipole moment (field-independent basis, Debye):
    X=             -0.6414    Y=              5.1521    Z=              0.1985  Tot=              5.1956
 Quadrupole moment (field-independent basis, Debye-Ang):
   XX=            -99.6697   YY=            -98.0888   ZZ=            -90.4741
   XY=             17.3739   XZ=             -1.7412   YZ=              0.0675

 Normal termination of Gaussian 16 at Thu May  6 12:22:34 2021.
