 Gaussian 16, Revision A.03,
 Gaussian 16:  EM64L-G16RevA.03 25-Dec-2016

 -------------
 #p 6-31g* mp2
 -------------

 ------------------------------------------------------
 Input file generated by CHIRIPA (05-May-2021 14:57:27)
 ------------------------------------------------------
 Symbolic Z-matrix:
 Charge =  0 Multiplicity = 1

                         Standard orientation:
 ---------------------------------------------------------------------
 Center     Atomic      Atomic             Coordinates (Angstroms)
 Number     Number       Type             X           Y           Z
 ---------------------------------------------------------------------
      1          6           0       -4.722050    1.681163   -1.353239
      2          6           0       -3.325437    1.716509   -1.284349
      3          6           0       -2.629594    0.791427   -0.500402
      4          6           0       -3.365457   -0.159637    0.204773
      5          6           0       -4.757309   -0.220571    0.156562
      6          6           0       -5.432276    0.714441   -0.633832
      7          1           0       -5.254489    2.403646   -1.964732
      8          1           0       -2.771254    2.466159   -1.841978
      9          1           0       -1.548712    0.796098   -0.429048
     10          1           0       -5.282218   -0.979657    0.723727
     11          1           0       -6.516938    0.684612   -0.685443
     12          7           0       -2.639849   -1.144235    1.038115
     13          8           0       -3.311387   -1.972164    1.649840
     14          8           0       -1.413319   -1.069392    1.063784
     15          6           0        3.966039    2.046674    1.323577
     16          6           0        2.843925    1.259317    1.601874
     17          6           0        2.567616    0.121657    0.837720
     18          6           0        3.438545   -0.200757   -0.201905
     19          6           0        4.564547    0.563588   -0.503874
     20          6           0        4.821262    1.696913    0.273443
     21          1           0        4.173072    2.928751    1.922303
     22          1           0        2.178005    1.528536    2.416808
     23          1           0        1.705982   -0.505639    1.031379
     24          1           0        5.209999    0.269820   -1.322721
     25          1           0        5.693451    2.306524    0.055029
     26          7           0        3.156402   -1.402851   -1.017848
     27          8           0        3.939201   -1.665455   -1.928289
     28          8           0        2.157801   -2.059688   -0.731494
 ---------------------------------------------------------------------

 SCF Done:  E(RHF) =  -868.338313124     A.U. after   16 cycles
 E2 =    -0.2599132799D+01 EUMP2 =    -0.87093744592253D+03

 The electronic state is 1-A.
 Alpha  occ. eigenvalues --  -20.60853 -20.60844 -20.60206 -20.60157 -15.85907
 Alpha  occ. eigenvalues --  -15.85237 -11.31227 -11.30667 -11.27803 -11.27785
 Alpha  occ. eigenvalues --  -11.27535 -11.27321 -11.27109 -11.27078 -11.26808
 Alpha  occ. eigenvalues --  -11.26795 -11.26356 -11.26256  -1.59910  -1.59271
 Alpha  occ. eigenvalues --   -1.39469  -1.38813  -1.19397  -1.18871  -1.08799
 Alpha  occ. eigenvalues --   -1.08269  -1.04798  -1.04268  -0.95642  -0.95075
 Alpha  occ. eigenvalues --   -0.86198  -0.85666  -0.82481  -0.81891  -0.77534
 Alpha  occ. eigenvalues --   -0.76907  -0.72136  -0.71444  -0.71222  -0.70608
 Alpha  occ. eigenvalues --   -0.70512  -0.69964  -0.65058  -0.64804  -0.64514
 Alpha  occ. eigenvalues --   -0.64265  -0.62149  -0.61571  -0.55303  -0.54800
 Alpha  occ. eigenvalues --   -0.53125  -0.52894  -0.52631  -0.52340  -0.48884
 Alpha  occ. eigenvalues --   -0.48861  -0.48237  -0.48186  -0.44878  -0.44204
 Alpha  occ. eigenvalues --   -0.37375  -0.36901  -0.36398  -0.35892
 Alpha virt. eigenvalues --    0.05015   0.05585   0.11257   0.11742   0.16511
 Alpha virt. eigenvalues --    0.17046   0.21231   0.21967   0.27028   0.27570
 Alpha virt. eigenvalues --    0.28176   0.29064   0.30824   0.31475   0.32168

 Mulliken charges:
               1
     1  C   -0.170644
     2  C   -0.218446
     3  C   -0.169645
     4  C    0.158745
     5  C   -0.170656
     6  C   -0.218495
     7  H    0.225729
     8  H    0.223375
     9  H    0.273786
    10  H    0.276030
    11  H    0.223735
    12  N    0.493717
    13  O   -0.458159
    14  O   -0.467688
    15  C   -0.171585
    16  C   -0.222550
    17  C   -0.180851
    18  C    0.155657
    19  C   -0.171721
    20  C   -0.219729
    21  H    0.223156
    22  H    0.224871
    23  H    0.297970
    24  H    0.273791
    25  H    0.220961
    26  N    0.486242
    27  O   -0.465098
    28  O   -0.452498
 Sum of Mulliken charges =  -0.00000

 Dipole moment (field-independent basis, Debye):
    X=             -1.8397    Y=              7.5614    Z=             -0.0091  Tot=              7.7820
 Quadrupole moment (field-independent basis, Debye-Ang):
   XX=            -74.7257   YY=           -107.9630   ZZ=           -106.6785
   XY=              5.8238   XZ=             15.6007   YZ=             -1.6726

 Normal termination of Gaussian 16 at Thu May  6 14:49:45 2021.
