 Gaussian 16, Revision A.03,
 Gaussian 16:  EM64L-G16RevA.03 25-Dec-2016

 -------------
 #p 6-31g* mp2
 -------------

 ------------------------------------------------------
 Input file generated by CHIRIPA (05-May-2021 14:55:22)
 ------------------------------------------------------
 Symbolic Z-matrix:
 Charge =  0 Multiplicity = 1

                         Standard orientation:
 ---------------------------------------------------------------------
 Center     Atomic      Atomic             Coordinates (Angstroms)
 Number     Number       Type             X           Y           Z
 ---------------------------------------------------------------------
      1          6           0       -0.967889   -1.971908    0.685148
      2          6           0       -0.701618   -0.671957    1.127583
      3          6           0       -1.578883    0.374156    0.826581
      4          6           0       -2.718126    0.083320    0.077697
      5          6           0       -3.011032   -1.201335   -0.377451
      6          6           0       -2.119715   -2.231989   -0.064635
      7          1           0       -0.280950   -2.778549    0.923562
      8          1           0        0.192133   -0.467041    1.710047
      9          1           0       -1.397111    1.389816    1.156448
     10          1           0       -3.910104   -1.374700   -0.956270
     11          1           0       -2.329058   -3.240575   -0.409563
     12          7           0       -3.654285    1.182610   -0.247214
     13          8           0       -4.651090    0.900292   -0.908510
     14          8           0       -3.373515    2.305738    0.165570
     15          6           0        3.729444    0.738916   -0.247925
     16          6           0        3.024739    2.052275    0.093344
     17          6           0        3.933400    3.270875   -0.071403
     18          1           0        4.614409    0.627591    0.393472
     19          1           0        4.097072    0.786161   -1.282339
     20          1           0        2.657340    2.002033    1.126354
     21          1           0        2.141242    2.160394   -0.548807
     22          1           0        4.289770    3.348951   -1.103638
     23          1           0        4.808800    3.189690    0.581041
     24          1           0        3.409488    4.198939    0.177742
     25          6           0        2.833976   -0.488403   -0.088065
     26          6           0        3.538681   -1.801762   -0.429334
     27          6           0        2.630020   -3.020363   -0.264585
     28          1           0        2.466349   -0.535648    0.946349
     29          1           0        1.949012   -0.377078   -0.729461
     30          1           0        4.422178   -1.909882    0.212817
     31          1           0        3.906081   -1.751522   -1.462344
     32          1           0        1.754620   -2.939178   -0.917031
     33          1           0        2.273651   -3.098438    0.767648
     34          1           0        3.153933   -3.948427   -0.513731
 ---------------------------------------------------------------------

 SCF Done:  E(RHF) =  -669.534583792     A.U. after   15 cycles
 E2 =    -0.2093298096D+01 EUMP2 =    -0.67162788188874D+03

 The electronic state is 1-A.
 Alpha  occ. eigenvalues --  -20.60707 -20.60701 -15.85759 -11.31100 -11.27664
 Alpha  occ. eigenvalues --  -11.27644 -11.27332 -11.26674 -11.26615 -11.22486
 Alpha  occ. eigenvalues --  -11.22238 -11.22200 -11.22179 -11.22014 -11.21461
 Alpha  occ. eigenvalues --   -1.59783  -1.39337  -1.19266  -1.09202  -1.08655
 Alpha  occ. eigenvalues --   -1.04665  -1.04277  -0.96747  -0.95498  -0.87768
 Alpha  occ. eigenvalues --   -0.86066  -0.82334  -0.80370  -0.79029  -0.77375
 Alpha  occ. eigenvalues --   -0.71977  -0.71107  -0.70363  -0.65841  -0.64910
 Alpha  occ. eigenvalues --   -0.64661  -0.62029  -0.61662  -0.60114  -0.58383
 Alpha  occ. eigenvalues --   -0.56051  -0.55183  -0.53420  -0.53153  -0.53009
 Alpha  occ. eigenvalues --   -0.52706  -0.50685  -0.48736  -0.48734  -0.48650
 Alpha  occ. eigenvalues --   -0.47385  -0.46518  -0.46429  -0.44748  -0.44520
 Alpha  occ. eigenvalues --   -0.37200  -0.36245
 Alpha virt. eigenvalues --    0.05116   0.11336   0.16536   0.19773   0.22588
 Alpha virt. eigenvalues --    0.23468   0.24688   0.25942   0.26460   0.28780
 Alpha virt. eigenvalues --    0.29337   0.30629   0.30905   0.31282   0.31683

 Mulliken charges:
               1
     1  C   -0.173858
     2  C   -0.217169
     3  C   -0.173847
     4  C    0.158350
     5  C   -0.171263
     6  C   -0.220549
     7  H    0.231067
     8  H    0.226532
     9  H    0.275509
    10  H    0.275053
    11  H    0.223234
    12  N    0.488033
    13  O   -0.460802
    14  O   -0.460713
    15  C   -0.298276
    16  C   -0.300926
    17  C   -0.476131
    18  H    0.150645
    19  H    0.152829
    20  H    0.146438
    21  H    0.155382
    22  H    0.157264
    23  H    0.155540
    24  H    0.163497
    25  C   -0.302372
    26  C   -0.299079
    27  C   -0.480726
    28  H    0.139181
    29  H    0.157374
    30  H    0.154329
    31  H    0.156613
    32  H    0.157550
    33  H    0.146067
    34  H    0.165222
 Sum of Mulliken charges =  -0.00000

 Dipole moment (field-independent basis, Debye):
    X=              3.4989    Y=             -3.8189    Z=              1.0135  Tot=              5.2776
 Quadrupole moment (field-independent basis, Debye-Ang):
   XX=           -111.2724   YY=            -94.4402   ZZ=            -93.0733
   XY=             12.6251   XZ=             -1.2712   YZ=              1.6803

 Normal termination of Gaussian 16 at Wed May  5 19:03:45 2021.
