 Gaussian 16, Revision A.03,
 Gaussian 16:  EM64L-G16RevA.03 25-Dec-2016

 -------------
 #p 6-31g* mp2
 -------------

 ------------------------------------------------------
 Input file generated by CHIRIPA (05-May-2021 14:55:25)
 ------------------------------------------------------
 Symbolic Z-matrix:
 Charge =  0 Multiplicity = 1

                         Standard orientation:
 ---------------------------------------------------------------------
 Center     Atomic      Atomic             Coordinates (Angstroms)
 Number     Number       Type             X           Y           Z
 ---------------------------------------------------------------------
      1          6           0        4.253841   -2.341346    0.050237
      2          6           0        2.858203   -2.293892   -0.030175
      3          6           0        2.191002   -1.066182   -0.076200
      4          6           0        2.954202    0.099787   -0.039727
      5          6           0        4.345850    0.085332    0.040249
      6          6           0        4.991908   -1.153677    0.085132
      7          1           0        4.763926   -3.299450    0.085547
      8          1           0        2.282435   -3.214649   -0.057432
      9          1           0        1.111553   -1.000482   -0.138577
     10          1           0        4.892668    1.020082    0.065757
     11          1           0        6.075884   -1.187494    0.147568
     12          7           0        2.259057    1.405490   -0.087846
     13          8           0        2.954348    2.418447   -0.054308
     14          8           0        1.032075    1.391218   -0.158189
     15          6           0       -4.049531   -0.561573    0.296762
     16          6           0       -5.192505   -1.278492   -0.422699
     17          6           0       -5.423407   -2.696427    0.100694
     18          1           0       -3.128339   -1.149699    0.185151
     19          1           0       -4.268599   -0.525051    1.372899
     20          1           0       -4.972001   -1.312429   -1.497335
     21          1           0       -6.111041   -0.688494   -0.309525
     22          1           0       -5.668255   -2.678137    1.167613
     23          1           0       -4.522743   -3.305617   -0.026945
     24          1           0       -6.244846   -3.190527   -0.427475
     25          6           0       -3.806520    0.857018   -0.215364
     26          6           0       -2.663546    1.573937    0.504097
     27          6           0       -2.432644    2.991871   -0.019297
     28          1           0       -3.587453    0.820496   -1.291501
     29          1           0       -4.727713    1.445144   -0.103754
     30          1           0       -1.745010    0.983939    0.390922
     31          1           0       -2.884050    1.607874    1.578732
     32          1           0       -3.333309    3.601062    0.108343
     33          1           0       -2.187796    2.973582   -1.086215
     34          1           0       -1.611206    3.485972    0.508873
 ---------------------------------------------------------------------

 SCF Done:  E(RHF) =  -669.535982277     A.U. after   15 cycles
 E2 =    -0.2091185298D+01 EUMP2 =    -0.67162716757556D+03

 The electronic state is 1-A.
 Alpha  occ. eigenvalues --  -20.60935 -20.60930 -15.85975 -11.31299 -11.27868
 Alpha  occ. eigenvalues --  -11.27858 -11.27599 -11.26872 -11.26862 -11.21287
 Alpha  occ. eigenvalues --  -11.20938 -11.20903 -11.20604 -11.20374 -11.19666
 Alpha  occ. eigenvalues --   -1.59998  -1.39555  -1.19468  -1.08871  -1.07777
 Alpha  occ. eigenvalues --   -1.04866  -1.02762  -0.95715  -0.95231  -0.86268
 Alpha  occ. eigenvalues --   -0.86256  -0.82549  -0.78903  -0.77642  -0.77475
 Alpha  occ. eigenvalues --   -0.72203  -0.71314  -0.70578  -0.65129  -0.64869
 Alpha  occ. eigenvalues --   -0.64412  -0.62215  -0.60148  -0.58671  -0.56799
 Alpha  occ. eigenvalues --   -0.55368  -0.54538  -0.53196  -0.52958  -0.51898
 Alpha  occ. eigenvalues --   -0.51666  -0.49236  -0.48952  -0.48927  -0.47189
 Alpha  occ. eigenvalues --   -0.45964  -0.45091  -0.45021  -0.44838  -0.43031
 Alpha  occ. eigenvalues --   -0.37446  -0.36467
 Alpha virt. eigenvalues --    0.04929   0.11188   0.16423   0.21034   0.23285
 Alpha virt. eigenvalues --    0.24890   0.26188   0.27440   0.27721   0.28679
 Alpha virt. eigenvalues --    0.28902   0.30706   0.31714   0.32210   0.33083

 Mulliken charges:
               1
     1  C   -0.170600
     2  C   -0.218584
     3  C   -0.170409
     4  C    0.157793
     5  C   -0.170831
     6  C   -0.218535
     7  H    0.226049
     8  H    0.223932
     9  H    0.275290
    10  H    0.275881
    11  H    0.223853
    12  N    0.494828
    13  O   -0.459153
    14  O   -0.466589
    15  C   -0.295835
    16  C   -0.299028
    17  C   -0.474828
    18  H    0.143326
    19  H    0.148524
    20  H    0.151069
    21  H    0.152291
    22  H    0.154836
    23  H    0.151685
    24  H    0.159209
    25  C   -0.298071
    26  C   -0.304778
    27  C   -0.471156
    28  H    0.148372
    29  H    0.147109
    30  H    0.166889
    31  H    0.145636
    32  H    0.145486
    33  H    0.155869
    34  H    0.170471
 Sum of Mulliken charges =  -0.00000

 Dipole moment (field-independent basis, Debye):
    X=              2.7505    Y=             -4.5140    Z=              0.1585  Tot=              5.2883
 Quadrupole moment (field-independent basis, Debye-Ang):
   XX=            -77.0398   YY=            -96.0680   ZZ=            -95.3766
   XY=            -11.7649   XZ=              0.3389   YZ=              0.8477

 Normal termination of Gaussian 16 at Thu May  6 03:14:40 2021.
