 Gaussian 16, Revision A.03,
 Gaussian 16:  EM64L-G16RevA.03 25-Dec-2016

 -------------
 #p 6-31g* mp2
 -------------

 ------------------------------------------------------
 Input file generated by CHIRIPA (05-May-2021 14:57:23)
 ------------------------------------------------------
 Symbolic Z-matrix:
 Charge =  0 Multiplicity = 1

                         Standard orientation:
 ---------------------------------------------------------------------
 Center     Atomic      Atomic             Coordinates (Angstroms)
 Number     Number       Type             X           Y           Z
 ---------------------------------------------------------------------
      1          6           0        3.096239    2.234657   -0.429565
      2          6           0        2.300683    1.124553   -0.127438
      3          6           0        2.881368   -0.130770    0.076320
      4          6           0        4.266975   -0.240457   -0.030220
      5          6           0        5.086466    0.846712   -0.329867
      6          6           0        4.484145    2.092444   -0.529639
      7          1           0        2.636745    3.206097   -0.586301
      8          1           0        1.222558    1.232038   -0.049087
      9          1           0        2.289174   -1.006811    0.311427
     10          1           0        6.158463    0.708377   -0.401310
     11          1           0        5.104468    2.952821   -0.764148
     12          7           0        4.893173   -1.564335    0.183379
     13          8           0        6.116201   -1.634638    0.083893
     14          8           0        4.149102   -2.506619    0.446240
     15          6           0       -1.964598    0.957080    0.875169
     16          6           0       -2.112897    0.575111   -0.462227
     17          6           0       -3.326849    0.055930   -0.921921
     18          6           0       -4.376378   -0.068108   -0.012859
     19          6           0       -4.259675    0.303591    1.325614
     20          6           0       -3.036570    0.820342    1.763256
     21          1           0       -1.018016    1.359449    1.223705
     22          1           0       -1.282100    0.680175   -1.154168
     23          1           0       -3.469056   -0.247603   -1.952000
     24          1           0       -5.105888    0.186969    1.991753
     25          1           0       -2.924272    1.116165    2.802448
     26          7           0       -5.666379   -0.616456   -0.487843
     27          8           0       -6.575791   -0.715697    0.332986
     28          8           0       -5.743646   -0.936627   -1.671970
 ---------------------------------------------------------------------

 SCF Done:  E(RHF) =  -868.336243887     A.U. after   16 cycles
 E2 =    -0.2599941321D+01 EUMP2 =    -0.87093618520723D+03

 The electronic state is 1-A.
 Alpha  occ. eigenvalues --  -20.61348 -20.61341 -20.61184 -20.61178 -15.86410
 Alpha  occ. eigenvalues --  -15.86243 -11.31932 -11.31763 -11.28600 -11.28511
 Alpha  occ. eigenvalues --  -11.28367 -11.28357 -11.28323 -11.28247 -11.27748
 Alpha  occ. eigenvalues --  -11.27526 -11.27507 -11.27401  -1.60421  -1.60255
 Alpha  occ. eigenvalues --   -1.39969  -1.39804  -1.20148  -1.19967  -1.09516
 Alpha  occ. eigenvalues --   -1.09364  -1.05594  -1.05388  -0.96312  -0.96166
 Alpha  occ. eigenvalues --   -0.87001  -0.86795  -0.83159  -0.82983  -0.78181
 Alpha  occ. eigenvalues --   -0.77974  -0.72624  -0.72461  -0.71748  -0.71579
 Alpha  occ. eigenvalues --   -0.71252  -0.71161  -0.65808  -0.65795  -0.65603
 Alpha  occ. eigenvalues --   -0.65314  -0.62967  -0.62691  -0.56125  -0.55956
 Alpha  occ. eigenvalues --   -0.53893  -0.53737  -0.53691  -0.53470  -0.49398
 Alpha  occ. eigenvalues --   -0.49368  -0.49233  -0.49202  -0.45340  -0.45174
 Alpha  occ. eigenvalues --   -0.38135  -0.37997  -0.37197  -0.36977
 Alpha virt. eigenvalues --    0.04393   0.04553   0.10405   0.10647   0.15796
 Alpha virt. eigenvalues --    0.15988   0.17529   0.22030   0.24680   0.26860
 Alpha virt. eigenvalues --    0.27561   0.28745   0.29996   0.30905   0.31589

 Mulliken charges:
               1
     1  C   -0.171134
     2  C   -0.225537
     3  C   -0.171354
     4  C    0.159105
     5  C   -0.169101
     6  C   -0.218354
     7  H    0.226689
     8  H    0.217121
     9  H    0.277345
    10  H    0.278443
    11  H    0.226323
    12  N    0.488041
    13  O   -0.458182
    14  O   -0.458880
    15  C   -0.174597
    16  C   -0.220687
    17  C   -0.169198
    18  C    0.159330
    19  C   -0.169760
    20  C   -0.217222
    21  H    0.219707
    22  H    0.218998
    23  H    0.278016
    24  H    0.278095
    25  H    0.225963
    26  N    0.487920
    27  O   -0.458419
    28  O   -0.458673
 Sum of Mulliken charges =  -0.00000

 Dipole moment (field-independent basis, Debye):
    X=              2.3670    Y=              6.5164    Z=              0.9257  Tot=              6.9945
 Quadrupole moment (field-independent basis, Debye-Ang):
   XX=           -156.8614   YY=           -107.7542   ZZ=           -101.2322
   XY=             13.8091   XZ=            -13.6581   YZ=              0.0319

 Normal termination of Gaussian 16 at Fri May  7 11:00:58 2021.
