 Gaussian 16, Revision A.03,
 Gaussian 16:  EM64L-G16RevA.03 25-Dec-2016

 -------------
 #p 6-31g* mp2
 -------------

 ------------------------------------------------------
 Input file generated by CHIRIPA (05-May-2021 14:57:25)
 ------------------------------------------------------
 Symbolic Z-matrix:
 Charge =  0 Multiplicity = 1

                         Standard orientation:
 ---------------------------------------------------------------------
 Center     Atomic      Atomic             Coordinates (Angstroms)
 Number     Number       Type             X           Y           Z
 ---------------------------------------------------------------------
      1          6           0       -1.757465    2.253518   -0.498286
      2          6           0       -3.121254    2.363101   -0.207442
      3          6           0       -3.881497    1.223524    0.071744
      4          6           0       -3.242801   -0.015403    0.051316
      5          6           0       -1.885862   -0.157180   -0.234875
      6          6           0       -1.145201    0.995944   -0.511052
      7          1           0       -1.174496    3.144030   -0.713996
      8          1           0       -3.599399    3.338452   -0.196814
      9          1           0       -4.938919    1.279598    0.300069
     10          1           0       -1.437175   -1.143125   -0.237956
     11          1           0       -0.086234    0.907826   -0.736594
     12          7           0       -4.037271   -1.228993    0.345285
     13          8           0       -3.450980   -2.308950    0.320945
     14          8           0       -5.231223   -1.077268    0.594471
     15          6           0        3.387205    2.261108    0.552620
     16          6           0        3.797925    1.285144    1.466580
     17          6           0        3.650190   -0.072940    1.169376
     18          6           0        3.085244   -0.421054   -0.056569
     19          6           0        2.666313    0.527808   -0.987937
     20          6           0        2.823702    1.879997   -0.669567
     21          1           0        3.505719    3.313812    0.791717
     22          1           0        4.235873    1.578197    2.416510
     23          1           0        3.959580   -0.849248    1.858608
     24          1           0        2.233170    0.204886   -1.926834
     25          1           0        2.503832    2.635770   -1.381281
     26          7           0        2.923733   -1.855677   -0.382409
     27          8           0        2.423123   -2.136368   -1.469258
     28          8           0        3.300808   -2.672277    0.455215
 ---------------------------------------------------------------------

 SCF Done:  E(RHF) =  -868.336397767     A.U. after   16 cycles
 E2 =    -0.2601656350D+01 EUMP2 =    -0.87093805411747D+03

 The electronic state is 1-A.
 Alpha  occ. eigenvalues --  -20.61509 -20.61484 -20.60598 -20.60575 -15.86561
 Alpha  occ. eigenvalues --  -15.85643 -11.32149 -11.31101 -11.28773 -11.28655
 Alpha  occ. eigenvalues --  -11.28462 -11.27849 -11.27704 -11.27691 -11.27620
 Alpha  occ. eigenvalues --  -11.27525 -11.26776 -11.26643  -1.60574  -1.59664
 Alpha  occ. eigenvalues --   -1.40121  -1.39213  -1.20341  -1.19292  -1.09671
 Alpha  occ. eigenvalues --   -1.08692  -1.05782  -1.04698  -0.96475  -0.95504
 Alpha  occ. eigenvalues --   -0.87142  -0.86112  -0.83302  -0.82327  -0.78329
 Alpha  occ. eigenvalues --   -0.77342  -0.72761  -0.71915  -0.71860  -0.71403
 Alpha  occ. eigenvalues --   -0.70990  -0.70445  -0.65977  -0.65746  -0.64947
 Alpha  occ. eigenvalues --   -0.64755  -0.63098  -0.62043  -0.56211  -0.55293
 Alpha  occ. eigenvalues --   -0.54154  -0.53834  -0.53040  -0.52683  -0.49540
 Alpha  occ. eigenvalues --   -0.49511  -0.48632  -0.48606  -0.45475  -0.44597
 Alpha  occ. eigenvalues --   -0.38300  -0.37391  -0.37288  -0.36297
 Alpha virt. eigenvalues --    0.04166   0.05180   0.10174   0.11335   0.15562
 Alpha virt. eigenvalues --    0.16631   0.20016   0.21867   0.25919   0.26921
 Alpha virt. eigenvalues --    0.28059   0.28587   0.30137   0.30971   0.32201

 Mulliken charges:
               1
     1  C   -0.174695
     2  C   -0.218347
     3  C   -0.171489
     4  C    0.158970
     5  C   -0.174751
     6  C   -0.223182
     7  H    0.218480
     8  H    0.221766
     9  H    0.275414
    10  H    0.282403
    11  H    0.229198
    12  N    0.487715
    13  O   -0.456592
    14  O   -0.461750
    15  C   -0.169959
    16  C   -0.216765
    17  C   -0.169204
    18  C    0.161994
    19  C   -0.187976
    20  C   -0.220850
    21  H    0.228108
    22  H    0.227913
    23  H    0.280112
    24  H    0.277564
    25  H    0.223037
    26  N    0.487383
    27  O   -0.459962
    28  O   -0.454534
 Sum of Mulliken charges =  -0.00000

 Dipole moment (field-independent basis, Debye):
    X=              3.6814    Y=              9.1166    Z=              0.2931  Tot=              9.8362
 Quadrupole moment (field-independent basis, Debye-Ang):
   XX=           -115.2198   YY=           -108.2653   ZZ=           -101.9673
   XY=             -1.5009   XZ=              9.0291   YZ=             -1.1957

 Normal termination of Gaussian 16 at Thu May  6 06:44:26 2021.
