 Gaussian 16, Revision A.03,
 Gaussian 16:  EM64L-G16RevA.03 25-Dec-2016

 -------------
 #p 6-31g* mp2
 -------------

 ------------------------------------------------------
 Input file generated by CHIRIPA (05-May-2021 14:55:19)
 ------------------------------------------------------
 Symbolic Z-matrix:
 Charge =  0 Multiplicity = 1

                         Standard orientation:
 ---------------------------------------------------------------------
 Center     Atomic      Atomic             Coordinates (Angstroms)
 Number     Number       Type             X           Y           Z
 ---------------------------------------------------------------------
      1          6           0        1.882836    1.797609    0.229463
      2          6           0        2.352823    1.417824   -1.032042
      3          6           0        3.347242    0.442896   -1.155311
      4          6           0        3.851595   -0.134160    0.009131
      5          6           0        3.403943    0.222904    1.280116
      6          6           0        2.408968    1.199990    1.379489
      7          1           0        1.110132    2.555795    0.315940
      8          1           0        1.946058    1.880244   -1.926891
      9          1           0        3.729274    0.130062   -2.119471
     10          1           0        3.828767   -0.255959    2.153976
     11          1           0        2.045876    1.492964    2.360496
     12          7           0        4.904636   -1.167415   -0.108720
     13          8           0        5.332643   -1.660689    0.932494
     14          8           0        5.282062   -1.464441   -1.240074
     15          6           0       -3.954591   -0.124972    0.062299
     16          6           0       -3.164930    1.144313   -0.259167
     17          6           0       -1.659356    0.971084   -0.056607
     18          1           0       -3.754559   -0.420324    1.101385
     19          1           0       -3.590413   -0.945393   -0.571481
     20          1           0       -3.531431    1.962435    0.374055
     21          1           0       -3.367015    1.436785   -1.297549
     22          1           0       -1.273386    0.173499   -0.699638
     23          1           0       -1.438737    0.702135    0.981464
     24          1           0       -1.114189    1.890433   -0.292083
     25          6           0       -5.461195    0.032470   -0.135397
     26          6           0       -6.250855   -1.236814    0.186069
     27          6           0       -7.756430   -1.063585   -0.016490
     28          1           0       -5.825374    0.852892    0.498383
     29          1           0       -5.661227    0.327822   -1.174482
     30          1           0       -6.048771   -1.529287    1.224451
     31          1           0       -5.884355   -2.054936   -0.447153
     32          1           0       -7.977049   -0.794635   -1.054563
     33          1           0       -8.142400   -0.266001    0.626539
     34          1           0       -8.301597   -1.982935    0.218984
 ---------------------------------------------------------------------

 SCF Done:  E(RHF) =  -669.534943970     A.U. after   15 cycles
 E2 =    -0.2091457600D+01 EUMP2 =    -0.67162640157052D+03

 The electronic state is 1-A.
 Alpha  occ. eigenvalues --  -20.60717 -20.60712 -15.85772 -11.31117 -11.27703
 Alpha  occ. eigenvalues --  -11.27699 -11.27416 -11.26701 -11.26691 -11.22271
 Alpha  occ. eigenvalues --  -11.21955 -11.21939 -11.21904 -11.21788 -11.21356
 Alpha  occ. eigenvalues --   -1.59794  -1.39348  -1.19299  -1.08932  -1.08693
 Alpha  occ. eigenvalues --   -1.04702  -1.04063  -0.96535  -0.95527  -0.87552
 Alpha  occ. eigenvalues --   -0.86099  -0.82368  -0.80130  -0.78714  -0.77414
 Alpha  occ. eigenvalues --   -0.71990  -0.71118  -0.70433  -0.65556  -0.64952
 Alpha  occ. eigenvalues --   -0.64711  -0.62054  -0.61452  -0.59960  -0.58133
 Alpha  occ. eigenvalues --   -0.55806  -0.55256  -0.53374  -0.52947  -0.52815
 Alpha  occ. eigenvalues --   -0.52796  -0.50452  -0.48748  -0.48745  -0.48440
 Alpha  occ. eigenvalues --   -0.47146  -0.46264  -0.46170  -0.44758  -0.44319
 Alpha  occ. eigenvalues --   -0.37220  -0.36309
 Alpha virt. eigenvalues --    0.05113   0.11318   0.16571   0.20486   0.22533
 Alpha virt. eigenvalues --    0.23955   0.26158   0.26411   0.26997   0.27379
 Alpha virt. eigenvalues --    0.28494   0.30324   0.30927   0.31537   0.32409

 Mulliken charges:
               1
     1  C   -0.164351
     2  C   -0.219785
     3  C   -0.171129
     4  C    0.158171
     5  C   -0.170849
     6  C   -0.220695
     7  H    0.226753
     8  H    0.222998
     9  H    0.275284
    10  H    0.275301
    11  H    0.223070
    12  N    0.488121
    13  O   -0.460705
    14  O   -0.460762
    15  C   -0.299076
    16  C   -0.300470
    17  C   -0.473967
    18  H    0.150254
    19  H    0.151410
    20  H    0.151539
    21  H    0.152617
    22  H    0.161048
    23  H    0.155350
    24  H    0.147128
    25  C   -0.298576
    26  C   -0.300048
    27  C   -0.475958
    28  H    0.149545
    29  H    0.150118
    30  H    0.152418
    31  H    0.152971
    32  H    0.155523
    33  H    0.155244
    34  H    0.161506
 Sum of Mulliken charges =  -0.00000

 Dipole moment (field-independent basis, Debye):
    X=             -3.8488    Y=              3.5843    Z=              0.4151  Tot=              5.2757
 Quadrupole moment (field-independent basis, Debye-Ang):
   XX=           -125.1041   YY=            -96.5091   ZZ=            -88.8447
   XY=             14.7245   XZ=              1.5256   YZ=             -0.2147

 Normal termination of Gaussian 16 at Wed May  5 23:45:09 2021.
