 Gaussian 16, Revision A.03,
 Gaussian 16:  EM64L-G16RevA.03 25-Dec-2016

 -------------
 #p 6-31g* mp2
 -------------

 ------------------------------------------------------
 Input file generated by CHIRIPA (05-May-2021 14:53:18)
 ------------------------------------------------------
 Symbolic Z-matrix:
 Charge =  0 Multiplicity = 1

                         Standard orientation:
 ---------------------------------------------------------------------
 Center     Atomic      Atomic             Coordinates (Angstroms)
 Number     Number       Type             X           Y           Z
 ---------------------------------------------------------------------
      1          6           0       -1.908906    0.942591   -0.527850
      2          6           0       -1.821931    2.385209   -0.028576
      3          6           0       -0.681279    3.168247   -0.679391
      4          1           0       -0.954695    0.434996   -0.330939
      5          1           0       -2.041433    0.946816   -1.618636
      6          1           0       -1.690994    2.378288    1.061113
      7          1           0       -2.776525    2.889373   -0.226526
      8          1           0       -0.810007    3.204875   -1.765986
      9          1           0        0.281692    2.690887   -0.471031
     10          1           0       -0.637419    4.196873   -0.308089
     11          6           0       -3.044358    0.146949    0.113578
     12          6           0       -3.131334   -1.295669   -0.385695
     13          6           0       -4.271985   -2.078707    0.265119
     14          1           0       -2.911831    0.142724    1.204364
     15          1           0       -3.998569    0.654544   -0.083333
     16          1           0       -2.176739   -1.799833   -0.187746
     17          1           0       -3.262270   -1.288748   -1.475385
     18          1           0       -5.234957   -1.601347    0.056759
     19          1           0       -4.143257   -2.115335    1.351714
     20          1           0       -4.315845   -3.107333   -0.106183
     21          6           0        2.247883   -0.935098   -2.289370
     22          6           0        2.439318    0.366763   -1.814997
     23          6           0        2.268639    0.660567   -0.458864
     24          6           0        1.904608   -0.376345    0.398797
     25          6           0        1.706570   -1.683447   -0.043421
     26          6           0        1.882764   -1.954252   -1.403630
     27          1           0        2.382613   -1.154400   -3.344430
     28          1           0        2.722898    1.160240   -2.500578
     29          1           0        2.410394    1.659580   -0.064786
     30          1           0        1.424130   -2.453465    0.664192
     31          1           0        1.733417   -2.966221   -1.769222
     32          7           0        1.720998   -0.077481    1.836632
     33          8           0        1.400077   -1.008698    2.571809
     34          8           0        1.901482    1.082324    2.201205
 ---------------------------------------------------------------------

 SCF Done:  E(RHF) =  -669.534686443     A.U. after   15 cycles
 E2 =    -0.2094603798D+01 EUMP2 =    -0.67162929024119D+03

 The electronic state is 1-A.
 Alpha  occ. eigenvalues --  -20.60891 -20.60882 -15.85936 -11.31285 -11.27868
 Alpha  occ. eigenvalues --  -11.27842 -11.27585 -11.26873 -11.26856 -11.21549
 Alpha  occ. eigenvalues --  -11.21399 -11.21233 -11.21173 -11.21032 -11.20984
 Alpha  occ. eigenvalues --   -1.59964  -1.39516  -1.19478  -1.08862  -1.08292
 Alpha  occ. eigenvalues --   -1.04875  -1.03422  -0.95892  -0.95695  -0.86915
 Alpha  occ. eigenvalues --   -0.86267  -0.82526  -0.79498  -0.78113  -0.77580
 Alpha  occ. eigenvalues --   -0.72153  -0.71299  -0.70582  -0.65119  -0.64963
 Alpha  occ. eigenvalues --   -0.64838  -0.62260  -0.60805  -0.59250  -0.57497
 Alpha  occ. eigenvalues --   -0.55403  -0.55148  -0.53261  -0.52972  -0.52577
 Alpha  occ. eigenvalues --   -0.52303  -0.49828  -0.48913  -0.48910  -0.47812
 Alpha  occ. eigenvalues --   -0.46513  -0.45625  -0.45542  -0.44909  -0.43666
 Alpha  occ. eigenvalues --   -0.37404  -0.36414
 Alpha virt. eigenvalues --    0.04906   0.11084   0.16415   0.21082   0.22898
 Alpha virt. eigenvalues --    0.24329   0.26323   0.26604   0.27488   0.27926
 Alpha virt. eigenvalues --    0.28912   0.30605   0.31362   0.31764   0.32044

 Mulliken charges:
               1
     1  C   -0.302117
     2  C   -0.300755
     3  C   -0.477005
     4  H    0.152145
     5  H    0.145487
     6  H    0.160916
     7  H    0.150974
     8  H    0.149993
     9  H    0.151953
    10  H    0.162078
    11  C   -0.299307
    12  C   -0.298525
    13  C   -0.475998
    14  H    0.155340
    15  H    0.148918
    16  H    0.149204
    17  H    0.148828
    18  H    0.155069
    19  H    0.158702
    20  H    0.157884
    21  C   -0.170589
    22  C   -0.215733
    23  C   -0.172716
    24  C    0.159720
    25  C   -0.173386
    26  C   -0.216558
    27  H    0.226255
    28  H    0.224813
    29  H    0.276795
    30  H    0.275954
    31  H    0.224209
    32  N    0.488532
    33  O   -0.460305
    34  O   -0.460776
 Sum of Mulliken charges =  -0.00000

 Dipole moment (field-independent basis, Debye):
    X=              0.7226    Y=             -1.0774    Z=             -4.9906  Tot=              5.1565
 Quadrupole moment (field-independent basis, Debye-Ang):
   XX=            -92.9830   YY=            -89.9674   ZZ=            -98.8157
   XY=             -1.8471   XZ=             -9.3827   YZ=              0.8381

 Normal termination of Gaussian 16 at Thu May  6 17:19:37 2021.
