 Gaussian 16, Revision A.03,
 Gaussian 16:  EM64L-G16RevA.03 25-Dec-2016

 -------------
 #p 6-31g* mp2
 -------------

 ------------------------------------------------------
 Input file generated by CHIRIPA (05-May-2021 14:53:14)
 ------------------------------------------------------
 Symbolic Z-matrix:
 Charge =  0 Multiplicity = 1

                         Standard orientation:
 ---------------------------------------------------------------------
 Center     Atomic      Atomic             Coordinates (Angstroms)
 Number     Number       Type             X           Y           Z
 ---------------------------------------------------------------------
      1          6           0       -4.481547   -0.470657   -0.325497
      2          6           0       -5.565975    0.366260    0.353895
      3          6           0       -6.950516    0.148288   -0.257111
      4          1           0       -4.454364   -0.224821   -1.395904
      5          1           0       -4.750956   -1.533642   -0.255666
      6          1           0       -5.293912    1.427257    0.284015
      7          1           0       -5.590450    0.118542    1.422844
      8          1           0       -7.247274   -0.902241   -0.173906
      9          1           0       -6.949051    0.413909   -1.319206
     10          1           0       -7.710527    0.756195    0.243582
     11          6           0       -3.091869   -0.263662    0.274233
     12          6           0       -2.007442   -1.100578   -0.405158
     13          6           0       -0.622900   -0.882607    0.205848
     14          1           0       -2.822461    0.799324    0.204402
     15          1           0       -3.119053   -0.509497    1.344640
     16          1           0       -1.982966   -0.852860   -1.474108
     17          1           0       -2.279504   -2.161575   -0.335279
     18          1           0       -0.624365   -1.148228    1.267942
     19          1           0       -0.326142    0.167923    0.122643
     20          1           0        0.137111   -1.490513   -0.294846
     21          6           0        1.967086    2.606821    0.051508
     22          6           0        2.004101    1.845441    1.224304
     23          6           0        2.550996    0.558809    1.218567
     24          6           0        3.054199    0.062556    0.016981
     25          6           0        3.031722    0.796598   -1.167910
     26          6           0        2.480110    2.080897   -1.138758
     27          1           0        1.540413    3.605401    0.065059
     28          1           0        1.606414    2.251315    2.150131
     29          1           0        2.592360   -0.052279    2.112032
     30          1           0        3.435890    0.364970   -2.075524
     31          1           0        2.452696    2.669925   -2.051085
     32          7           0        3.635669   -1.298308   -0.001486
     33          8           0        4.072462   -1.712684   -1.072999
     34          8           0        3.643622   -1.924809    1.055903
 ---------------------------------------------------------------------

 SCF Done:  E(RHF) =  -669.534921177     A.U. after   15 cycles
 E2 =    -0.2092926389D+01 EUMP2 =    -0.67162784756609D+03

 The electronic state is 1-A.
 Alpha  occ. eigenvalues --  -20.60765 -20.60758 -15.85817 -11.31164 -11.27761
 Alpha  occ. eigenvalues --  -11.27733 -11.27530 -11.26795 -11.26762 -11.21762
 Alpha  occ. eigenvalues --  -11.21601 -11.21530 -11.21473 -11.21208 -11.20977
 Alpha  occ. eigenvalues --   -1.59840  -1.39393  -1.19368  -1.08767  -1.08534
 Alpha  occ. eigenvalues --   -1.04773  -1.03601  -0.96057  -0.95594  -0.87078
 Alpha  occ. eigenvalues --   -0.86169  -0.82427  -0.79678  -0.78357  -0.77468
 Alpha  occ. eigenvalues --   -0.72037  -0.71164  -0.70483  -0.65169  -0.65022
 Alpha  occ. eigenvalues --   -0.64777  -0.62117  -0.61008  -0.59429  -0.57674
 Alpha  occ. eigenvalues --   -0.55415  -0.55282  -0.53422  -0.52866  -0.52640
 Alpha  occ. eigenvalues --   -0.52260  -0.49936  -0.48795  -0.48790  -0.47977
 Alpha  occ. eigenvalues --   -0.46688  -0.45891  -0.45819  -0.44798  -0.43872
 Alpha  occ. eigenvalues --   -0.37332  -0.36322
 Alpha virt. eigenvalues --    0.05058   0.11243   0.16547   0.21374   0.22755
 Alpha virt. eigenvalues --    0.24197   0.26499   0.27121   0.27442   0.27786
 Alpha virt. eigenvalues --    0.28381   0.30807   0.31250   0.31618   0.31785

 Mulliken charges:
               1
     1  C   -0.298173
     2  C   -0.299401
     3  C   -0.475698
     4  H    0.149327
     5  H    0.151074
     6  H    0.149967
     7  H    0.151947
     8  H    0.156147
     9  H    0.155068
    10  H    0.160045
    11  C   -0.297664
    12  C   -0.300269
    13  C   -0.479431
    14  H    0.145459
    15  H    0.149169
    16  H    0.150839
    17  H    0.154015
    18  H    0.152734
    19  H    0.157625
    20  H    0.162007
    21  C   -0.172011
    22  C   -0.218901
    23  C   -0.166552
    24  C    0.161692
    25  C   -0.171381
    26  C   -0.218280
    27  H    0.225633
    28  H    0.223698
    29  H    0.275652
    30  H    0.275587
    31  H    0.223425
    32  N    0.487751
    33  O   -0.460923
    34  O   -0.460177
 Sum of Mulliken charges =  -0.00000

 Dipole moment (field-independent basis, Debye):
    X=             -1.9857    Y=              4.7869    Z=              0.0776  Tot=              5.1830
 Quadrupole moment (field-independent basis, Debye-Ang):
   XX=           -109.1182   YY=            -94.1693   ZZ=            -89.6896
   XY=             14.9309   XZ=             -1.3508   YZ=             -0.9869

 Normal termination of Gaussian 16 at Wed May  5 23:29:15 2021.
