 Gaussian 16, Revision A.03,
 Gaussian 16:  EM64L-G16RevA.03 25-Dec-2016

 -------------
 #p 6-31g* mp2
 -------------

 ------------------------------------------------------
 Input file generated by CHIRIPA (05-May-2021 14:51:14)
 ------------------------------------------------------
 Symbolic Z-matrix:
 Charge =  0 Multiplicity = 1

                         Standard orientation:
 ---------------------------------------------------------------------
 Center     Atomic      Atomic             Coordinates (Angstroms)
 Number     Number       Type             X           Y           Z
 ---------------------------------------------------------------------
      1          6           0        3.349775    0.798488    0.163626
      2          6           0        4.635149    1.582000   -0.104530
      3          6           0        4.521983    3.055507    0.287597
      4          1           0        2.522145    1.263925   -0.388953
      5          1           0        3.096663    0.876690    1.230029
      6          1           0        4.886513    1.501195   -1.169848
      7          1           0        5.459852    1.114530    0.448600
      8          1           0        4.294761    3.154001    1.354025
      9          1           0        3.718165    3.542863   -0.273618
     10          1           0        5.451953    3.596768    0.087466
     11          6           0        3.447291   -0.676152   -0.223227
     12          6           0        2.161917   -1.459664    0.044929
     13          6           0        2.275082   -2.933171   -0.347198
     14          1           0        3.700402   -0.754354   -1.289630
     15          1           0        4.274920   -1.141589    0.329352
     16          1           0        1.337214   -0.992194   -0.508201
     17          1           0        1.910552   -1.378859    1.110247
     18          1           0        3.078900   -3.420527    0.214017
     19          1           0        2.502304   -3.031665   -1.413626
     20          1           0        1.345112   -3.474432   -0.147067
     21          6           0       -3.241024   -0.717585    0.387206
     22          6           0       -2.125489   -1.520376   -0.282939
     23          6           0       -1.821864   -2.830965    0.443672
     24          1           0       -2.957166   -0.504796    1.426962
     25          1           0       -4.150427   -1.332770    0.431116
     26          1           0       -1.218853   -0.903365   -0.326817
     27          1           0       -2.411951   -1.731114   -1.321276
     28          1           0       -2.711030   -3.468923    0.475178
     29          1           0       -1.511153   -2.636470    1.475288
     30          1           0       -1.021444   -3.388850   -0.052266
     31          6           0       -3.556042    0.595250   -0.327606
     32          6           0       -4.671576    1.398040    0.342539
     33          6           0       -4.975202    2.708629   -0.384070
     34          1           0       -2.646637    1.210433   -0.371515
     35          1           0       -3.839898    0.382460   -1.367361
     36          1           0       -4.385114    1.608779    1.380878
     37          1           0       -5.578211    0.781028    0.386418
     38          1           0       -5.285911    2.514134   -1.415687
     39          1           0       -4.086034    3.346586   -0.415577
     40          1           0       -5.775621    3.266514    0.111866
 ---------------------------------------------------------------------

 SCF Done:  E(RHF) =  -470.732946778     A.U. after   11 cycles
 E2 =    -0.1583240736D+01 EUMP2 =    -0.47231618751317D+03

 The electronic state is 1-A.
 Alpha  occ. eigenvalues --  -11.21617 -11.21600 -11.21599 -11.21576 -11.21420
 Alpha  occ. eigenvalues --  -11.21399 -11.21360 -11.21339 -11.21087 -11.21071
 Alpha  occ. eigenvalues --  -11.21057 -11.21042  -1.08452  -1.08414  -1.03576
 Alpha  occ. eigenvalues --   -1.03485  -0.96038  -0.95925  -0.87056  -0.86944
 Alpha  occ. eigenvalues --   -0.79668  -0.79528  -0.78294  -0.78199  -0.65108
 Alpha  occ. eigenvalues --   -0.65022  -0.61012  -0.60867  -0.59694  -0.59104
 Alpha  occ. eigenvalues --   -0.57800  -0.57336  -0.55275  -0.55244  -0.52960
 Alpha  occ. eigenvalues --   -0.52541  -0.52467  -0.52172  -0.49958  -0.49889
 Alpha  occ. eigenvalues --   -0.48113  -0.47750  -0.46789  -0.46494  -0.45913
 Alpha  occ. eigenvalues --   -0.45754  -0.45745  -0.45502  -0.43927  -0.43621
 Alpha virt. eigenvalues --    0.21038   0.23114   0.23365   0.25282   0.25485
 Alpha virt. eigenvalues --    0.26703   0.26879   0.27238   0.28227   0.29153
 Alpha virt. eigenvalues --    0.29850   0.30524   0.31411   0.31766   0.32520

 Mulliken charges:
               1
     1  C   -0.298252
     2  C   -0.299636
     3  C   -0.475727
     4  H    0.149191
     5  H    0.149349
     6  H    0.152040
     7  H    0.152047
     8  H    0.155119
     9  H    0.155125
    10  H    0.160355
    11  C   -0.298017
    12  C   -0.303467
    13  C   -0.481167
    14  H    0.149580
    15  H    0.149772
    16  H    0.156207
    17  H    0.151733
    18  H    0.155219
    19  H    0.154865
    20  H    0.165612
    21  C   -0.298070
    22  C   -0.304521
    23  C   -0.479826
    24  H    0.149726
    25  H    0.149469
    26  H    0.157214
    27  H    0.151515
    28  H    0.155071
    29  H    0.155248
    30  H    0.164452
    31  C   -0.298299
    32  C   -0.299635
    33  C   -0.475716
    34  H    0.149380
    35  H    0.149536
    36  H    0.152009
    37  H    0.151942
    38  H    0.155121
    39  H    0.155167
    40  H    0.160269
 Sum of Mulliken charges =  -0.00000

 Dipole moment (field-independent basis, Debye):
    X=              0.0038    Y=             -0.0041    Z=              0.0019  Tot=              0.0060
 Quadrupole moment (field-independent basis, Debye-Ang):
   XX=            -84.3742   YY=            -86.6552   ZZ=            -83.7793
   XY=              0.5110   XZ=              0.5758   YZ=              0.2139

 Normal termination of Gaussian 16 at Wed May  5 20:00:40 2021.
