 Gaussian 16, Revision A.03,
 Gaussian 16:  EM64L-G16RevA.03 25-Dec-2016

 -------------
 #p 6-31g* mp2
 -------------

 ------------------------------------------------------
 Input file generated by CHIRIPA (05-May-2021 14:55:20)
 ------------------------------------------------------
 Symbolic Z-matrix:
 Charge =  0 Multiplicity = 1

                         Standard orientation:
 ---------------------------------------------------------------------
 Center     Atomic      Atomic             Coordinates (Angstroms)
 Number     Number       Type             X           Y           Z
 ---------------------------------------------------------------------
      1          6           0       -3.454519    1.503618   -0.908391
      2          6           0       -3.849321    0.196910   -1.213624
      3          6           0       -3.185361   -0.895797   -0.648206
      4          6           0       -2.126039   -0.644157    0.222313
      5          6           0       -1.709111    0.646052    0.546073
      6          6           0       -2.387555    1.723631   -0.031063
      7          1           0       -3.975925    2.346583   -1.352173
      8          1           0       -4.677595    0.023046   -1.894637
      9          1           0       -3.470200   -1.917726   -0.867170
     10          1           0       -0.879821    0.787759    1.228433
     11          1           0       -2.078766    2.737355    0.207802
     12          7           0       -1.415468   -1.792949    0.827098
     13          8           0       -0.485264   -1.544567    1.591077
     14          8           0       -1.802180   -2.920002    0.525698
     15          6           0        3.439252    0.081790   -0.054985
     16          6           0        3.350188   -1.133248   -0.978964
     17          6           0        4.493503   -2.125209   -0.763000
     18          1           0        4.400962    0.587680   -0.216642
     19          1           0        3.437342   -0.259620    0.989444
     20          1           0        3.350871   -0.789562   -2.021315
     21          1           0        2.388497   -1.636193   -0.815226
     22          1           0        4.492253   -2.496190    0.267035
     23          1           0        5.460097   -1.644749   -0.945907
     24          1           0        4.410212   -2.986044   -1.433735
     25          6           0        2.303211    1.082555   -0.258965
     26          6           0        2.392274    2.297593    0.665013
     27          6           0        1.248960    3.289555    0.449051
     28          1           0        2.305121    1.423966   -1.303394
     29          1           0        1.341500    0.576666   -0.097309
     30          1           0        3.353966    2.800539    0.501275
     31          1           0        2.391591    1.953907    1.707364
     32          1           0        0.282367    2.809094    0.631957
     33          1           0        1.250209    3.660535   -0.580985
     34          1           0        1.332250    4.150390    1.119785
 ---------------------------------------------------------------------

 SCF Done:  E(RHF) =  -669.534640278     A.U. after   15 cycles
 E2 =    -0.2093883225D+01 EUMP2 =    -0.67162852350306D+03

 The electronic state is 1-A.
 Alpha  occ. eigenvalues --  -20.60909 -20.60904 -15.85941 -11.31250 -11.27804
 Alpha  occ. eigenvalues --  -11.27787 -11.27528 -11.26812 -11.26772 -11.21781
 Alpha  occ. eigenvalues --  -11.21675 -11.21260 -11.21092 -11.20990 -11.20541
 Alpha  occ. eigenvalues --   -1.59970  -1.39526  -1.19416  -1.08817  -1.08264
 Alpha  occ. eigenvalues --   -1.04824  -1.03429  -0.95912  -0.95665  -0.86948
 Alpha  occ. eigenvalues --   -0.86209  -0.82511  -0.79539  -0.78037  -0.77531
 Alpha  occ. eigenvalues --   -0.72162  -0.71285  -0.70542  -0.65092  -0.64975
 Alpha  occ. eigenvalues --   -0.64752  -0.62274  -0.60735  -0.59313  -0.57483
 Alpha  occ. eigenvalues --   -0.55354  -0.55171  -0.53147  -0.52961  -0.52605
 Alpha  occ. eigenvalues --   -0.52302  -0.49875  -0.48918  -0.48915  -0.47820
 Alpha  occ. eigenvalues --   -0.46526  -0.45605  -0.45448  -0.44844  -0.43639
 Alpha  occ. eigenvalues --   -0.37384  -0.36363
 Alpha virt. eigenvalues --    0.04932   0.11142   0.16397   0.20342   0.23004
 Alpha virt. eigenvalues --    0.24333   0.26151   0.26675   0.27742   0.28195
 Alpha virt. eigenvalues --    0.29386   0.30560   0.31539   0.31616   0.32600

 Mulliken charges:
               1
     1  C   -0.171119
     2  C   -0.218356
     3  C   -0.171051
     4  C    0.157976
     5  C   -0.171714
     6  C   -0.219546
     7  H    0.226080
     8  H    0.223712
     9  H    0.275604
    10  H    0.277314
    11  H    0.227186
    12  N    0.489003
    13  O   -0.462387
    14  O   -0.459038
    15  C   -0.297635
    16  C   -0.301320
    17  C   -0.475922
    18  H    0.146692
    19  H    0.156339
    20  H    0.147675
    21  H    0.160426
    22  H    0.159177
    23  H    0.151939
    24  H    0.160163
    25  C   -0.302817
    26  C   -0.301463
    27  C   -0.478969
    28  H    0.147070
    29  H    0.153847
    30  H    0.154039
    31  H    0.155745
    32  H    0.142651
    33  H    0.156953
    34  H    0.161746
 Sum of Mulliken charges =  -0.00000

 Dipole moment (field-independent basis, Debye):
    X=             -2.5105    Y=              3.9221    Z=             -2.1023  Tot=              5.1093
 Quadrupole moment (field-independent basis, Debye-Ang):
   XX=            -82.8068   YY=            -98.8735   ZZ=            -94.7370
   XY=             -4.1541   XZ=              5.7297   YZ=              3.6144

 Normal termination of Gaussian 16 at Thu May  6 17:28:20 2021.
