 Gaussian 16, Revision A.03,
 Gaussian 16:  EM64L-G16RevA.03 25-Dec-2016

 -------------
 #p 6-31g* mp2
 -------------

 ------------------------------------------------------
 Input file generated by CHIRIPA (05-May-2021 14:53:14)
 ------------------------------------------------------
 Symbolic Z-matrix:
 Charge =  0 Multiplicity = 1

                         Standard orientation:
 ---------------------------------------------------------------------
 Center     Atomic      Atomic             Coordinates (Angstroms)
 Number     Number       Type             X           Y           Z
 ---------------------------------------------------------------------
      1          6           0        5.707141    0.146963    0.150392
      2          6           0        6.909549    0.022745   -0.785969
      3          6           0        8.226313    0.409039   -0.111652
      4          1           0        5.642738    1.179859    0.519070
      5          1           0        5.869751   -0.489702    1.031079
      6          1           0        6.744097    0.658390   -1.665285
      7          1           0        6.970985   -1.009929   -1.152611
      8          1           0        8.418140   -0.232289    0.754663
      9          1           0        8.189963    1.445509    0.239076
     10          1           0        9.072636    0.312934   -0.798939
     11          6           0        4.383491   -0.235773   -0.509298
     12          6           0        3.181084   -0.111554    0.427062
     13          6           0        1.864319   -0.497848   -0.247254
     14          1           0        4.220882    0.400893   -1.389986
     15          1           0        4.447895   -1.268668   -0.877977
     16          1           0        3.119648    0.921120    0.793705
     17          1           0        3.346535   -0.747199    1.306378
     18          1           0        1.900669   -1.534318   -0.597982
     19          1           0        1.672492    0.143480   -1.113569
     20          1           0        1.017997   -0.401743    0.440032
     21          6           0       -1.769940   -0.158054    1.410015
     22          6           0       -2.322169    1.101478    1.154779
     23          6           0       -3.524985    1.220225    0.452154
     24          6           0       -4.151607    0.053325    0.017436
     25          6           0       -3.626558   -1.215789    0.256109
     26          6           0       -2.422746   -1.310635    0.960658
     27          1           0       -0.835177   -0.241015    1.956578
     28          1           0       -1.817392    1.998303    1.502554
     29          1           0       -3.974696    2.182772    0.240772
     30          1           0       -4.152925   -2.091706   -0.103229
     31          1           0       -1.996203   -2.290117    1.157431
     32          7           0       -5.425501    0.166386   -0.727419
     33          8           0       -5.957985   -0.876922   -1.099719
     34          8           0       -5.867375    1.296171   -0.924834
 ---------------------------------------------------------------------

 SCF Done:  E(RHF) =  -669.535117220     A.U. after   15 cycles
 E2 =    -0.2091258824D+01 EUMP2 =    -0.67162637604393D+03

 The electronic state is 1-A.
 Alpha  occ. eigenvalues --  -20.60758 -20.60753 -15.85812 -11.31185 -11.27751
 Alpha  occ. eigenvalues --  -11.27747 -11.27494 -11.26776 -11.26766 -11.22339
 Alpha  occ. eigenvalues --  -11.21997 -11.21955 -11.21873 -11.21847 -11.21412
 Alpha  occ. eigenvalues --   -1.59834  -1.39387  -1.19360  -1.08981  -1.08758
 Alpha  occ. eigenvalues --   -1.04760  -1.04099  -0.96550  -0.95590  -0.87564
 Alpha  occ. eigenvalues --   -0.86159  -0.82422  -0.80164  -0.78772  -0.77461
 Alpha  occ. eigenvalues --   -0.72030  -0.71156  -0.70509  -0.65606  -0.65013
 Alpha  occ. eigenvalues --   -0.64766  -0.62106  -0.61487  -0.59978  -0.58180
 Alpha  occ. eigenvalues --   -0.55815  -0.55315  -0.53378  -0.53026  -0.52854
 Alpha  occ. eigenvalues --   -0.52844  -0.50472  -0.48791  -0.48784  -0.48476
 Alpha  occ. eigenvalues --   -0.47193  -0.46318  -0.46229  -0.44791  -0.44353
 Alpha  occ. eigenvalues --   -0.37304  -0.36361
 Alpha virt. eigenvalues --    0.05030   0.11289   0.16408   0.20554   0.22488
 Alpha virt. eigenvalues --    0.23908   0.26127   0.26552   0.26991   0.27358
 Alpha virt. eigenvalues --    0.28640   0.30458   0.30888   0.31513   0.32509

 Mulliken charges:
               1
     1  C   -0.298542
     2  C   -0.300071
     3  C   -0.475959
     4  H    0.149740
     5  H    0.149469
     6  H    0.152832
     7  H    0.152586
     8  H    0.155315
     9  H    0.155433
    10  H    0.161555
    11  C   -0.298702
    12  C   -0.300126
    13  C   -0.477568
    14  H    0.151329
    15  H    0.150837
    16  H    0.150786
    17  H    0.150367
    18  H    0.156829
    19  H    0.160115
    20  H    0.151255
    21  C   -0.168237
    22  C   -0.219295
    23  C   -0.171044
    24  C    0.158877
    25  C   -0.170997
    26  C   -0.218486
    27  H    0.225723
    28  H    0.223586
    29  H    0.275595
    30  H    0.275657
    31  H    0.223900
    32  N    0.488051
    33  O   -0.460376
    34  O   -0.460435
 Sum of Mulliken charges =  -0.00000

 Dipole moment (field-independent basis, Debye):
    X=              4.5890    Y=             -0.3974    Z=              2.5691  Tot=              5.2742
 Quadrupole moment (field-independent basis, Debye-Ang):
   XX=           -133.2912   YY=            -88.9068   ZZ=            -95.5017
   XY=              1.7831   XZ=            -11.3330   YZ=              0.2270

 Normal termination of Gaussian 16 at Wed May  5 17:05:45 2021.
