 Gaussian 16, Revision A.03,
 Gaussian 16:  EM64L-G16RevA.03 25-Dec-2016

 -------------
 #p 6-31g* mp2
 -------------

 ------------------------------------------------------
 Input file generated by CHIRIPA (05-May-2021 14:53:13)
 ------------------------------------------------------
 Symbolic Z-matrix:
 Charge =  0 Multiplicity = 1

                         Standard orientation:
 ---------------------------------------------------------------------
 Center     Atomic      Atomic             Coordinates (Angstroms)
 Number     Number       Type             X           Y           Z
 ---------------------------------------------------------------------
      1          6           0       -2.800744   -0.462352    0.187853
      2          6           0       -3.637004   -1.541826   -0.500180
      3          6           0       -3.050426   -2.943290   -0.328077
      4          1           0       -1.779268   -0.485975   -0.215848
      5          1           0       -2.719413   -0.697929    1.258032
      6          1           0       -3.717892   -1.303543   -1.568494
      7          1           0       -4.656659   -1.515504   -0.094931
      8          1           0       -2.985168   -3.205995    0.732738
      9          1           0       -2.041067   -2.992830   -0.749198
     10          1           0       -3.663979   -3.699443   -0.827722
     11          6           0       -3.374345    0.944098    0.024735
     12          6           0       -2.538084    2.023572    0.712768
     13          6           0       -3.124662    3.425036    0.540665
     14          1           0       -3.455675    1.179675   -1.045445
     15          1           0       -4.395820    0.967720    0.428436
     16          1           0       -1.518429    1.997250    0.307518
     17          1           0       -2.457197    1.785289    1.781082
     18          1           0       -4.134021    3.474576    0.961786
     19          1           0       -3.189920    3.687741   -0.520150
     20          1           0       -2.511109    4.181189    1.040310
     21          6           0        1.638064   -2.531674    0.441144
     22          6           0        1.018517   -1.801433   -0.578381
     23          6           0        1.439156   -0.502146   -0.877486
     24          6           0        2.486979    0.038378   -0.133718
     25          6           0        3.124304   -0.663862    0.888028
     26          6           0        2.687131   -1.961563    1.169810
     27          1           0        1.304880   -3.540374    0.666767
     28          1           0        0.203556   -2.241646   -1.145917
     29          1           0        0.977219    0.085521   -1.661502
     30          1           0        3.934152   -0.198244    1.436447
     31          1           0        3.170134   -2.526336    1.962138
     32          7           0        2.941042    1.413035   -0.441199
     33          8           0        3.866325    1.866617    0.228691
     34          8           0        2.363057    2.010880   -1.346268
 ---------------------------------------------------------------------

 SCF Done:  E(RHF) =  -669.535148778     A.U. after   15 cycles
 E2 =    -0.2092723852D+01 EUMP2 =    -0.67162787263012D+03

 The electronic state is 1-A.
 Alpha  occ. eigenvalues --  -20.60804 -20.60798 -15.85857 -11.31228 -11.27804
 Alpha  occ. eigenvalues --  -11.27790 -11.27519 -11.26807 -11.26794 -11.22189
 Alpha  occ. eigenvalues --  -11.21963 -11.21780 -11.21617 -11.21555 -11.20954
 Alpha  occ. eigenvalues --   -1.59878  -1.39432  -1.19401  -1.08801  -1.08752
 Alpha  occ. eigenvalues --   -1.04810  -1.03860  -0.96328  -0.95623  -0.87350
 Alpha  occ. eigenvalues --   -0.86203  -0.82465  -0.79946  -0.78529  -0.77503
 Alpha  occ. eigenvalues --   -0.72075  -0.71201  -0.70497  -0.65461  -0.65051
 Alpha  occ. eigenvalues --   -0.64804  -0.62190  -0.61230  -0.59716  -0.57910
 Alpha  occ. eigenvalues --   -0.55663  -0.55285  -0.53152  -0.53002  -0.52964
 Alpha  occ. eigenvalues --   -0.52691  -0.50293  -0.48836  -0.48830  -0.48238
 Alpha  occ. eigenvalues --   -0.46971  -0.46068  -0.45968  -0.44834  -0.44092
 Alpha  occ. eigenvalues --   -0.37362  -0.36357
 Alpha virt. eigenvalues --    0.04993   0.11165   0.16364   0.19631   0.22941
 Alpha virt. eigenvalues --    0.23812   0.25563   0.26426   0.26938   0.28761
 Alpha virt. eigenvalues --    0.29207   0.29947   0.31253   0.31917   0.31952

 Mulliken charges:
               1
     1  C   -0.301507
     2  C   -0.300423
     3  C   -0.476370
     4  H    0.147518
     5  H    0.150424
     6  H    0.152265
     7  H    0.155395
     8  H    0.157012
     9  H    0.142821
    10  H    0.163581
    11  C   -0.298744
    12  C   -0.300713
    13  C   -0.475823
    14  H    0.149751
    15  H    0.150087
    16  H    0.155717
    17  H    0.151345
    18  H    0.153608
    19  H    0.156666
    20  H    0.163768
    21  C   -0.172835
    22  C   -0.218848
    23  C   -0.172408
    24  C    0.158648
    25  C   -0.170892
    26  C   -0.218471
    27  H    0.226490
    28  H    0.229702
    29  H    0.275552
    30  H    0.275769
    31  H    0.223704
    32  N    0.488082
    33  O   -0.460110
    34  O   -0.460761
 Sum of Mulliken charges =  -0.00000

 Dipole moment (field-independent basis, Debye):
    X=             -1.6194    Y=             -4.7733    Z=              1.1482  Tot=              5.1696
 Quadrupole moment (field-independent basis, Debye-Ang):
   XX=           -100.2722   YY=            -96.7358   ZZ=            -92.1330
   XY=            -12.1906   XZ=              5.3369   YZ=              0.2047

 Normal termination of Gaussian 16 at Thu May  6 07:20:37 2021.
