 Gaussian 16, Revision A.03,
 Gaussian 16:  EM64L-G16RevA.03 25-Dec-2016

 -------------
 #p 6-31g* mp2
 -------------

 ------------------------------------------------------
 Input file generated by CHIRIPA (05-May-2021 14:57:21)
 ------------------------------------------------------
 Symbolic Z-matrix:
 Charge =  0 Multiplicity = 1

                         Standard orientation:
 ---------------------------------------------------------------------
 Center     Atomic      Atomic             Coordinates (Angstroms)
 Number     Number       Type             X           Y           Z
 ---------------------------------------------------------------------
      1          6           0       -3.052867    2.408305    1.177030
      2          6           0       -3.142128    2.362752   -0.218133
      3          6           0       -3.060149    1.142435   -0.895373
      4          6           0       -2.888041   -0.018160   -0.142586
      5          6           0       -2.795636   -0.005423    1.248309
      6          6           0       -2.880210    1.226157    1.904515
      7          1           0       -3.117558    3.360651    1.694956
      8          1           0       -3.276223    3.279233   -0.785695
      9          1           0       -3.126188    1.078361   -1.974702
     10          1           0       -2.662047   -0.935788    1.786819
     11          1           0       -2.810568    1.258514    2.988096
     12          7           0       -2.799880   -1.316017   -0.848416
     13          8           0       -2.648183   -2.324343   -0.162193
     14          8           0       -2.884146   -1.300375   -2.074504
     15          6           0        1.492822   -2.062152    0.972326
     16          6           0        1.230920   -1.567906   -0.309723
     17          6           0        2.005570   -0.533990   -0.844029
     18          6           0        3.038861   -0.015305   -0.065206
     19          6           0        3.324555   -0.486384    1.215323
     20          6           0        2.536963   -1.520767    1.729423
     21          1           0        0.886029   -2.865504    1.379540
     22          1           0        0.420675   -1.986438   -0.899960
     23          1           0        1.824657   -0.132525   -1.833733
     24          1           0        4.139081   -0.048989    1.779815
     25          1           0        2.742648   -1.902629    2.725375
     26          7           0        3.865799    1.079503   -0.620156
     27          8           0        4.770358    1.519427    0.086155
     28          8           0        3.593734    1.476959   -1.750929
 ---------------------------------------------------------------------

 SCF Done:  E(RHF) =  -868.339825181     A.U. after   16 cycles
 E2 =    -0.2599333613D+01 EUMP2 =    -0.87093915879347D+03

 The electronic state is 1-A.
 Alpha  occ. eigenvalues --  -20.61703 -20.61664 -20.60613 -20.60606 -15.86708
 Alpha  occ. eigenvalues --  -15.85660 -11.31761 -11.30913 -11.28324 -11.28270
 Alpha  occ. eigenvalues --  -11.27956 -11.27499 -11.27414 -11.27242 -11.27199
 Alpha  occ. eigenvalues --  -11.27106 -11.26483 -11.26294  -1.60768  -1.59691
 Alpha  occ. eigenvalues --   -1.40324  -1.39247  -1.19902  -1.19061  -1.09353
 Alpha  occ. eigenvalues --   -1.08461  -1.05257  -1.04439  -0.96240  -0.95320
 Alpha  occ. eigenvalues --   -0.86670  -0.85827  -0.83082  -0.82153  -0.78173
 Alpha  occ. eigenvalues --   -0.77231  -0.72926  -0.72106  -0.71875  -0.71015
 Alpha  occ. eigenvalues --   -0.71003  -0.70127  -0.65556  -0.65253  -0.64697
 Alpha  occ. eigenvalues --   -0.64393  -0.62614  -0.61771  -0.55757  -0.54888
 Alpha  occ. eigenvalues --   -0.53602  -0.53345  -0.52788  -0.52497  -0.49704
 Alpha  occ. eigenvalues --   -0.49658  -0.48642  -0.48625  -0.45793  -0.44678
 Alpha  occ. eigenvalues --   -0.37863  -0.37044  -0.36820  -0.36049
 Alpha virt. eigenvalues --    0.04301   0.05289   0.10788   0.11612   0.15881
 Alpha virt. eigenvalues --    0.16806   0.20925   0.21886   0.26866   0.27466
 Alpha virt. eigenvalues --    0.27943   0.28787   0.30679   0.31274   0.32192

 Mulliken charges:
               1
     1  C   -0.169040
     2  C   -0.217666
     3  C   -0.170831
     4  C    0.157274
     5  C   -0.169540
     6  C   -0.217848
     7  H    0.228730
     8  H    0.226997
     9  H    0.276669
    10  H    0.271931
    11  H    0.224483
    12  N    0.485887
    13  O   -0.466982
    14  O   -0.458116
    15  C   -0.173294
    16  C   -0.227695
    17  C   -0.172333
    18  C    0.158047
    19  C   -0.172467
    20  C   -0.219833
    21  H    0.231348
    22  H    0.239289
    23  H    0.275862
    24  H    0.273499
    25  H    0.221165
    26  N    0.487995
    27  O   -0.462257
    28  O   -0.461274
 Sum of Mulliken charges =  -0.00000

 Dipole moment (field-independent basis, Debye):
    X=             -3.4746    Y=              0.8179    Z=              4.4147  Tot=              5.6773
 Quadrupole moment (field-independent basis, Debye-Ang):
   XX=           -120.9552   YY=           -104.5059   ZZ=            -98.6436
   XY=            -25.9538   XZ=              2.0121   YZ=             -2.6123

 Normal termination of Gaussian 16 at Thu May  6 03:17:40 2021.
