 Gaussian 16, Revision A.03,
 Gaussian 16:  EM64L-G16RevA.03 25-Dec-2016

 -------------
 #p 6-31g* mp2
 -------------

 ------------------------------------------------------
 Input file generated by CHIRIPA (05-May-2021 14:55:25)
 ------------------------------------------------------
 Symbolic Z-matrix:
 Charge =  0 Multiplicity = 1

                         Standard orientation:
 ---------------------------------------------------------------------
 Center     Atomic      Atomic             Coordinates (Angstroms)
 Number     Number       Type             X           Y           Z
 ---------------------------------------------------------------------
      1          6           0        0.278198   -0.658679   -0.259745
      2          6           0        0.699793    0.660049   -0.060414
      3          6           0        2.059870    0.959940    0.061265
      4          6           0        2.975250   -0.088151   -0.021638
      5          6           0        2.586454   -1.412125   -0.219679
      6          6           0        1.221211   -1.688742   -0.338602
      7          1           0       -0.780349   -0.882602   -0.353198
      8          1           0       -0.030328    1.462027    0.001228
      9          1           0        2.413829    1.971951    0.216071
     10          1           0        3.337827   -2.190316   -0.276902
     11          1           0        0.896684   -2.713817   -0.493353
     12          7           0        4.417837    0.217010    0.105719
     13          8           0        5.204403   -0.724309    0.029114
     14          8           0        4.734654    1.391736    0.279736
     15          6           0       -3.321960    0.844410    0.378818
     16          6           0       -3.449550    2.035330   -0.571663
     17          6           0       -3.081988    3.363037    0.091577
     18          1           0       -3.966677    1.010211    1.252772
     19          1           0       -2.291115    0.793967    0.755926
     20          1           0       -4.479495    2.082689   -0.947941
     21          1           0       -2.804600    1.866585   -1.443546
     22          1           0       -2.048350    3.340625    0.451702
     23          1           0       -3.732761    3.557958    0.950123
     24          1           0       -3.180216    4.200884   -0.605721
     25          6           0       -3.686026   -0.489989   -0.269691
     26          6           0       -3.558435   -1.680909    0.680791
     27          6           0       -3.925997   -3.008616    0.017551
     28          1           0       -4.716870   -0.439547   -0.646799
     29          1           0       -3.041309   -0.655791   -1.143644
     30          1           0       -4.203385   -1.512165    1.552674
     31          1           0       -2.528490   -1.728269    1.057069
     32          1           0       -3.275224   -3.203537   -0.840995
     33          1           0       -4.959636   -2.986206   -0.342574
     34          1           0       -3.827768   -3.846463    0.714849
 ---------------------------------------------------------------------

 SCF Done:  E(RHF) =  -669.534122332     A.U. after   15 cycles
 E2 =    -0.2094152758D+01 EUMP2 =    -0.67162827509024D+03

 The electronic state is 1-A.
 Alpha  occ. eigenvalues --  -20.60741 -20.60736 -15.85794 -11.31162 -11.27730
 Alpha  occ. eigenvalues --  -11.27726 -11.27395 -11.26734 -11.26718 -11.22865
 Alpha  occ. eigenvalues --  -11.22779 -11.22745 -11.22677 -11.22178 -11.22159
 Alpha  occ. eigenvalues --   -1.59817  -1.39370  -1.19331  -1.09769  -1.08715
 Alpha  occ. eigenvalues --   -1.04770  -1.04709  -0.97187  -0.95562  -0.88192
 Alpha  occ. eigenvalues --   -0.86139  -0.82400  -0.80787  -0.79548  -0.77445
 Alpha  occ. eigenvalues --   -0.72014  -0.71140  -0.70614  -0.66477  -0.64977
 Alpha  occ. eigenvalues --   -0.64622  -0.62353  -0.61909  -0.60527  -0.58771
 Alpha  occ. eigenvalues --   -0.56575  -0.55116  -0.53814  -0.53579  -0.53064
 Alpha  occ. eigenvalues --   -0.52829  -0.51133  -0.49087  -0.48767  -0.48763
 Alpha  occ. eigenvalues --   -0.47858  -0.47047  -0.47018  -0.45006  -0.44775
 Alpha  occ. eigenvalues --   -0.37290  -0.36339
 Alpha virt. eigenvalues --    0.05061   0.11232   0.16465   0.18142   0.21350
 Alpha virt. eigenvalues --    0.23776   0.25499   0.25958   0.26515   0.27816
 Alpha virt. eigenvalues --    0.29733   0.30284   0.30723   0.31339   0.32564

 Mulliken charges:
               1
     1  C   -0.179016
     2  C   -0.229025
     3  C   -0.171553
     4  C    0.158414
     5  C   -0.170498
     6  C   -0.222580
     7  H    0.242494
     8  H    0.230592
     9  H    0.275845
    10  H    0.275504
    11  H    0.223733
    12  N    0.487964
    13  O   -0.460485
    14  O   -0.460406
    15  C   -0.304686
    16  C   -0.302824
    17  C   -0.477390
    18  H    0.157217
    19  H    0.144335
    20  H    0.157876
    21  H    0.151002
    22  H    0.149877
    23  H    0.160185
    24  H    0.165848
    25  C   -0.307581
    26  C   -0.305598
    27  C   -0.475949
    28  H    0.159140
    29  H    0.144198
    30  H    0.159308
    31  H    0.147896
    32  H    0.151559
    33  H    0.160109
    34  H    0.164495
 Sum of Mulliken charges =  -0.00000

 Dipole moment (field-independent basis, Debye):
    X=             -5.4175    Y=             -1.0404    Z=             -0.4137  Tot=              5.5320
 Quadrupole moment (field-independent basis, Debye-Ang):
   XX=           -122.8844   YY=            -90.3895   ZZ=            -95.5540
   XY=             -4.4743   XZ=             -1.8997   YZ=              0.3265

 Normal termination of Gaussian 16 at Wed May  5 16:09:36 2021.
