 Gaussian 16, Revision A.03,
 Gaussian 16:  EM64L-G16RevA.03 25-Dec-2016

 -------------
 #p 6-31g* mp2
 -------------

 ------------------------------------------------------
 Input file generated by CHIRIPA (05-May-2021 14:57:25)
 ------------------------------------------------------
 Symbolic Z-matrix:
 Charge =  0 Multiplicity = 1

                         Standard orientation:
 ---------------------------------------------------------------------
 Center     Atomic      Atomic             Coordinates (Angstroms)
 Number     Number       Type             X           Y           Z
 ---------------------------------------------------------------------
      1          6           0       -3.506574   -1.401380    0.003906
      2          6           0       -3.011154   -0.851917    1.190992
      3          6           0       -2.250531    0.320874    1.167319
      4          6           0       -2.003363    0.920619   -0.066579
      5          6           0       -2.483082    0.397546   -1.266393
      6          6           0       -3.241424   -0.775997   -1.218842
      7          1           0       -4.096558   -2.312725    0.031571
      8          1           0       -3.215500   -1.335439    2.142041
      9          1           0       -1.854747    0.767754    2.071239
     10          1           0       -2.262805    0.902291   -2.199200
     11          1           0       -3.624889   -1.200463   -2.142328
     12          7           0       -1.199332    2.162598   -0.104280
     13          8           0       -0.995571    2.671770   -1.204217
     14          8           0       -0.788119    2.603373    0.966822
     15          6           0        0.378167   -2.523470    0.156079
     16          6           0        1.129839   -2.339013   -1.009032
     17          6           0        2.106376   -1.340620   -1.073348
     18          6           0        2.305806   -0.541179    0.051112
     19          6           0        1.573113   -0.700286    1.226329
     20          6           0        0.601809   -1.704961    1.268081
     21          1           0       -0.378399   -3.301485    0.197277
     22          1           0        0.958319   -2.973191   -1.874158
     23          1           0        2.702606   -1.176050   -1.962643
     24          1           0        1.766889   -0.052454    2.072605
     25          1           0        0.019550   -1.845932    2.174252
     26          7           0        3.336852    0.519100   -0.005032
     27          8           0        3.493305    1.210196    0.999232
     28          8           0        3.969012    0.638974   -1.052239
 ---------------------------------------------------------------------

 SCF Done:  E(RHF) =  -868.335202987     A.U. after   16 cycles
 E2 =    -0.2604887794D+01 EUMP2 =    -0.87094009078102D+03

 The electronic state is 1-A.
 Alpha  occ. eigenvalues --  -20.60997 -20.60991 -20.60340 -20.60307 -15.86054
 Alpha  occ. eigenvalues --  -15.85393 -11.31638 -11.31012 -11.28308 -11.28253
 Alpha  occ. eigenvalues --  -11.28105 -11.27614 -11.27585 -11.27458 -11.27373
 Alpha  occ. eigenvalues --  -11.27327 -11.26742 -11.26721  -1.60063  -1.59392
 Alpha  occ. eigenvalues --   -1.39613  -1.38939  -1.19874  -1.19223  -1.09228
 Alpha  occ. eigenvalues --   -1.08579  -1.05338  -1.04670  -0.96020  -0.95364
 Alpha  occ. eigenvalues --   -0.86715  -0.86064  -0.82860  -0.82205  -0.77860
 Alpha  occ. eigenvalues --   -0.77193  -0.72267  -0.71613  -0.71402  -0.71009
 Alpha  occ. eigenvalues --   -0.70705  -0.70340  -0.65537  -0.65348  -0.64879
 Alpha  occ. eigenvalues --   -0.64716  -0.62685  -0.62010  -0.55839  -0.55199
 Alpha  occ. eigenvalues --   -0.54088  -0.53432  -0.52794  -0.52526  -0.49039
 Alpha  occ. eigenvalues --   -0.49013  -0.48393  -0.48344  -0.44971  -0.44286
 Alpha  occ. eigenvalues --   -0.37938  -0.37542  -0.37006  -0.35749
 Alpha virt. eigenvalues --    0.04628   0.05383   0.10673   0.11372   0.16015
 Alpha virt. eigenvalues --    0.16867   0.20109   0.21791   0.25742   0.27280
 Alpha virt. eigenvalues --    0.28152   0.28689   0.29905   0.31338   0.31920

 Mulliken charges:
               1
     1  C   -0.174791
     2  C   -0.223188
     3  C   -0.167990
     4  C    0.164115
     5  C   -0.168468
     6  C   -0.219317
     7  H    0.224238
     8  H    0.220176
     9  H    0.273791
    10  H    0.277891
    11  H    0.223596
    12  N    0.487078
    13  O   -0.456843
    14  O   -0.458025
    15  C   -0.166326
    16  C   -0.219934
    17  C   -0.170692
    18  C    0.158505
    19  C   -0.172363
    20  C   -0.214826
    21  H    0.218947
    22  H    0.220412
    23  H    0.276268
    24  H    0.279363
    25  H    0.214910
    26  N    0.489388
    27  O   -0.455181
    28  O   -0.460734
 Sum of Mulliken charges =  -0.00000

 Dipole moment (field-independent basis, Debye):
    X=             -6.3547    Y=             -7.7908    Z=              0.2456  Tot=             10.0568
 Quadrupole moment (field-independent basis, Debye-Ang):
   XX=           -111.4899   YY=           -110.1232   ZZ=            -95.5724
   XY=             -0.7635   XZ=             -0.1291   YZ=              1.4682

 Normal termination of Gaussian 16 at Thu May  6 08:21:18 2021.
