 Gaussian 16, Revision A.03,
 Gaussian 16:  EM64L-G16RevA.03 25-Dec-2016

 -------------
 #p 6-31g* mp2
 -------------

 ------------------------------------------------------
 Input file generated by CHIRIPA (05-May-2021 14:57:26)
 ------------------------------------------------------
 Symbolic Z-matrix:
 Charge =  0 Multiplicity = 1

                         Standard orientation:
 ---------------------------------------------------------------------
 Center     Atomic      Atomic             Coordinates (Angstroms)
 Number     Number       Type             X           Y           Z
 ---------------------------------------------------------------------
      1          6           0       -1.287219   -0.859591   -0.297061
      2          6           0       -1.698041    0.423616   -0.672729
      3          6           0       -3.042089    0.795842   -0.575103
      4          6           0       -3.952602   -0.144480   -0.095466
      5          6           0       -3.574252   -1.430598    0.286689
      6          6           0       -2.224982   -1.780978    0.180607
      7          1           0       -0.241102   -1.140259   -0.376183
      8          1           0       -0.971963    1.141242   -1.044036
      9          1           0       -3.387454    1.782527   -0.858991
     10          1           0       -4.321241   -2.124210    0.653197
     11          1           0       -1.908796   -2.778239    0.473084
     12          7           0       -5.378249    0.238015    0.012363
     13          8           0       -6.160826   -0.608775    0.437988
     14          8           0       -5.686100    1.377362   -0.330789
     15          6           0        2.369647    2.302187    0.514749
     16          6           0        1.794738    1.046504    0.736695
     17          6           0        2.532238   -0.120804    0.517527
     18          6           0        3.847956    0.005015    0.074421
     19          6           0        4.448830    1.241646   -0.155762
     20          6           0        3.692525    2.395587    0.070013
     21          1           0        1.789436    3.203788    0.687571
     22          1           0        0.767586    0.970938    1.082084
     23          1           0        2.111938   -1.105652    0.681363
     24          1           0        5.474985    1.285043   -0.500059
     25          1           0        4.141603    3.369431   -0.103191
     26          7           0        4.638668   -1.223686   -0.161101
     27          8           0        5.795927   -1.085880   -0.551482
     28          8           0        4.086195   -2.301280    0.049139
 ---------------------------------------------------------------------

 SCF Done:  E(RHF) =  -868.336898728     A.U. after   16 cycles
 E2 =    -0.2601705400D+01 EUMP2 =    -0.87093860412812D+03

 The electronic state is 1-A.
 Alpha  occ. eigenvalues --  -20.61595 -20.61575 -20.61246 -20.61237 -15.86645
 Alpha  occ. eigenvalues --  -15.86301 -11.32144 -11.31793 -11.28792 -11.28648
 Alpha  occ. eigenvalues --  -11.28417 -11.28388 -11.28329 -11.28142 -11.27718
 Alpha  occ. eigenvalues --  -11.27673 -11.27442 -11.27363  -1.60659  -1.60317
 Alpha  occ. eigenvalues --   -1.40211  -1.39866  -1.20312  -1.19978  -1.09669
 Alpha  occ. eigenvalues --   -1.09362  -1.05744  -1.05386  -0.96492  -0.96172
 Alpha  occ. eigenvalues --   -0.87141  -0.86760  -0.83343  -0.82977  -0.78383
 Alpha  occ. eigenvalues --   -0.78000  -0.72860  -0.72516  -0.71985  -0.71641
 Alpha  occ. eigenvalues --   -0.71488  -0.71032  -0.65953  -0.65863  -0.65583
 Alpha  occ. eigenvalues --   -0.65311  -0.63085  -0.62682  -0.56217  -0.55884
 Alpha  occ. eigenvalues --   -0.54061  -0.53952  -0.53562  -0.53433  -0.49627
 Alpha  occ. eigenvalues --   -0.49607  -0.49284  -0.49263  -0.45588  -0.45243
 Alpha  occ. eigenvalues --   -0.38285  -0.37993  -0.37331  -0.36972
 Alpha virt. eigenvalues --    0.04127   0.04491   0.10064   0.10655   0.15519
 Alpha virt. eigenvalues --    0.15901   0.19531   0.21842   0.25061   0.26423
 Alpha virt. eigenvalues --    0.27562   0.29290   0.29994   0.30578   0.32081

 Mulliken charges:
               1
     1  C   -0.180234
     2  C   -0.226424
     3  C   -0.170841
     4  C    0.159261
     5  C   -0.169962
     6  C   -0.218979
     7  H    0.229669
     8  H    0.224541
     9  H    0.276210
    10  H    0.278336
    11  H    0.228260
    12  N    0.487950
    13  O   -0.458054
    14  O   -0.459717
    15  C   -0.173590
    16  C   -0.227026
    17  C   -0.179456
    18  C    0.160808
    19  C   -0.169944
    20  C   -0.217096
    21  H    0.228738
    22  H    0.230448
    23  H    0.270712
    24  H    0.278800
    25  H    0.227344
    26  N    0.488257
    27  O   -0.456521
    28  O   -0.461489
 Sum of Mulliken charges =  -0.00000

 Dipole moment (field-independent basis, Debye):
    X=              2.2974    Y=              3.0207    Z=              0.4398  Tot=              3.8204
 Quadrupole moment (field-independent basis, Debye-Ang):
   XX=           -161.6527   YY=            -98.7089   ZZ=           -105.1510
   XY=             25.6526   XZ=              2.2947   YZ=             -2.2023

 Normal termination of Gaussian 16 at Thu May  6 09:55:30 2021.
