 Gaussian 16, Revision A.03,
 Gaussian 16:  EM64L-G16RevA.03 25-Dec-2016

 -------------
 #p 6-31g* mp2
 -------------

 ------------------------------------------------------
 Input file generated by CHIRIPA (05-May-2021 14:51:12)
 ------------------------------------------------------
 Symbolic Z-matrix:
 Charge =  0 Multiplicity = 1

                         Standard orientation:
 ---------------------------------------------------------------------
 Center     Atomic      Atomic             Coordinates (Angstroms)
 Number     Number       Type             X           Y           Z
 ---------------------------------------------------------------------
      1          6           0       -3.082515    1.075072    0.442862
      2          6           0       -2.398674    2.016348   -0.549281
      3          6           0       -1.774875    3.237104    0.127788
      4          1           0       -3.857878    1.629157    0.989438
      5          1           0       -2.348053    0.745392    1.190707
      6          1           0       -3.133878    2.343062   -1.295839
      7          1           0       -1.624978    1.459908   -1.093694
      8          1           0       -1.021162    2.928648    0.859479
      9          1           0       -2.538635    3.816819    0.656186
     10          1           0       -1.291473    3.896473   -0.599820
     11          6           0       -3.710911   -0.150040   -0.218914
     12          6           0       -4.394752   -1.091316    0.773229
     13          6           0       -5.018550   -2.312073    0.096160
     14          1           0       -4.445373    0.179639   -0.966759
     15          1           0       -2.935548   -0.704126   -0.765490
     16          1           0       -5.168448   -0.534877    1.317642
     17          1           0       -3.659548   -1.418030    1.519787
     18          1           0       -4.254791   -2.891787   -0.432238
     19          1           0       -5.772264   -2.003616   -0.635531
     20          1           0       -5.501953   -2.971442    0.823768
     21          6           0        3.985283    0.023669   -0.086649
     22          6           0        5.285600   -0.622782    0.392164
     23          6           0        6.453900    0.362518    0.437460
     24          1           0        4.143058    0.453697   -1.085212
     25          1           0        3.733955    0.861529    0.578347
     26          1           0        5.533667   -1.460042   -0.272723
     27          1           0        5.124656   -1.051489    1.389623
     28          1           0        6.231657    1.192663    1.115744
     29          1           0        6.642990    0.781789   -0.556047
     30          1           0        7.373381   -0.120606    0.782431
     31          6           0        2.808143   -0.948701   -0.137299
     32          6           0        1.507826   -0.302248   -0.616112
     33          6           0        0.339526   -1.287549   -0.661409
     34          1           0        3.059470   -1.786561   -0.802295
     35          1           0        2.650368   -1.378729    0.861264
     36          1           0        1.668768    0.126458   -1.613571
     37          1           0        1.259758    0.535011    0.048776
     38          1           0        0.150434   -1.706820    0.332100
     39          1           0        0.561769   -2.117695   -1.339692
     40          1           0       -0.579956   -0.804425   -1.006378
 ---------------------------------------------------------------------

 SCF Done:  E(RHF) =  -470.732903594     A.U. after   11 cycles
 E2 =    -0.1583646367D+01 EUMP2 =    -0.47231654996037D+03

 The electronic state is 1-A.
 Alpha  occ. eigenvalues --  -11.21673 -11.21627 -11.21586 -11.21565 -11.21449
 Alpha  occ. eigenvalues --  -11.21386 -11.21371 -11.21306 -11.21135 -11.21089
 Alpha  occ. eigenvalues --  -11.21070 -11.21032  -1.08484  -1.08401  -1.03586
 Alpha  occ. eigenvalues --   -1.03500  -0.96042  -0.95947  -0.87053  -0.86972
 Alpha  occ. eigenvalues --   -0.79649  -0.79568  -0.78285  -0.78227  -0.65168
 Alpha  occ. eigenvalues --   -0.65036  -0.61007  -0.60889  -0.59419  -0.59294
 Alpha  occ. eigenvalues --   -0.57652  -0.57552  -0.55332  -0.55237  -0.52783
 Alpha  occ. eigenvalues --   -0.52626  -0.52449  -0.52375  -0.49967  -0.49897
 Alpha  occ. eigenvalues --   -0.47977  -0.47891  -0.46671  -0.46606  -0.45831
 Alpha  occ. eigenvalues --   -0.45759  -0.45741  -0.45670  -0.43791  -0.43723
 Alpha virt. eigenvalues --    0.20162   0.23104   0.23691   0.24854   0.25891
 Alpha virt. eigenvalues --    0.26271   0.27124   0.27322   0.28159   0.29273
 Alpha virt. eigenvalues --    0.30571   0.31180   0.31693   0.31824   0.32281

 Mulliken charges:
               1
     1  C   -0.298556
     2  C   -0.304483
     3  C   -0.475564
     4  H    0.149827
     5  H    0.150132
     6  H    0.151941
     7  H    0.156140
     8  H    0.154956
     9  H    0.155160
    10  H    0.160399
    11  C   -0.303800
    12  C   -0.299138
    13  C   -0.475932
    14  H    0.149288
    15  H    0.154795
    16  H    0.151683
    17  H    0.151974
    18  H    0.155762
    19  H    0.154983
    20  H    0.160056
    21  C   -0.298295
    22  C   -0.299681
    23  C   -0.475737
    24  H    0.149804
    25  H    0.149655
    26  H    0.151977
    27  H    0.151961
    28  H    0.155273
    29  H    0.155246
    30  H    0.160338
    31  C   -0.298667
    32  C   -0.299912
    33  C   -0.485501
    34  H    0.149784
    35  H    0.149680
    36  H    0.152190
    37  H    0.152647
    38  H    0.154955
    39  H    0.155656
    40  H    0.169004
 Sum of Mulliken charges =  -0.00000

 Dipole moment (field-independent basis, Debye):
    X=              0.0228    Y=             -0.0056    Z=             -0.0104  Tot=              0.0257
 Quadrupole moment (field-independent basis, Debye-Ang):
   XX=            -85.1310   YY=            -85.7110   ZZ=            -83.9392
   XY=             -1.5178   XZ=             -0.3807   YZ=             -0.1921

 Normal termination of Gaussian 16 at Wed May  5 16:48:13 2021.
