 Gaussian 16, Revision A.03,
 Gaussian 16:  EM64L-G16RevA.03 25-Dec-2016

 -------------
 #p 6-31g* mp2
 -------------

 ------------------------------------------------------
 Input file generated by CHIRIPA (05-May-2021 14:55:25)
 ------------------------------------------------------
 Symbolic Z-matrix:
 Charge =  0 Multiplicity = 1

                         Standard orientation:
 ---------------------------------------------------------------------
 Center     Atomic      Atomic             Coordinates (Angstroms)
 Number     Number       Type             X           Y           Z
 ---------------------------------------------------------------------
      1          6           0        1.594932    1.849376    0.801581
      2          6           0        2.136822    0.991966    1.764765
      3          6           0        2.968426   -0.066139    1.386087
      4          6           0        3.238415   -0.238427    0.029358
      5          6           0        2.713687    0.598855   -0.953958
      6          6           0        1.884583    1.650435   -0.552319
      7          1           0        0.949893    2.668803    1.104665
      8          1           0        1.913595    1.144069    2.816943
      9          1           0        3.401326   -0.744898    2.110864
     10          1           0        2.954336    0.421968   -1.995215
     11          1           0        1.465147    2.314741   -1.302530
     12          7           0        4.117473   -1.355142   -0.383685
     13          8           0        4.340031   -1.485600   -1.585386
     14          8           0        4.567276   -2.078820    0.502094
     15          6           0       -3.776541    0.768111   -0.373639
     16          6           0       -2.323284    1.150661   -0.091353
     17          6           0       -1.971997    2.550831   -0.595254
     18          1           0       -3.961170    0.827217   -1.455011
     19          1           0       -4.440743    1.505765    0.097634
     20          1           0       -1.662046    0.411735   -0.561853
     21          1           0       -2.142040    1.090453    0.989453
     22          1           0       -2.607571    3.303092   -0.116976
     23          1           0       -2.124850    2.620518   -1.677095
     24          1           0       -0.928520    2.803798   -0.383065
     25          6           0       -4.142909   -0.628900    0.124213
     26          6           0       -5.596166   -1.011450   -0.158074
     27          6           0       -5.947453   -2.411620    0.345827
     28          1           0       -3.478707   -1.366554   -0.347061
     29          1           0       -3.958280   -0.688006    1.205584
     30          1           0       -5.777410   -0.951242   -1.238880
     31          1           0       -6.257404   -0.272524    0.312426
     32          1           0       -5.794601   -2.481307    1.427668
     33          1           0       -5.311880   -3.163880   -0.132451
     34          1           0       -6.990930   -2.664586    0.133638
 ---------------------------------------------------------------------

 SCF Done:  E(RHF) =  -669.534860406     A.U. after   15 cycles
 E2 =    -0.2092197825D+01 EUMP2 =    -0.67162705823077D+03

 The electronic state is 1-A.
 Alpha  occ. eigenvalues --  -20.60767 -20.60762 -15.85821 -11.31189 -11.27759
 Alpha  occ. eigenvalues --  -11.27756 -11.27493 -11.26773 -11.26761 -11.22297
 Alpha  occ. eigenvalues --  -11.22064 -11.21927 -11.21916 -11.21767 -11.21311
 Alpha  occ. eigenvalues --   -1.59843  -1.39396  -1.19365  -1.08943  -1.08757
 Alpha  occ. eigenvalues --   -1.04769  -1.04077  -0.96557  -0.95591  -0.87575
 Alpha  occ. eigenvalues --   -0.86166  -0.82426  -0.80138  -0.78707  -0.77471
 Alpha  occ. eigenvalues --   -0.72040  -0.71166  -0.70513  -0.65561  -0.65030
 Alpha  occ. eigenvalues --   -0.64804  -0.62138  -0.61464  -0.59956  -0.58154
 Alpha  occ. eigenvalues --   -0.55829  -0.55272  -0.53346  -0.53092  -0.52905
 Alpha  occ. eigenvalues --   -0.52788  -0.50468  -0.48798  -0.48794  -0.48453
 Alpha  occ. eigenvalues --   -0.47153  -0.46261  -0.46158  -0.44801  -0.44331
 Alpha  occ. eigenvalues --   -0.37314  -0.36363
 Alpha virt. eigenvalues --    0.05045   0.11203   0.16493   0.20231   0.22638
 Alpha virt. eigenvalues --    0.24098   0.26140   0.26369   0.26923   0.27514
 Alpha virt. eigenvalues --    0.28736   0.30424   0.30876   0.31329   0.31685

 Mulliken charges:
               1
     1  C   -0.169913
     2  C   -0.219300
     3  C   -0.170885
     4  C    0.158350
     5  C   -0.171945
     6  C   -0.218159
     7  H    0.227159
     8  H    0.223451
     9  H    0.275615
    10  H    0.275600
    11  H    0.224948
    12  N    0.488093
    13  O   -0.460489
    14  O   -0.460388
    15  C   -0.299078
    16  C   -0.299090
    17  C   -0.478875
    18  H    0.150946
    19  H    0.149677
    20  H    0.156945
    21  H    0.149606
    22  H    0.157532
    23  H    0.158118
    24  H    0.148141
    25  C   -0.298757
    26  C   -0.300061
    27  C   -0.476054
    28  H    0.151749
    29  H    0.149458
    30  H    0.152677
    31  H    0.151825
    32  H    0.155265
    33  H    0.156592
    34  H    0.161247
 Sum of Mulliken charges =  -0.00000

 Dipole moment (field-independent basis, Debye):
    X=             -3.2062    Y=              3.8511    Z=              1.4464  Tot=              5.2156
 Quadrupole moment (field-independent basis, Debye-Ang):
   XX=           -115.3082   YY=            -97.9680   ZZ=            -89.3584
   XY=             13.0295   XZ=              5.1802   YZ=             -1.0432

 Normal termination of Gaussian 16 at Wed May  5 22:27:45 2021.
