 Gaussian 16, Revision A.03,
 Gaussian 16:  EM64L-G16RevA.03 25-Dec-2016

 -------------
 #p 6-31g* mp2
 -------------

 ------------------------------------------------------
 Input file generated by CHIRIPA (05-May-2021 14:51:11)
 ------------------------------------------------------
 Symbolic Z-matrix:
 Charge =  0 Multiplicity = 1

                         Standard orientation:
 ---------------------------------------------------------------------
 Center     Atomic      Atomic             Coordinates (Angstroms)
 Number     Number       Type             X           Y           Z
 ---------------------------------------------------------------------
      1          6           0       -3.261733    0.462371   -0.231338
      2          6           0       -3.079724   -1.047399   -0.390870
      3          6           0       -4.377987   -1.763051   -0.765237
      4          1           0       -4.022729    0.654328    0.537416
      5          1           0       -3.653495    0.878619   -1.169770
      6          1           0       -2.687116   -1.460470    0.547132
      7          1           0       -2.318934   -1.235782   -1.159197
      8          1           0       -4.770571   -1.378572   -1.712156
      9          1           0       -5.140844   -1.604537    0.003868
     10          1           0       -4.225013   -2.841283   -0.874210
     11          6           0       -1.972674    1.191780    0.142855
     12          6           0       -2.154683    2.701550    0.302388
     13          6           0       -0.856420    3.417202    0.676755
     14          1           0       -1.580912    0.775531    1.081287
     15          1           0       -1.211678    0.999822   -0.625898
     16          1           0       -2.915473    2.889933    1.070715
     17          1           0       -2.547291    3.114621   -0.635614
     18          1           0       -0.093563    3.258687   -0.092350
     19          1           0       -0.463836    3.032723    1.623674
     20          1           0       -1.009394    4.495434    0.785728
     21          6           0        1.889197   -1.056786    0.018327
     22          6           0        1.640725   -2.369485    0.762012
     23          6           0        0.179655   -2.815987    0.701156
     24          1           0        1.247015   -0.273981    0.444668
     25          1           0        1.584145   -1.174358   -1.030727
     26          1           0        1.947444   -2.249899    1.809027
     27          1           0        2.283713   -3.149210    0.333979
     28          1           0       -0.135330   -2.962965   -0.337008
     29          1           0       -0.473508   -2.058545    1.146421
     30          1           0        0.024508   -3.756394    1.239137
     31          6           0        3.345211   -0.597365    0.070155
     32          6           0        3.593682    0.715334   -0.673530
     33          6           0        5.054752    1.161836   -0.612673
     34          1           0        3.650261   -0.479794    1.119209
     35          1           0        3.987391   -1.380169   -0.356184
     36          1           0        2.950695    1.495059   -0.245497
     37          1           0        3.286963    0.595749   -1.720544
     38          1           0        5.707915    0.404394   -1.057939
     39          1           0        5.369737    1.308814    0.425490
     40          1           0        5.209899    2.102243   -1.150655
 ---------------------------------------------------------------------

 SCF Done:  E(RHF) =  -470.732677200     A.U. after   11 cycles
 E2 =    -0.1584093609D+01 EUMP2 =    -0.47231677080816D+03

 The electronic state is 1-A.
 Alpha  occ. eigenvalues --  -11.21621 -11.21578 -11.21540 -11.21495 -11.21401
 Alpha  occ. eigenvalues --  -11.21356 -11.21330 -11.21289 -11.21110 -11.21051
 Alpha  occ. eigenvalues --  -11.21013 -11.20960  -1.08437  -1.08367  -1.03534
 Alpha  occ. eigenvalues --   -1.03462  -0.95977  -0.95924  -0.87027  -0.86912
 Alpha  occ. eigenvalues --   -0.79698  -0.79455  -0.78388  -0.78025  -0.65088
 Alpha  occ. eigenvalues --   -0.64985  -0.60974  -0.60826  -0.59380  -0.59278
 Alpha  occ. eigenvalues --   -0.57656  -0.57461  -0.55266  -0.55219  -0.52687
 Alpha  occ. eigenvalues --   -0.52630  -0.52509  -0.52235  -0.49972  -0.49839
 Alpha  occ. eigenvalues --   -0.48159  -0.47638  -0.46748  -0.46509  -0.46160
 Alpha  occ. eigenvalues --   -0.45742  -0.45575  -0.45156  -0.43764  -0.43738
 Alpha virt. eigenvalues --    0.21081   0.22803   0.23629   0.24081   0.25065
 Alpha virt. eigenvalues --    0.25809   0.27058   0.27631   0.28063   0.30227
 Alpha virt. eigenvalues --    0.30546   0.31248   0.31326   0.31922   0.32207

 Mulliken charges:
               1
     1  C   -0.298470
     2  C   -0.302379
     3  C   -0.475627
     4  H    0.149166
     5  H    0.149237
     6  H    0.156693
     7  H    0.152799
     8  H    0.154597
     9  H    0.154702
    10  H    0.160388
    11  C   -0.301297
    12  C   -0.299506
    13  C   -0.476735
    14  H    0.148979
    15  H    0.152931
    16  H    0.151953
    17  H    0.152248
    18  H    0.155969
    19  H    0.154515
    20  H    0.160630
    21  C   -0.301643
    22  C   -0.299875
    23  C   -0.478338
    24  H    0.154394
    25  H    0.148324
    26  H    0.151242
    27  H    0.151380
    28  H    0.155989
    29  H    0.159363
    30  H    0.158926
    31  C   -0.298022
    32  C   -0.300379
    33  C   -0.475601
    34  H    0.149395
    35  H    0.149452
    36  H    0.152742
    37  H    0.151362
    38  H    0.155094
    39  H    0.155260
    40  H    0.160143
 Sum of Mulliken charges =  -0.00000

 Dipole moment (field-independent basis, Debye):
    X=             -0.0253    Y=              0.0070    Z=             -0.0011  Tot=              0.0263
 Quadrupole moment (field-independent basis, Debye-Ang):
   XX=            -86.6374   YY=            -85.1934   ZZ=            -83.1380
   XY=             -1.0474   XZ=             -0.5856   YZ=              0.1654

 Normal termination of Gaussian 16 at Wed May  5 23:04:15 2021.
