 Gaussian 16, Revision A.03,
 Gaussian 16:  EM64L-G16RevA.03 25-Dec-2016

 -------------
 #p 6-31g* mp2
 -------------

 ------------------------------------------------------
 Input file generated by CHIRIPA (05-May-2021 14:57:23)
 ------------------------------------------------------
 Symbolic Z-matrix:
 Charge =  0 Multiplicity = 1

                         Standard orientation:
 ---------------------------------------------------------------------
 Center     Atomic      Atomic             Coordinates (Angstroms)
 Number     Number       Type             X           Y           Z
 ---------------------------------------------------------------------
      1          6           0        4.661667    2.102323   -0.392854
      2          6           0        5.545180    1.017962   -0.402312
      3          6           0        5.080660   -0.278487   -0.161503
      4          6           0        3.720265   -0.455104    0.086331
      5          6           0        2.815091    0.604939    0.102452
      6          6           0        3.301840    1.892720   -0.140947
      7          1           0        5.031152    3.106069   -0.580926
      8          1           0        6.601754    1.177763   -0.597656
      9          1           0        5.742666   -1.135904   -0.162915
     10          1           0        1.767269    0.414245    0.300248
     11          1           0        2.613389    2.732968   -0.132982
     12          7           0        3.216731   -1.823008    0.342635
     13          8           0        2.013642   -1.952101    0.558387
     14          8           0        4.034685   -2.740178    0.322921
     15          6           0       -2.166844    2.128080    0.245875
     16          6           0       -1.723656    0.887577   -0.224507
     17          6           0       -2.621475   -0.171384   -0.389035
     18          6           0       -3.961455    0.046125   -0.072121
     19          6           0       -4.433640    1.270375    0.398562
     20          6           0       -3.518038    2.315190    0.555363
     21          1           0       -1.462489    2.945212    0.370684
     22          1           0       -0.674878    0.739391   -0.465651
     23          1           0       -2.305396   -1.142056   -0.751398
     24          1           0       -5.485204    1.387799    0.630601
     25          1           0       -3.865057    3.277498    0.920856
     26          7           0       -4.921348   -1.067463   -0.242210
     27          8           0       -6.096730   -0.850260    0.044038
     28          8           0       -4.480155   -2.136407   -0.658552
 ---------------------------------------------------------------------

 SCF Done:  E(RHF) =  -868.336732486     A.U. after   16 cycles
 E2 =    -0.2599662481D+01 EUMP2 =    -0.87093639496620D+03

 The electronic state is 1-A.
 Alpha  occ. eigenvalues --  -20.61383 -20.61357 -20.60630 -20.60613 -15.86431
 Alpha  occ. eigenvalues --  -15.85683 -11.31902 -11.31151 -11.28584 -11.28413
 Alpha  occ. eigenvalues --  -11.28196 -11.27769 -11.27714 -11.27634 -11.27576
 Alpha  occ. eigenvalues --  -11.27439 -11.26876 -11.26826  -1.60442  -1.59698
 Alpha  occ. eigenvalues --   -1.39997  -1.39247  -1.20073  -1.19365  -1.09437
 Alpha  occ. eigenvalues --   -1.08766  -1.05507  -1.04780  -0.96263  -0.95568
 Alpha  occ. eigenvalues --   -0.86894  -0.86198  -0.83103  -0.82392  -0.78152
 Alpha  occ. eigenvalues --   -0.77397  -0.72645  -0.71901  -0.71767  -0.71184
 Alpha  occ. eigenvalues --   -0.71022  -0.70517  -0.65729  -0.65535  -0.65030
 Alpha  occ. eigenvalues --   -0.64826  -0.62887  -0.62093  -0.55972  -0.55363
 Alpha  occ. eigenvalues --   -0.53803  -0.53629  -0.53106  -0.52865  -0.49412
 Alpha  occ. eigenvalues --   -0.49394  -0.48674  -0.48643  -0.45380  -0.44628
 Alpha  occ. eigenvalues --   -0.38027  -0.37392  -0.37106  -0.36370
 Alpha virt. eigenvalues --    0.04401   0.05141   0.10531   0.11221   0.15895
 Alpha virt. eigenvalues --    0.16556   0.18504   0.22036   0.24773   0.26683
 Alpha virt. eigenvalues --    0.28109   0.29484   0.29786   0.30993   0.32276

 Mulliken charges:
               1
     1  C   -0.170305
     2  C   -0.217952
     3  C   -0.169425
     4  C    0.160666
     5  C   -0.178396
     6  C   -0.218339
     7  H    0.227460
     8  H    0.226318
     9  H    0.278272
    10  H    0.274401
    11  H    0.218393
    12  N    0.487602
    13  O   -0.462542
    14  O   -0.456189
    15  C   -0.171174
    16  C   -0.221368
    17  C   -0.169025
    18  C    0.158489
    19  C   -0.170278
    20  C   -0.218483
    21  H    0.218525
    22  H    0.221744
    23  H    0.283244
    24  H    0.276045
    25  H    0.222647
    26  N    0.487904
    27  O   -0.461218
    28  O   -0.457015
 Sum of Mulliken charges =  -0.00000

 Dipole moment (field-independent basis, Debye):
    X=              5.3111    Y=              8.5550    Z=             -0.3310  Tot=             10.0750
 Quadrupole moment (field-independent basis, Debye-Ang):
   XX=           -109.9187   YY=           -107.4057   ZZ=           -106.1694
   XY=             -2.4052   XZ=             -7.8698   YZ=              1.9063

 Normal termination of Gaussian 16 at Thu May  6 00:14:13 2021.
