 Gaussian 16, Revision A.03,
 Gaussian 16:  EM64L-G16RevA.03 25-Dec-2016

 -------------
 #p 6-31g* mp2
 -------------

 ------------------------------------------------------
 Input file generated by CHIRIPA (05-May-2021 14:51:14)
 ------------------------------------------------------
 Symbolic Z-matrix:
 Charge =  0 Multiplicity = 1

                         Standard orientation:
 ---------------------------------------------------------------------
 Center     Atomic      Atomic             Coordinates (Angstroms)
 Number     Number       Type             X           Y           Z
 ---------------------------------------------------------------------
      1          6           0       -3.325302   -0.415258   -0.263030
      2          6           0       -3.617705   -1.593234    0.666948
      3          6           0       -3.240412   -2.940715    0.050718
      4          1           0       -3.872810   -0.555391   -1.205125
      5          1           0       -2.256811   -0.415945   -0.519394
      6          1           0       -4.685061   -1.589514    0.922589
      7          1           0       -3.069589   -1.450184    1.607012
      8          1           0       -2.172434   -2.969435   -0.188444
      9          1           0       -3.797085   -3.109557   -0.876756
     10          1           0       -3.457803   -3.768886    0.732431
     11          6           0       -3.697119    0.938656    0.338965
     12          6           0       -3.404716    2.116632   -0.591012
     13          6           0       -3.782009    3.464113    0.025217
     14          1           0       -4.765609    0.939344    0.595329
     15          1           0       -3.149611    1.078790    1.281060
     16          1           0       -3.952832    1.973582   -1.531077
     17          1           0       -2.337360    2.112913   -0.846654
     18          1           0       -3.225335    3.632956    0.952691
     19          1           0       -4.849987    3.492834    0.264380
     20          1           0       -3.564618    4.292285   -0.656495
     21          6           0        4.229840   -0.130952   -0.261371
     22          6           0        4.922499    0.972333    0.539235
     23          6           0        6.359487    1.222287    0.080565
     24          1           0        4.811027   -1.059079   -0.173360
     25          1           0        4.233880    0.140596   -1.326097
     26          1           0        4.915926    0.699435    1.602297
     27          1           0        4.339491    1.897892    0.449463
     28          1           0        6.381472    1.519054   -0.973024
     29          1           0        6.961183    0.313788    0.186359
     30          1           0        6.835755    2.014753    0.666250
     31          6           0        2.792582   -0.392447    0.185436
     32          6           0        2.099922   -1.495732   -0.615170
     33          6           0        0.662933   -1.745686   -0.156500
     34          1           0        2.788541   -0.663995    1.250161
     35          1           0        2.211393    0.535680    0.097425
     36          1           0        2.682930   -2.421291   -0.525399
     37          1           0        2.106494   -1.222834   -1.678232
     38          1           0        0.061238   -0.837186   -0.262295
     39          1           0        0.640949   -2.042452    0.897088
     40          1           0        0.186666   -2.538151   -0.742185
 ---------------------------------------------------------------------

 SCF Done:  E(RHF) =  -470.732655692     A.U. after   11 cycles
 E2 =    -0.1583430647D+01 EUMP2 =    -0.47231608633898D+03

 The electronic state is 1-A.
 Alpha  occ. eigenvalues --  -11.21677 -11.21640 -11.21587 -11.21499 -11.21465
 Alpha  occ. eigenvalues --  -11.21402 -11.21336 -11.21249 -11.21181 -11.21100
 Alpha  occ. eigenvalues --  -11.21059 -11.20914  -1.08493  -1.08362  -1.03605
 Alpha  occ. eigenvalues --   -1.03454  -0.96060  -0.95907  -0.87085  -0.86925
 Alpha  occ. eigenvalues --   -0.79706  -0.79499  -0.78315  -0.78160  -0.65150
 Alpha  occ. eigenvalues --   -0.64981  -0.61017  -0.60863  -0.59454  -0.59256
 Alpha  occ. eigenvalues --   -0.57710  -0.57486  -0.55433  -0.55132  -0.52807
 Alpha  occ. eigenvalues --   -0.52607  -0.52516  -0.52259  -0.50095  -0.49758
 Alpha  occ. eigenvalues --   -0.47982  -0.47840  -0.46763  -0.46540  -0.45921
 Alpha  occ. eigenvalues --   -0.45781  -0.45699  -0.45448  -0.43804  -0.43711
 Alpha virt. eigenvalues --    0.21335   0.22983   0.23775   0.24577   0.25754
 Alpha virt. eigenvalues --    0.26577   0.26970   0.27341   0.27801   0.29258
 Alpha virt. eigenvalues --    0.30226   0.31360   0.31670   0.31831   0.32103

 Mulliken charges:
               1
     1  C   -0.305647
     2  C   -0.298121
     3  C   -0.482997
     4  H    0.149102
     5  H    0.156933
     6  H    0.151294
     7  H    0.151696
     8  H    0.163985
     9  H    0.154085
    10  H    0.159314
    11  C   -0.298025
    12  C   -0.299280
    13  C   -0.475652
    14  H    0.149422
    15  H    0.149434
    16  H    0.152008
    17  H    0.150581
    18  H    0.155136
    19  H    0.155297
    20  H    0.160028
    21  C   -0.298344
    22  C   -0.299673
    23  C   -0.475742
    24  H    0.149849
    25  H    0.149700
    26  H    0.151978
    27  H    0.151966
    28  H    0.155270
    29  H    0.155258
    30  H    0.160388
    31  C   -0.298804
    32  C   -0.299898
    33  C   -0.482082
    34  H    0.149645
    35  H    0.149473
    36  H    0.152424
    37  H    0.152403
    38  H    0.159259
    39  H    0.156043
    40  H    0.162293
 Sum of Mulliken charges =  -0.00000

 Dipole moment (field-independent basis, Debye):
    X=              0.0700    Y=             -0.0121    Z=             -0.0046  Tot=              0.0712
 Quadrupole moment (field-independent basis, Debye-Ang):
   XX=            -85.1211   YY=            -85.5337   ZZ=            -84.3264
   XY=             -0.3292   XZ=              0.9062   YZ=             -0.6863

 Normal termination of Gaussian 16 at Thu May  6 05:37:08 2021.
