 Gaussian 16, Revision A.03,
 Gaussian 16:  EM64L-G16RevA.03 25-Dec-2016

 -------------
 #p 6-31g* mp2
 -------------

 ------------------------------------------------------
 Input file generated by CHIRIPA (05-May-2021 14:57:23)
 ------------------------------------------------------
 Symbolic Z-matrix:
 Charge =  0 Multiplicity = 1

                         Standard orientation:
 ---------------------------------------------------------------------
 Center     Atomic      Atomic             Coordinates (Angstroms)
 Number     Number       Type             X           Y           Z
 ---------------------------------------------------------------------
      1          6           0        6.011523   -0.292872    0.413707
      2          6           0        5.165239   -1.406177    0.384126
      3          6           0        3.810510   -1.260117    0.071198
      4          6           0        3.333479    0.019605   -0.208164
      5          6           0        4.151432    1.148227   -0.186817
      6          6           0        5.502816    0.978535    0.128643
      7          1           0        7.062610   -0.415514    0.657780
      8          1           0        5.557551   -2.394770    0.605080
      9          1           0        3.133091   -2.104876    0.041129
     10          1           0        3.731307    2.121048   -0.411610
     11          1           0        6.157719    1.844938    0.150864
     12          7           0        1.901059    0.186741   -0.540788
     13          8           0        1.505318    1.324863   -0.783077
     14          8           0        1.201192   -0.823544   -0.552910
     15          6           0       -3.246675    2.502203    0.354160
     16          6           0       -2.214210    1.631219    0.717375
     17          6           0       -2.381996    0.247413    0.610258
     18          6           0       -3.600774   -0.233195    0.133930
     19          6           0       -4.648324    0.608916   -0.235904
     20          6           0       -4.458301    1.989176   -0.120483
     21          1           0       -3.107697    3.575799    0.440597
     22          1           0       -1.272172    2.026820    1.086307
     23          1           0       -1.599356   -0.449525    0.884428
     24          1           0       -5.576086    0.184805   -0.600332
     25          1           0       -5.261873    2.663218   -0.403297
     26          7           0       -3.790173   -1.696292    0.016134
     27          8           0       -4.873465   -2.094585   -0.406332
     28          8           0       -2.851745   -2.417070    0.348502
 ---------------------------------------------------------------------

 SCF Done:  E(RHF) =  -868.339506159     A.U. after   16 cycles
 E2 =    -0.2599047260D+01 EUMP2 =    -0.87093855341943D+03

 The electronic state is 1-A.
 Alpha  occ. eigenvalues --  -20.61430 -20.61380 -20.59629 -20.59597 -15.86419
 Alpha  occ. eigenvalues --  -15.84662 -11.31584 -11.29864 -11.28157 -11.28093
 Alpha  occ. eigenvalues --  -11.27838 -11.27114 -11.27071 -11.26519 -11.26287
 Alpha  occ. eigenvalues --  -11.26220 -11.25538 -11.25327  -1.60474  -1.58694
 Alpha  occ. eigenvalues --   -1.40026  -1.38249  -1.19741  -1.18042  -1.09175
 Alpha  occ. eigenvalues --   -1.07488  -1.05109  -1.03408  -0.96039  -0.94340
 Alpha  occ. eigenvalues --   -0.86516  -0.84829  -0.82871  -0.81168  -0.77944
 Alpha  occ. eigenvalues --   -0.76216  -0.72631  -0.71788  -0.70894  -0.70842
 Alpha  occ. eigenvalues --   -0.70010  -0.69182  -0.65392  -0.65107  -0.63704
 Alpha  occ. eigenvalues --   -0.63426  -0.62453  -0.60749  -0.55618  -0.53986
 Alpha  occ. eigenvalues --   -0.53454  -0.53194  -0.51770  -0.51512  -0.49405
 Alpha  occ. eigenvalues --   -0.49373  -0.47653  -0.47632  -0.45468  -0.43690
 Alpha  occ. eigenvalues --   -0.37714  -0.36703  -0.36059  -0.34977
 Alpha virt. eigenvalues --    0.04535   0.06300   0.10953   0.12658   0.16059
 Alpha virt. eigenvalues --    0.17804   0.21121   0.22714   0.27056   0.27960
 Alpha virt. eigenvalues --    0.28675   0.29564   0.30738   0.32062   0.32331

 Mulliken charges:
               1
     1  C   -0.170012
     2  C   -0.218665
     3  C   -0.170685
     4  C    0.156991
     5  C   -0.171279
     6  C   -0.218633
     7  H    0.227176
     8  H    0.225993
     9  H    0.279622
    10  H    0.273997
    11  H    0.224081
    12  N    0.487126
    13  O   -0.465762
    14  O   -0.456374
    15  C   -0.171821
    16  C   -0.213600
    17  C   -0.164854
    18  C    0.155207
    19  C   -0.172617
    20  C   -0.219623
    21  H    0.220976
    22  H    0.226495
    23  H    0.284065
    24  H    0.271111
    25  H    0.218009
    26  N    0.488123
    27  O   -0.466383
    28  O   -0.458664
 Sum of Mulliken charges =  -0.00000

 Dipole moment (field-independent basis, Debye):
    X=              6.2632    Y=              4.4256    Z=              1.5963  Tot=              7.8334
 Quadrupole moment (field-independent basis, Debye-Ang):
   XX=            -73.3471   YY=           -103.1835   ZZ=           -106.2370
   XY=            -20.8703   XZ=              3.3499   YZ=             -0.1760

 Normal termination of Gaussian 16 at Thu May  6 19:33:55 2021.
