 Gaussian 16, Revision A.03,
 Gaussian 16:  EM64L-G16RevA.03 25-Dec-2016

 -------------
 #p 6-31g* mp2
 -------------

 ------------------------------------------------------
 Input file generated by CHIRIPA (05-May-2021 14:57:21)
 ------------------------------------------------------
 Symbolic Z-matrix:
 Charge =  0 Multiplicity = 1

                         Standard orientation:
 ---------------------------------------------------------------------
 Center     Atomic      Atomic             Coordinates (Angstroms)
 Number     Number       Type             X           Y           Z
 ---------------------------------------------------------------------
      1          6           0        5.540285    0.862552   -0.550576
      2          6           0        4.521526    0.685821   -1.492605
      3          6           0        3.309063    0.094908   -1.124772
      4          6           0        3.148623   -0.309365    0.199658
      5          6           0        4.144687   -0.146950    1.161306
      6          6           0        5.348951    0.446336    0.771043
      7          1           0        6.478972    1.322509   -0.845030
      8          1           0        4.667326    1.008097   -2.519700
      9          1           0        2.503651   -0.053971   -1.833691
     10          1           0        3.969923   -0.478359    2.177694
     11          1           0        6.138380    0.582324    1.504769
     12          7           0        1.869382   -0.936195    0.600939
     13          8           0        1.752876   -1.283792    1.774072
     14          8           0        1.007442   -1.068038   -0.265267
     15          6           0       -3.494678   -2.273258   -0.581453
     16          6           0       -4.463101   -1.651759    0.213794
     17          6           0       -4.398145   -0.278666    0.468635
     18          6           0       -3.346385    0.445748   -0.090217
     19          6           0       -2.366332   -0.144631   -0.886610
     20          6           0       -2.451225   -1.519040   -1.128153
     21          1           0       -3.552881   -3.340420   -0.774254
     22          1           0       -5.274584   -2.234994    0.639678
     23          1           0       -5.134464    0.227921    1.080700
     24          1           0       -1.569239    0.463112   -1.297350
     25          1           0       -1.697730   -1.999036   -1.746128
     26          7           0       -3.267067    1.900076    0.172533
     27          8           0       -2.330474    2.516041   -0.331468
     28          8           0       -4.142991    2.396474    0.877503
 ---------------------------------------------------------------------

 SCF Done:  E(RHF) =  -868.339412290     A.U. after   16 cycles
 E2 =    -0.2599202202D+01 EUMP2 =    -0.87093861449203D+03

 The electronic state is 1-A.
 Alpha  occ. eigenvalues --  -20.61287 -20.61220 -20.59870 -20.59864 -15.86297
 Alpha  occ. eigenvalues --  -15.84912 -11.31450 -11.29993 -11.28023 -11.27977
 Alpha  occ. eigenvalues --  -11.27696 -11.26971 -11.26953 -11.26594 -11.26450
 Alpha  occ. eigenvalues --  -11.26264 -11.25599 -11.25398  -1.60309  -1.58947
 Alpha  occ. eigenvalues --   -1.39878  -1.38509  -1.19601  -1.18143  -1.09033
 Alpha  occ. eigenvalues --   -1.07609  -1.04978  -1.03490  -0.95908  -0.94488
 Alpha  occ. eigenvalues --   -0.86388  -0.84929  -0.82764  -0.81319  -0.77831
 Alpha  occ. eigenvalues --   -0.76394  -0.72543  -0.71609  -0.71146  -0.70718
 Alpha  occ. eigenvalues --   -0.70257  -0.69293  -0.65267  -0.64984  -0.63805
 Alpha  occ. eigenvalues --   -0.63518  -0.62337  -0.60850  -0.55486  -0.54070
 Alpha  occ. eigenvalues --   -0.53308  -0.53075  -0.51850  -0.51605  -0.49284
 Alpha  occ. eigenvalues --   -0.49239  -0.47908  -0.47875  -0.45326  -0.43977
 Alpha  occ. eigenvalues --   -0.37562  -0.36567  -0.36141  -0.35016
 Alpha virt. eigenvalues --    0.04682   0.06131   0.11090   0.12587   0.16227
 Alpha virt. eigenvalues --    0.17668   0.21154   0.22573   0.27037   0.27696
 Alpha virt. eigenvalues --    0.28743   0.29397   0.30909   0.32063   0.32302

 Mulliken charges:
               1
     1  C   -0.169884
     2  C   -0.217888
     3  C   -0.169015
     4  C    0.159097
     5  C   -0.169889
     6  C   -0.218255
     7  H    0.227015
     8  H    0.224463
     9  H    0.271312
    10  H    0.276383
    11  H    0.224773
    12  N    0.492516
    13  O   -0.455459
    14  O   -0.472968
    15  C   -0.171851
    16  C   -0.218752
    17  C   -0.172609
    18  C    0.155728
    19  C   -0.159812
    20  C   -0.207047
    21  H    0.221850
    22  H    0.218737
    23  H    0.271212
    24  H    0.273562
    25  H    0.226531
    26  N    0.488684
    27  O   -0.464300
    28  O   -0.464134
 Sum of Mulliken charges =  -0.00000

 Dipole moment (field-independent basis, Debye):
    X=              4.7030    Y=             -2.9937    Z=             -2.3201  Tot=              6.0385
 Quadrupole moment (field-independent basis, Debye-Ang):
   XX=            -71.9234   YY=           -112.4804   ZZ=            -99.8620
   XY=             23.2983   XZ=             -1.0535   YZ=              0.1603

 Normal termination of Gaussian 16 at Thu May  6 12:50:00 2021.
