 Gaussian 16, Revision A.03,
 Gaussian 16:  EM64L-G16RevA.03 25-Dec-2016

 -------------
 #p 6-31g* mp2
 -------------

 ------------------------------------------------------
 Input file generated by CHIRIPA (05-May-2021 14:55:20)
 ------------------------------------------------------
 Symbolic Z-matrix:
 Charge =  0 Multiplicity = 1

                         Standard orientation:
 ---------------------------------------------------------------------
 Center     Atomic      Atomic             Coordinates (Angstroms)
 Number     Number       Type             X           Y           Z
 ---------------------------------------------------------------------
      1          6           0        2.021113    2.133628    0.362295
      2          6           0        3.139397    2.258613   -0.468573
      3          6           0        4.027335    1.190788   -0.629403
      4          6           0        3.765290    0.007127    0.058761
      5          6           0        2.659838   -0.148251    0.893700
      6          6           0        1.785319    0.932712    1.039585
      7          1           0        1.336554    2.968243    0.481426
      8          1           0        3.325027    3.190072   -0.995802
      9          1           0        4.900769    1.260324   -1.266345
     10          1           0        2.501220   -1.089291    1.406246
     11          1           0        0.917651    0.832793    1.685507
     12          7           0        4.698207   -1.130286   -0.103592
     13          8           0        4.445034   -2.162527    0.513676
     14          8           0        5.664935   -0.968011   -0.845037
     15          6           0       -5.320760   -0.507422   -0.281180
     16          6           0       -6.443515    0.407992    0.208132
     17          6           0       -7.833957   -0.122309   -0.142936
     18          1           0       -5.404074   -0.629586   -1.369794
     19          1           0       -5.454530   -1.506350    0.156595
     20          1           0       -6.306884    1.405270   -0.229343
     21          1           0       -6.357404    0.528143    1.295681
     22          1           0       -7.995286   -1.107522    0.306429
     23          1           0       -7.944479   -0.225412   -1.227259
     24          1           0       -8.621544    0.547461    0.216195
     25          6           0       -3.924767    0.009281    0.062252
     26          6           0       -2.802012   -0.906132   -0.427060
     27          6           0       -1.411571   -0.375832   -0.075991
     28          1           0       -3.790997    1.008208   -0.375522
     29          1           0       -3.841453    0.131444    1.150866
     30          1           0       -2.888123   -1.026285   -1.514609
     31          1           0       -2.938643   -1.903411    0.010415
     32          1           0       -1.301049   -0.272730    1.008332
     33          1           0       -1.250241    0.609380   -0.525357
     34          1           0       -0.623984   -1.045603   -0.435122
 ---------------------------------------------------------------------

 SCF Done:  E(RHF) =  -669.535371263     A.U. after   15 cycles
 E2 =    -0.2091498335D+01 EUMP2 =    -0.67162686959823D+03

 The electronic state is 1-A.
 Alpha  occ. eigenvalues --  -20.60730 -20.60724 -15.85782 -11.31137 -11.27692
 Alpha  occ. eigenvalues --  -11.27678 -11.27425 -11.26723 -11.26674 -11.22108
 Alpha  occ. eigenvalues --  -11.21962 -11.21893 -11.21794 -11.21761 -11.21363
 Alpha  occ. eigenvalues --   -1.59805  -1.39359  -1.19302  -1.08887  -1.08699
 Alpha  occ. eigenvalues --   -1.04703  -1.03994  -0.96465  -0.95537  -0.87498
 Alpha  occ. eigenvalues --   -0.86090  -0.82369  -0.80070  -0.78693  -0.77412
 Alpha  occ. eigenvalues --   -0.72000  -0.71128  -0.70408  -0.65517  -0.64952
 Alpha  occ. eigenvalues --   -0.64709  -0.62066  -0.61386  -0.59820  -0.58062
 Alpha  occ. eigenvalues --   -0.55774  -0.55200  -0.53366  -0.53005  -0.52882
 Alpha  occ. eigenvalues --   -0.52602  -0.50409  -0.48763  -0.48756  -0.48370
 Alpha  occ. eigenvalues --   -0.47092  -0.46237  -0.46152  -0.44767  -0.44242
 Alpha  occ. eigenvalues --   -0.37271  -0.36265
 Alpha virt. eigenvalues --    0.05096   0.11309   0.16560   0.20729   0.22506
 Alpha virt. eigenvalues --    0.23890   0.25559   0.26374   0.27165   0.28169
 Alpha virt. eigenvalues --    0.28758   0.29663   0.31224   0.31570   0.32036

 Mulliken charges:
               1
     1  C   -0.173342
     2  C   -0.218381
     3  C   -0.171414
     4  C    0.158551
     5  C   -0.173756
     6  C   -0.212233
     7  H    0.225378
     8  H    0.223060
     9  H    0.275268
    10  H    0.275330
    11  H    0.226503
    12  N    0.488074
    13  O   -0.460602
    14  O   -0.460599
    15  C   -0.298580
    16  C   -0.299811
    17  C   -0.475945
    18  H    0.150883
    19  H    0.150888
    20  H    0.151438
    21  H    0.151669
    22  H    0.156010
    23  H    0.155859
    24  H    0.160868
    25  C   -0.298415
    26  C   -0.301145
    27  C   -0.475864
    28  H    0.148017
    29  H    0.148013
    30  H    0.154869
    31  H    0.154326
    32  H    0.145327
    33  H    0.153387
    34  H    0.166368
 Sum of Mulliken charges =  -0.00000

 Dipole moment (field-independent basis, Debye):
    X=             -3.3936    Y=              3.9774    Z=              0.5250  Tot=              5.2547
 Quadrupole moment (field-independent basis, Debye-Ang):
   XX=           -119.4253   YY=            -93.4587   ZZ=            -92.5433
   XY=             16.8205   XZ=             -0.1339   YZ=             -2.2099

 Normal termination of Gaussian 16 at Wed May  5 22:08:21 2021.
