 Gaussian 16, Revision A.03,
 Gaussian 16:  EM64L-G16RevA.03 25-Dec-2016

 -------------
 #p 6-31g* mp2
 -------------

 ------------------------------------------------------
 Input file generated by CHIRIPA (05-May-2021 14:55:19)
 ------------------------------------------------------
 Symbolic Z-matrix:
 Charge =  0 Multiplicity = 1

                         Standard orientation:
 ---------------------------------------------------------------------
 Center     Atomic      Atomic             Coordinates (Angstroms)
 Number     Number       Type             X           Y           Z
 ---------------------------------------------------------------------
      1          6           0        2.143745    1.876190    1.169452
      2          6           0        2.527364    1.681330   -0.161483
      3          6           0        2.458395    0.411187   -0.741593
      4          6           0        1.998997   -0.646443    0.041773
      5          6           0        1.609592   -0.484238    1.370435
      6          6           0        1.686888    0.794691    1.929822
      7          1           0        2.200556    2.866280    1.612046
      8          1           0        2.882555    2.519396   -0.754382
      9          1           0        2.749031    0.232150   -1.769647
     10          1           0        1.259634   -1.339053    1.936332
     11          1           0        1.388299    0.943068    2.963686
     12          7           0        1.921575   -1.995737   -0.561395
     13          8           0        1.513370   -2.911141    0.149971
     14          8           0        2.270561   -2.112361   -1.734103
     15          6           0       -2.536850    1.244691   -0.479581
     16          6           0       -1.156504    1.887934   -0.342209
     17          6           0       -1.095919    3.291845   -0.944837
     18          1           0       -2.809794    1.200946   -1.542847
     19          1           0       -3.283105    1.886756    0.008528
     20          1           0       -0.412876    1.244162   -0.829231
     21          1           0       -0.886731    1.929978    0.720839
     22          1           0       -1.816118    3.953626   -0.452943
     23          1           0       -1.339570    3.263913   -2.011821
     24          1           0       -0.100261    3.732981   -0.835643
     25          6           0       -2.613248   -0.159090    0.118155
     26          6           0       -3.993593   -0.802332   -0.019217
     27          6           0       -4.054178   -2.206243    0.583411
     28          1           0       -1.866993   -0.801155   -0.369955
     29          1           0       -2.340303   -0.115345    1.181420
     30          1           0       -4.263366   -0.844376   -1.082265
     31          1           0       -4.737221   -0.158561    0.467805
     32          1           0       -3.810527   -2.178312    1.650395
     33          1           0       -3.333979   -2.868025    0.091517
     34          1           0       -5.049837   -2.647379    0.474217
 ---------------------------------------------------------------------

 SCF Done:  E(RHF) =  -669.534060131     A.U. after   15 cycles
 E2 =    -0.2095544632D+01 EUMP2 =    -0.67162960476203D+03

 The electronic state is 1-A.
 Alpha  occ. eigenvalues --  -20.60849 -20.60841 -15.85902 -11.31274 -11.27835
 Alpha  occ. eigenvalues --  -11.27832 -11.27556 -11.26838 -11.26826 -11.21551
 Alpha  occ. eigenvalues --  -11.21474 -11.21379 -11.21369 -11.21308 -11.20832
 Alpha  occ. eigenvalues --   -1.59925  -1.39476  -1.19452  -1.08847  -1.08396
 Alpha  occ. eigenvalues --   -1.04851  -1.03513  -0.95990  -0.95670  -0.87002
 Alpha  occ. eigenvalues --   -0.86245  -0.82502  -0.79587  -0.78223  -0.77550
 Alpha  occ. eigenvalues --   -0.72117  -0.71250  -0.70548  -0.65098  -0.65046
 Alpha  occ. eigenvalues --   -0.64850  -0.62194  -0.60926  -0.59444  -0.57636
 Alpha  occ. eigenvalues --   -0.55346  -0.55273  -0.53290  -0.52943  -0.52609
 Alpha  occ. eigenvalues --   -0.52385  -0.49925  -0.48878  -0.48872  -0.47801
 Alpha  occ. eigenvalues --   -0.46645  -0.45737  -0.45627  -0.44876  -0.43772
 Alpha  occ. eigenvalues --   -0.37348  -0.36378
 Alpha virt. eigenvalues --    0.04963   0.11068   0.16443   0.20925   0.22964
 Alpha virt. eigenvalues --    0.24237   0.26434   0.26714   0.27442   0.27879
 Alpha virt. eigenvalues --    0.28560   0.30777   0.31369   0.31545   0.32083

 Mulliken charges:
               1
     1  C   -0.167449
     2  C   -0.214141
     3  C   -0.175408
     4  C    0.160726
     5  C   -0.168617
     6  C   -0.217585
     7  H    0.226096
     8  H    0.223994
     9  H    0.275885
    10  H    0.276190
    11  H    0.223573
    12  N    0.487495
    13  O   -0.459947
    14  O   -0.460589
    15  C   -0.298338
    16  C   -0.301283
    17  C   -0.475306
    18  H    0.150156
    19  H    0.147109
    20  H    0.157191
    21  H    0.148779
    22  H    0.154382
    23  H    0.156501
    24  H    0.149781
    25  C   -0.297647
    26  C   -0.299606
    27  C   -0.476629
    28  H    0.152689
    29  H    0.144508
    30  H    0.153114
    31  H    0.149978
    32  H    0.152730
    33  H    0.161860
    34  H    0.159807
 Sum of Mulliken charges =  -0.00000

 Dipole moment (field-independent basis, Debye):
    X=              0.3918    Y=              4.6264    Z=              2.1394  Tot=              5.1122
 Quadrupole moment (field-independent basis, Debye-Ang):
   XX=            -93.8637   YY=           -102.0630   ZZ=            -90.3456
   XY=             10.1746   XZ=              2.5723   YZ=             -2.0773

 Normal termination of Gaussian 16 at Wed May  5 20:29:51 2021.
