 Gaussian 16, Revision A.03,
 Gaussian 16:  EM64L-G16RevA.03 25-Dec-2016

 -------------
 #p 6-31g* mp2
 -------------

 ------------------------------------------------------
 Input file generated by CHIRIPA (05-May-2021 14:53:14)
 ------------------------------------------------------
 Symbolic Z-matrix:
 Charge =  0 Multiplicity = 1

                         Standard orientation:
 ---------------------------------------------------------------------
 Center     Atomic      Atomic             Coordinates (Angstroms)
 Number     Number       Type             X           Y           Z
 ---------------------------------------------------------------------
      1          6           0       -2.818895   -0.078881    0.425200
      2          6           0       -3.625660    0.043918   -0.867872
      3          6           0       -4.574965    1.242486   -0.860795
      4          1           0       -3.510392   -0.162023    1.274826
      5          1           0       -2.243802    0.844627    0.579464
      6          1           0       -4.197992   -0.880093   -1.020368
      7          1           0       -2.932161    0.126585   -1.714536
      8          1           0       -4.016517    2.175478   -0.733270
      9          1           0       -5.289541    1.163080   -0.035158
     10          1           0       -5.141719    1.311251   -1.794562
     11          6           0       -1.865328   -1.272352    0.433285
     12          6           0       -1.058563   -1.395151    1.726357
     13          6           0       -0.109258   -2.593719    1.719281
     14          1           0       -2.440421   -2.195860    0.279021
     15          1           0       -1.173831   -1.189210   -0.416340
     16          1           0       -1.752063   -1.477818    2.573022
     17          1           0       -0.486231   -0.471140    1.878853
     18          1           0        0.605318   -2.514313    0.893643
     19          1           0       -0.667706   -3.526711    1.591756
     20          1           0        0.457496   -2.662484    2.653048
     21          6           0        1.310792    2.634198    0.952976
     22          6           0        2.486862    1.924312    1.216491
     23          6           0        2.784650    0.755958    0.508804
     24          6           0        1.879947    0.324189   -0.459896
     25          6           0        0.700027    1.009439   -0.745393
     26          6           0        0.422693    2.175306   -0.025400
     27          1           0        1.087407    3.540837    1.507504
     28          1           0        3.178409    2.278341    1.975748
     29          1           0        3.687913    0.186952    0.692557
     30          1           0        0.030022    0.631734   -1.508184
     31          1           0       -0.491415    2.724575   -0.232172
     32          7           0        2.184376   -0.911378   -1.215606
     33          8           0        1.370986   -1.270837   -2.064029
     34          8           0        3.230612   -1.496960   -0.945199
 ---------------------------------------------------------------------

 SCF Done:  E(RHF) =  -669.534390763     A.U. after   15 cycles
 E2 =    -0.2097011534D+01 EUMP2 =    -0.67163140229667D+03

 The electronic state is 1-A.
 Alpha  occ. eigenvalues --  -20.60983 -20.60974 -15.85999 -11.31317 -11.27900
 Alpha  occ. eigenvalues --  -11.27893 -11.27644 -11.26898 -11.26888 -11.21921
 Alpha  occ. eigenvalues --  -11.21589 -11.21494 -11.21435 -11.21229 -11.20784
 Alpha  occ. eigenvalues --   -1.60044  -1.39596  -1.19517  -1.08913  -1.08535
 Alpha  occ. eigenvalues --   -1.04910  -1.03610  -0.96064  -0.95745  -0.87071
 Alpha  occ. eigenvalues --   -0.86308  -0.82585  -0.79691  -0.78303  -0.77638
 Alpha  occ. eigenvalues --   -0.72224  -0.71392  -0.70633  -0.65304  -0.65144
 Alpha  occ. eigenvalues --   -0.64892  -0.62217  -0.61038  -0.59435  -0.57648
 Alpha  occ. eigenvalues --   -0.55477  -0.55302  -0.53221  -0.53012  -0.52734
 Alpha  occ. eigenvalues --   -0.52454  -0.50018  -0.48990  -0.48975  -0.47986
 Alpha  occ. eigenvalues --   -0.46755  -0.45866  -0.45763  -0.44871  -0.43844
 Alpha  occ. eigenvalues --   -0.37470  -0.36434
 Alpha virt. eigenvalues --    0.04857   0.11041   0.16226   0.19444   0.23218
 Alpha virt. eigenvalues --    0.23750   0.25239   0.25966   0.27738   0.28293
 Alpha virt. eigenvalues --    0.29496   0.30863   0.31112   0.31680   0.32302

 Mulliken charges:
               1
     1  C   -0.302756
     2  C   -0.301115
     3  C   -0.474148
     4  H    0.150855
     5  H    0.142716
     6  H    0.157189
     7  H    0.148748
     8  H    0.146856
     9  H    0.157232
    10  H    0.162693
    11  C   -0.305255
    12  C   -0.304235
    13  C   -0.476416
    14  H    0.152771
    15  H    0.157947
    16  H    0.149642
    17  H    0.152792
    18  H    0.159613
    19  H    0.157346
    20  H    0.158158
    21  C   -0.171329
    22  C   -0.218823
    23  C   -0.170281
    24  C    0.158527
    25  C   -0.170831
    26  C   -0.219715
    27  H    0.226704
    28  H    0.224245
    29  H    0.276388
    30  H    0.278623
    31  H    0.224772
    32  N    0.489269
    33  O   -0.460068
    34  O   -0.458114
 Sum of Mulliken charges =  -0.00000

 Dipole moment (field-independent basis, Debye):
    X=             -0.9535    Y=              4.2737    Z=              2.6185  Tot=              5.1020
 Quadrupole moment (field-independent basis, Debye-Ang):
   XX=            -95.1040   YY=            -92.6770   ZZ=            -96.4767
   XY=              8.7285   XZ=              7.7904   YZ=             -1.3438

 Normal termination of Gaussian 16 at Thu May  6 02:37:58 2021.
