 Gaussian 16, Revision A.03,
 Gaussian 16:  EM64L-G16RevA.03 25-Dec-2016

 -------------
 #p 6-31g* mp2
 -------------

 ------------------------------------------------------
 Input file generated by CHIRIPA (05-May-2021 14:55:19)
 ------------------------------------------------------
 Symbolic Z-matrix:
 Charge =  0 Multiplicity = 1

                         Standard orientation:
 ---------------------------------------------------------------------
 Center     Atomic      Atomic             Coordinates (Angstroms)
 Number     Number       Type             X           Y           Z
 ---------------------------------------------------------------------
      1          6           0        2.541651   -2.015829   -1.330917
      2          6           0        1.514199   -2.361988   -0.447153
      3          6           0        1.100390   -1.468628    0.545428
      4          6           0        1.738784   -0.232001    0.626032
      5          6           0        2.765410    0.142045   -0.239658
      6          6           0        3.162882   -0.767119   -1.224536
      7          1           0        2.856762   -2.715951   -2.098986
      8          1           0        1.029945   -3.331059   -0.527422
      9          1           0        0.307574   -1.710883    1.242689
     10          1           0        3.229187    1.115366   -0.134902
     11          1           0        3.961087   -0.495591   -1.909507
     12          7           0        1.309351    0.722125    1.672756
     13          8           0        1.887777    1.805428    1.722882
     14          8           0        0.402465    0.368598    2.423233
     15          6           0       -1.763277    0.692158   -1.070469
     16          6           0       -1.237186    2.112334   -0.859960
     17          6           0       -0.131392    2.485587   -1.847732
     18          1           0       -0.930529   -0.018218   -0.976426
     19          1           0       -2.140764    0.597006   -2.098012
     20          1           0       -0.862071    2.205183    0.167310
     21          1           0       -2.071317    2.819395   -0.954325
     22          1           0       -0.496946    2.420993   -2.877683
     23          1           0        0.719171    1.803292   -1.749675
     24          1           0        0.230106    3.504813   -1.679335
     25          6           0       -2.869197    0.304328   -0.090541
     26          6           0       -3.395288   -1.115847   -0.301051
     27          6           0       -4.501082   -1.489101    0.686722
     28          1           0       -2.491709    0.399481    0.937001
     29          1           0       -3.701944    1.014704   -0.184586
     30          1           0       -2.561156   -1.822909   -0.206685
     31          1           0       -3.770403   -1.208697   -1.328321
     32          1           0       -5.351645   -0.806805    0.588664
     33          1           0       -4.135528   -1.424507    1.716673
     34          1           0       -4.862580   -2.508327    0.518324
 ---------------------------------------------------------------------

 SCF Done:  E(RHF) =  -669.535356205     A.U. after   15 cycles
 E2 =    -0.2096122104D+01 EUMP2 =    -0.67163147830916D+03

 The electronic state is 1-A.
 Alpha  occ. eigenvalues --  -20.61006 -20.60995 -15.86022 -11.31345 -11.27926
 Alpha  occ. eigenvalues --  -11.27922 -11.27660 -11.26938 -11.26928 -11.21499
 Alpha  occ. eigenvalues --  -11.21101 -11.20983 -11.20913 -11.20906 -11.20706
 Alpha  occ. eigenvalues --   -1.60064  -1.39615  -1.19551  -1.08937  -1.08091
 Alpha  occ. eigenvalues --   -1.04946  -1.03242  -0.95778  -0.95678  -0.86713
 Alpha  occ. eigenvalues --   -0.86326  -0.82608  -0.79304  -0.77886  -0.77662
 Alpha  occ. eigenvalues --   -0.72247  -0.71439  -0.70640  -0.65194  -0.64947
 Alpha  occ. eigenvalues --   -0.64693  -0.62284  -0.60655  -0.59049  -0.57283
 Alpha  occ. eigenvalues --   -0.55429  -0.54998  -0.53321  -0.53015  -0.52391
 Alpha  occ. eigenvalues --   -0.52111  -0.49664  -0.49011  -0.49008  -0.47609
 Alpha  occ. eigenvalues --   -0.46334  -0.45438  -0.45333  -0.44939  -0.43459
 Alpha  occ. eigenvalues --   -0.37469  -0.36476
 Alpha virt. eigenvalues --    0.04787   0.11029   0.16271   0.20654   0.22959
 Alpha virt. eigenvalues --    0.24156   0.26270   0.27244   0.27854   0.28350
 Alpha virt. eigenvalues --    0.28742   0.31004   0.31293   0.32029   0.32161

 Mulliken charges:
               1
     1  C   -0.170093
     2  C   -0.217118
     3  C   -0.174472
     4  C    0.162543
     5  C   -0.172247
     6  C   -0.218128
     7  H    0.226785
     8  H    0.224861
     9  H    0.277042
    10  H    0.277197
    11  H    0.224834
    12  N    0.488597
    13  O   -0.458151
    14  O   -0.460560
    15  C   -0.303927
    16  C   -0.308167
    17  C   -0.477931
    18  H    0.149875
    19  H    0.145830
    20  H    0.165263
    21  H    0.152676
    22  H    0.151334
    23  H    0.151178
    24  H    0.162987
    25  C   -0.304516
    26  C   -0.297050
    27  C   -0.476192
    28  H    0.164659
    29  H    0.149362
    30  H    0.141073
    31  H    0.150259
    32  H    0.156500
    33  H    0.158636
    34  H    0.157060
 Sum of Mulliken charges =  -0.00000

 Dipole moment (field-independent basis, Debye):
    X=              1.6724    Y=             -3.3228    Z=             -3.5148  Tot=              5.1177
 Quadrupole moment (field-independent basis, Debye-Ang):
   XX=            -87.5636   YY=            -91.3891   ZZ=            -99.7214
   XY=             -4.6419   XZ=             -6.2139   YZ=             -2.1159

 Normal termination of Gaussian 16 at Thu May  6 17:25:21 2021.
