 Gaussian 16, Revision A.03,
 Gaussian 16:  EM64L-G16RevA.03 25-Dec-2016

 -------------
 #p 6-31g* mp2
 -------------

 ------------------------------------------------------
 Input file generated by CHIRIPA (05-May-2021 14:53:18)
 ------------------------------------------------------
 Symbolic Z-matrix:
 Charge =  0 Multiplicity = 1

                         Standard orientation:
 ---------------------------------------------------------------------
 Center     Atomic      Atomic             Coordinates (Angstroms)
 Number     Number       Type             X           Y           Z
 ---------------------------------------------------------------------
      1          6           0        4.364925    0.224483   -0.281106
      2          6           0        5.747461    0.441955    0.334756
      3          6           0        6.475220    1.649151   -0.257559
      4          1           0        4.470544    0.094293   -1.366850
      5          1           0        3.758542    1.128659   -0.132239
      6          1           0        6.350594   -0.462874    0.185988
      7          1           0        5.638558    0.571451    1.419185
      8          1           0        5.897069    2.564753   -0.096267
      9          1           0        6.613151    1.524551   -1.336471
     10          1           0        7.461382    1.786130    0.196953
     11          6           0        3.624963   -0.978677    0.300779
     12          6           0        2.242428   -1.196148   -0.315084
     13          6           0        1.514669   -2.403345    0.277232
     14          1           0        4.231347   -1.882852    0.151912
     15          1           0        3.519345   -0.848487    1.386523
     16          1           0        2.351331   -1.325645   -1.399513
     17          1           0        1.639295   -0.291320   -0.166315
     18          1           0        1.376738   -2.278745    1.356144
     19          1           0        2.092820   -3.318946    0.115940
     20          1           0        0.528507   -2.540323   -0.177280
     21          6           0       -2.834621    2.798594    0.110322
     22          6           0       -1.710918    1.966465    0.073254
     23          6           0       -1.857703    0.577681    0.007826
     24          6           0       -3.148741    0.052531   -0.019093
     25          6           0       -4.287885    0.855257    0.016567
     26          6           0       -4.117256    2.241317    0.081910
     27          1           0       -2.711334    3.876378    0.161115
     28          1           0       -0.713593    2.396473    0.095192
     29          1           0       -1.005038   -0.089773   -0.021991
     30          1           0       -5.269285    0.397290   -0.006654
     31          1           0       -4.991749    2.885123    0.110579
     32          7           0       -3.316757   -1.416271   -0.088314
     33          8           0       -4.464957   -1.854181   -0.110887
     34          8           0       -2.297066   -2.101797   -0.118685
 ---------------------------------------------------------------------

 SCF Done:  E(RHF) =  -669.535867422     A.U. after   15 cycles
 E2 =    -0.2091730866D+01 EUMP2 =    -0.67162759828754D+03

 The electronic state is 1-A.
 Alpha  occ. eigenvalues --  -20.60849 -20.60840 -15.85894 -11.31206 -11.27780
 Alpha  occ. eigenvalues --  -11.27753 -11.27521 -11.26788 -11.26775 -11.21765
 Alpha  occ. eigenvalues --  -11.21720 -11.21576 -11.21457 -11.21256 -11.20572
 Alpha  occ. eigenvalues --   -1.59916  -1.39472  -1.19380  -1.08787  -1.08546
 Alpha  occ. eigenvalues --   -1.04778  -1.03573  -0.95975  -0.95624  -0.86971
 Alpha  occ. eigenvalues --   -0.86179  -0.82467  -0.79643  -0.78380  -0.77518
 Alpha  occ. eigenvalues --   -0.72126  -0.71232  -0.70495  -0.65201  -0.65038
 Alpha  occ. eigenvalues --   -0.64781  -0.62159  -0.60966  -0.59326  -0.57580
 Alpha  occ. eigenvalues --   -0.55326  -0.55224  -0.53110  -0.52875  -0.52594
 Alpha  occ. eigenvalues --   -0.52370  -0.49921  -0.48875  -0.48864  -0.47923
 Alpha  occ. eigenvalues --   -0.46715  -0.45909  -0.45849  -0.44886  -0.43786
 Alpha  occ. eigenvalues --   -0.37365  -0.36379
 Alpha virt. eigenvalues --    0.05018   0.11274   0.16517   0.19777   0.22882
 Alpha virt. eigenvalues --    0.23748   0.25714   0.26865   0.27106   0.28064
 Alpha virt. eigenvalues --    0.29148   0.30942   0.31576   0.31714   0.32101

 Mulliken charges:
               1
     1  C   -0.297211
     2  C   -0.299699
     3  C   -0.475542
     4  H    0.150387
     5  H    0.143994
     6  H    0.153467
     7  H    0.151855
     8  H    0.153261
     9  H    0.155619
    10  H    0.160958
    11  C   -0.297574
    12  C   -0.300471
    13  C   -0.488662
    14  H    0.152305
    15  H    0.149415
    16  H    0.154125
    17  H    0.135779
    18  H    0.153420
    19  H    0.155663
    20  H    0.187287
    21  C   -0.170393
    22  C   -0.221216
    23  C   -0.177667
    24  C    0.157806
    25  C   -0.170125
    26  C   -0.219082
    27  H    0.225685
    28  H    0.223472
    29  H    0.287356
    30  H    0.275557
    31  H    0.223528
    32  N    0.493222
    33  O   -0.459648
    34  O   -0.466872
 Sum of Mulliken charges =  -0.00000

 Dipole moment (field-independent basis, Debye):
    X=              0.5330    Y=              5.0263    Z=              0.2221  Tot=              5.0594
 Quadrupole moment (field-independent basis, Debye-Ang):
   XX=            -93.6650   YY=            -94.6951   ZZ=            -95.3074
   XY=            -18.0914   XZ=             -0.9391   YZ=              0.7121

 Normal termination of Gaussian 16 at Wed May  5 20:26:37 2021.
