 Gaussian 16, Revision A.03,
 Gaussian 16:  EM64L-G16RevA.03 25-Dec-2016

 -------------
 #p 6-31g* mp2
 -------------

 ------------------------------------------------------
 Input file generated by CHIRIPA (05-May-2021 14:57:25)
 ------------------------------------------------------
 Symbolic Z-matrix:
 Charge =  0 Multiplicity = 1

                         Standard orientation:
 ---------------------------------------------------------------------
 Center     Atomic      Atomic             Coordinates (Angstroms)
 Number     Number       Type             X           Y           Z
 ---------------------------------------------------------------------
      1          6           0       -0.887719   -0.070509   -0.032129
      2          6           0       -1.530615   -1.218425    0.442734
      3          6           0       -2.926068   -1.303560    0.439095
      4          6           0       -3.650776   -0.217229   -0.048727
      5          6           0       -3.039392    0.940050   -0.528523
      6          6           0       -1.642828    1.003172   -0.515390
      7          1           0        0.196734   -0.012924   -0.025614
      8          1           0       -0.946743   -2.053794    0.818628
      9          1           0       -3.449497   -2.180254    0.800826
     10          1           0       -3.648347    1.756613   -0.897056
     11          1           0       -1.146242    1.895914   -0.884792
     12          7           0       -5.128668   -0.295705   -0.057605
     13          8           0       -5.744408    0.675010   -0.492591
     14          8           0       -5.643315   -1.326445    0.370591
     15          6           0        1.903157    2.121831    0.700585
     16          6           0        2.477346    1.314672    1.688168
     17          6           0        3.312270    0.249467    1.337755
     18          6           0        3.552608    0.018914   -0.015897
     19          6           0        2.995343    0.805240   -1.023090
     20          6           0        2.163529    1.864991   -0.649512
     21          1           0        1.255776    2.947189    0.981791
     22          1           0        2.276903    1.511791    2.737459
     23          1           0        3.769860   -0.391175    2.081804
     24          1           0        3.213748    0.584043   -2.060774
     25          1           0        1.718976    2.490190   -1.418632
     26          7           0        4.434858   -1.105883   -0.399126
     27          8           0        4.630899   -1.288148   -1.598702
     28          8           0        4.913620   -1.783937    0.507334
 ---------------------------------------------------------------------

 SCF Done:  E(RHF) =  -868.336269800     A.U. after   16 cycles
 E2 =    -0.2603160727D+01 EUMP2 =    -0.87093943052725D+03

 The electronic state is 1-A.
 Alpha  occ. eigenvalues --  -20.61828 -20.61823 -20.60966 -20.60956 -15.86892
 Alpha  occ. eigenvalues --  -15.86023 -11.32539 -11.31395 -11.29118 -11.29091
 Alpha  occ. eigenvalues --  -11.28833 -11.28148 -11.28078 -11.28052 -11.27969
 Alpha  occ. eigenvalues --  -11.27527 -11.27058 -11.26896  -1.60901  -1.60041
 Alpha  occ. eigenvalues --   -1.40444  -1.39594  -1.20760  -1.19580  -1.10082
 Alpha  occ. eigenvalues --   -1.08942  -1.06147  -1.05005  -0.96847  -0.95779
 Alpha  occ. eigenvalues --   -0.87512  -0.86390  -0.83645  -0.82634  -0.78663
 Alpha  occ. eigenvalues --   -0.77697  -0.73091  -0.72246  -0.72237  -0.71754
 Alpha  occ. eigenvalues --   -0.71368  -0.70682  -0.66342  -0.66103  -0.65222
 Alpha  occ. eigenvalues --   -0.65034  -0.63436  -0.62363  -0.56578  -0.56074
 Alpha  occ. eigenvalues --   -0.54174  -0.53799  -0.53309  -0.53093  -0.49876
 Alpha  occ. eigenvalues --   -0.49836  -0.48996  -0.48992  -0.45787  -0.44999
 Alpha  occ. eigenvalues --   -0.38801  -0.37882  -0.37358  -0.36635
 Alpha virt. eigenvalues --    0.03788   0.04910   0.09747   0.10979   0.15275
 Alpha virt. eigenvalues --    0.16397   0.19240   0.21874   0.24999   0.26832
 Alpha virt. eigenvalues --    0.27996   0.28897   0.29660   0.30652   0.31951

 Mulliken charges:
               1
     1  C   -0.173891
     2  C   -0.222232
     3  C   -0.169679
     4  C    0.157295
     5  C   -0.170154
     6  C   -0.225260
     7  H    0.241068
     8  H    0.225601
     9  H    0.276534
    10  H    0.274502
    11  H    0.211121
    12  N    0.488125
    13  O   -0.461181
    14  O   -0.459516
    15  C   -0.176321
    16  C   -0.218496
    17  C   -0.173214
    18  C    0.157493
    19  C   -0.172935
    20  C   -0.231939
    21  H    0.230938
    22  H    0.230189
    23  H    0.280358
    24  H    0.280930
    25  H    0.226112
    26  N    0.487970
    27  O   -0.456449
    28  O   -0.456970
 Sum of Mulliken charges =  -0.00000

 Dipole moment (field-independent basis, Debye):
    X=              2.4880    Y=              4.1464    Z=              1.4901  Tot=              5.0600
 Quadrupole moment (field-independent basis, Debye-Ang):
   XX=           -165.3721   YY=           -100.9768   ZZ=            -99.8341
   XY=             11.6615   XZ=              5.3837   YZ=             -3.2541

 Normal termination of Gaussian 16 at Thu May  6 08:17:35 2021.
