 Gaussian 16, Revision A.03,
 Gaussian 16:  EM64L-G16RevA.03 25-Dec-2016

 -------------
 #p 6-31g* mp2
 -------------

 ------------------------------------------------------
 Input file generated by CHIRIPA (05-May-2021 14:53:12)
 ------------------------------------------------------
 Symbolic Z-matrix:
 Charge =  0 Multiplicity = 1

                         Standard orientation:
 ---------------------------------------------------------------------
 Center     Atomic      Atomic             Coordinates (Angstroms)
 Number     Number       Type             X           Y           Z
 ---------------------------------------------------------------------
      1          6           0       -4.057949   -0.289498    0.060729
      2          6           0       -3.169145   -0.380410    1.301594
      3          6           0       -1.697542   -0.614271    0.958826
      4          1           0       -3.958443   -1.215254   -0.522383
      5          1           0       -3.696261    0.525101   -0.581925
      6          1           0       -3.533242   -1.193699    1.942382
      7          1           0       -3.270925    0.545592    1.881919
      8          1           0       -1.312044    0.201573    0.338834
      9          1           0       -1.575852   -1.547600    0.399640
     10          1           0       -1.080225   -0.676030    1.860472
     11          6           0       -5.531926   -0.055849    0.387116
     12          6           0       -6.420731    0.035063   -0.853749
     13          6           0       -7.892333    0.268923   -0.510981
     14          1           0       -5.893614   -0.870449    1.029770
     15          1           0       -5.631432    0.869907    0.970228
     16          1           0       -6.318950   -0.890939   -1.434074
     17          1           0       -6.056633    0.848352   -1.494537
     18          1           0       -8.014024    1.202253    0.048205
     19          1           0       -8.277831   -0.546921    0.109011
     20          1           0       -8.509651    0.330682   -1.412627
     21          6           0        6.139300   -0.609199    0.115869
     22          6           0        5.779913    0.714884    0.388208
     23          6           0        4.456865    1.138254    0.230573
     24          6           0        3.514674    0.206839   -0.203054
     25          6           0        3.841638   -1.119177   -0.482463
     26          6           0        5.170722   -1.520397   -0.317832
     27          1           0        7.169421   -0.929478    0.241042
     28          1           0        6.530012    1.424713    0.725166
     29          1           0        4.151196    2.157315    0.434284
     30          1           0        3.071656   -1.803802   -0.816879
     31          1           0        5.446950   -2.549325   -0.530079
     32          7           0        2.110826    0.643316   -0.373638
     33          8           0        1.299537   -0.196653   -0.756913
     34          8           0        1.848362    1.817130   -0.120837
 ---------------------------------------------------------------------

 SCF Done:  E(RHF) =  -669.535973523     A.U. after   15 cycles
 E2 =    -0.2091126007D+01 EUMP2 =    -0.67162709952964D+03

 The electronic state is 1-A.
 Alpha  occ. eigenvalues --  -20.60926 -20.60898 -15.85930 -11.31270 -11.27833
 Alpha  occ. eigenvalues --  -11.27829 -11.27574 -11.26843 -11.26833 -11.20903
 Alpha  occ. eigenvalues --  -11.20550 -11.20500 -11.20353 -11.20289 -11.19295
 Alpha  occ. eigenvalues --   -1.59967  -1.39522  -1.19438  -1.08841  -1.07465
 Alpha  occ. eigenvalues --   -1.04836  -1.02489  -0.95684  -0.94906  -0.86237
 Alpha  occ. eigenvalues --   -0.85914  -0.82513  -0.78581  -0.77565  -0.77237
 Alpha  occ. eigenvalues --   -0.72147  -0.71275  -0.70547  -0.65092  -0.64840
 Alpha  occ. eigenvalues --   -0.64105  -0.62183  -0.59889  -0.58362  -0.56524
 Alpha  occ. eigenvalues --   -0.55344  -0.54190  -0.53168  -0.52928  -0.51621
 Alpha  occ. eigenvalues --   -0.51339  -0.49126  -0.48913  -0.48628  -0.46836
 Alpha  occ. eigenvalues --   -0.45619  -0.44978  -0.44734  -0.44626  -0.42758
 Alpha  occ. eigenvalues --   -0.37417  -0.36437
 Alpha virt. eigenvalues --    0.04955   0.11218   0.16448   0.21352   0.23767
 Alpha virt. eigenvalues --    0.25377   0.27267   0.27597   0.28201   0.28427
 Alpha virt. eigenvalues --    0.29158   0.30924   0.32419   0.32517   0.32676

 Mulliken charges:
               1
     1  C   -0.297439
     2  C   -0.301045
     3  C   -0.473965
     4  H    0.147707
     5  H    0.152714
     6  H    0.144783
     7  H    0.148830
     8  H    0.178982
     9  H    0.150844
    10  H    0.150263
    11  C   -0.297398
    12  C   -0.299016
    13  C   -0.475158
    14  H    0.146934
    15  H    0.148464
    16  H    0.150761
    17  H    0.152269
    18  H    0.154450
    19  H    0.153779
    20  H    0.158312
    21  C   -0.170638
    22  C   -0.218591
    23  C   -0.170804
    24  C    0.158431
    25  C   -0.170716
    26  C   -0.218573
    27  H    0.225882
    28  H    0.223701
    29  H    0.275752
    30  H    0.275976
    31  H    0.223749
    32  N    0.488647
    33  O   -0.457441
    34  O   -0.460445
 Sum of Mulliken charges =  -0.00000

 Dipole moment (field-independent basis, Debye):
    X=              5.3020    Y=             -1.4647    Z=              0.4813  Tot=              5.5216
 Quadrupole moment (field-independent basis, Debye-Ang):
   XX=            -62.7903   YY=            -90.3126   ZZ=            -95.7544
   XY=             -3.0574   XZ=              1.9801   YZ=              2.1028

 Normal termination of Gaussian 16 at Wed May  5 21:45:34 2021.
