 Gaussian 16, Revision A.03,
 Gaussian 16:  EM64L-G16RevA.03 25-Dec-2016

 -------------
 #p 6-31g* mp2
 -------------

 ------------------------------------------------------
 Input file generated by CHIRIPA (05-May-2021 14:53:16)
 ------------------------------------------------------
 Symbolic Z-matrix:
 Charge =  0 Multiplicity = 1

                         Standard orientation:
 ---------------------------------------------------------------------
 Center     Atomic      Atomic             Coordinates (Angstroms)
 Number     Number       Type             X           Y           Z
 ---------------------------------------------------------------------
      1          6           0        4.645728    0.469177   -0.110569
      2          6           0        5.940879    0.241464    0.669633
      3          6           0        6.890290    1.438023    0.601371
      4          1           0        4.890273    0.685653   -1.159512
      5          1           0        4.140737    1.362048    0.283336
      6          1           0        6.442584   -0.651509    0.275289
      7          1           0        5.693214    0.025315    1.716800
      8          1           0        6.412632    2.332792    1.013477
      9          1           0        7.166260    1.652122   -0.436224
     10          1           0        7.809677    1.253736    1.165841
     11          6           0        3.686345   -0.718197   -0.051803
     12          6           0        2.391194   -0.490484   -0.832005
     13          6           0        1.441783   -1.687043   -0.763743
     14          1           0        4.191336   -1.611068   -0.445708
     15          1           0        3.441800   -0.934673    0.997140
     16          1           0        2.638859   -0.274335   -1.879172
     17          1           0        1.889489    0.402490   -0.437661
     18          1           0        1.165813   -1.901142    0.273852
     19          1           0        1.919441   -2.581812   -1.175849
     20          1           0        0.522396   -1.502756   -1.328213
     21          6           0       -3.847859    2.533056   -0.221294
     22          6           0       -4.270453    1.838080    0.916662
     23          6           0       -3.947618    0.488258    1.084915
     24          6           0       -3.197373   -0.138209    0.090952
     25          6           0       -2.761674    0.527030   -1.053999
     26          6           0       -3.096145    1.876471   -1.201265
     27          1           0       -4.103164    3.581482   -0.343845
     28          1           0       -4.854363    2.345429    1.679347
     29          1           0       -4.261840   -0.073755    1.956019
     30          1           0       -2.180864   -0.005721   -1.797135
     31          1           0       -2.766599    2.413685   -2.086050
     32          7           0       -2.849443   -1.567002    0.257965
     33          8           0       -2.187413   -2.096126   -0.632193
     34          8           0       -3.245356   -2.130714    1.275865
 ---------------------------------------------------------------------

 SCF Done:  E(RHF) =  -669.535777504     A.U. after   15 cycles
 E2 =    -0.2091147363D+01 EUMP2 =    -0.67162692486744D+03

 The electronic state is 1-A.
 Alpha  occ. eigenvalues --  -20.60866 -20.60847 -15.85889 -11.31246 -11.27817
 Alpha  occ. eigenvalues --  -11.27809 -11.27553 -11.26829 -11.26819 -11.21406
 Alpha  occ. eigenvalues --  -11.21151 -11.21139 -11.20994 -11.20942 -11.20154
 Alpha  occ. eigenvalues --   -1.59918  -1.39475  -1.19417  -1.08814  -1.08105
 Alpha  occ. eigenvalues --   -1.04819  -1.03144  -0.95664  -0.95545  -0.86559
 Alpha  occ. eigenvalues --   -0.86218  -0.82486  -0.79214  -0.77922  -0.77534
 Alpha  occ. eigenvalues --   -0.72117  -0.71234  -0.70527  -0.65074  -0.64824
 Alpha  occ. eigenvalues --   -0.64743  -0.62171  -0.60549  -0.58946  -0.57179
 Alpha  occ. eigenvalues --   -0.55322  -0.54849  -0.53148  -0.52915  -0.52210
 Alpha  occ. eigenvalues --   -0.51981  -0.49503  -0.48877  -0.48864  -0.47518
 Alpha  occ. eigenvalues --   -0.46279  -0.45450  -0.45398  -0.44876  -0.43327
 Alpha  occ. eigenvalues --   -0.37396  -0.36421
 Alpha virt. eigenvalues --    0.04973   0.11213   0.16455   0.21138   0.23138
 Alpha virt. eigenvalues --    0.24404   0.26715   0.26945   0.27670   0.27829
 Alpha virt. eigenvalues --    0.28891   0.30388   0.31626   0.31790   0.32125

 Mulliken charges:
               1
     1  C   -0.297564
     2  C   -0.299409
     3  C   -0.475423
     4  H    0.148246
     5  H    0.147388
     6  H    0.152271
     7  H    0.152109
     8  H    0.154060
     9  H    0.154521
    10  H    0.159889
    11  C   -0.297589
    12  C   -0.301258
    13  C   -0.476794
    14  H    0.150001
    15  H    0.150259
    16  H    0.147699
    17  H    0.146247
    18  H    0.158123
    19  H    0.154025
    20  H    0.169980
    21  C   -0.170717
    22  C   -0.218546
    23  C   -0.171000
    24  C    0.158517
    25  C   -0.171021
    26  C   -0.218690
    27  H    0.225827
    28  H    0.223638
    29  H    0.275708
    30  H    0.276083
    31  H    0.223873
    32  N    0.488999
    33  O   -0.459654
    34  O   -0.459799
 Sum of Mulliken charges =  -0.00000

 Dipole moment (field-independent basis, Debye):
    X=             -1.4006    Y=              4.9459    Z=             -0.5708  Tot=              5.1720
 Quadrupole moment (field-independent basis, Debye-Ang):
   XX=            -87.3164   YY=            -97.0845   ZZ=            -90.5641
   XY=            -17.1116   XZ=             -1.0627   YZ=              0.7553

 Normal termination of Gaussian 16 at Thu May  6 07:31:22 2021.
