 Gaussian 16, Revision A.03,
 Gaussian 16:  EM64L-G16RevA.03 25-Dec-2016

 -------------
 #p 6-31g* mp2
 -------------

 ------------------------------------------------------
 Input file generated by CHIRIPA (05-May-2021 14:53:17)
 ------------------------------------------------------
 Symbolic Z-matrix:
 Charge =  0 Multiplicity = 1

                         Standard orientation:
 ---------------------------------------------------------------------
 Center     Atomic      Atomic             Coordinates (Angstroms)
 Number     Number       Type             X           Y           Z
 ---------------------------------------------------------------------
      1          6           0       -2.918252   -0.541332    0.373032
      2          6           0       -3.807232   -1.748401    0.674171
      3          6           0       -3.023204   -2.934203    1.237169
      4          1           0       -2.137120   -0.838112   -0.340200
      5          1           0       -2.401501   -0.236564    1.293619
      6          1           0       -4.323211   -2.049944   -0.246402
      7          1           0       -4.586455   -1.448664    1.386622
      8          1           0       -2.521227   -2.656336    2.169590
      9          1           0       -2.256488   -3.261031    0.527288
     10          1           0       -3.678101   -3.786065    1.445255
     11          6           0       -3.687610    0.652124   -0.190419
     12          6           0       -2.798629    1.859192   -0.491558
     13          6           0       -3.582658    3.044995   -1.054556
     14          1           0       -4.204360    0.347355   -1.111006
     15          1           0       -4.468742    0.948903    0.522813
     16          1           0       -2.019407    1.559456   -1.204009
     17          1           0       -2.282651    2.160735    0.429014
     18          1           0       -4.349374    3.371823   -0.344676
     19          1           0       -4.084635    2.767127   -1.986978
     20          1           0       -2.927760    3.896857   -1.262642
     21          6           0        2.027439   -2.214341   -1.231774
     22          6           0        1.013596   -1.292226   -0.951870
     23          6           0        1.308425   -0.086103   -0.309303
     24          6           0        2.633874    0.166613    0.040854
     25          6           0        3.666078   -0.731998   -0.224376
     26          6           0        3.348115   -1.931782   -0.867776
     27          1           0        1.789424   -3.148826   -1.731259
     28          1           0       -0.012948   -1.509001   -1.233399
     29          1           0        0.543031    0.645519   -0.080569
     30          1           0        4.680008   -0.487833    0.068452
     31          1           0        4.137522   -2.646050   -1.083892
     32          7           0        2.958242    1.440126    0.721552
     33          8           0        4.133884    1.639068    1.019753
     34          8           0        2.030696    2.215250    0.943992
 ---------------------------------------------------------------------

 SCF Done:  E(RHF) =  -669.535528783     A.U. after   15 cycles
 E2 =    -0.2092185083D+01 EUMP2 =    -0.67162771386633D+03

 The electronic state is 1-A.
 Alpha  occ. eigenvalues --  -20.60710 -20.60705 -15.85763 -11.31105 -11.27689
 Alpha  occ. eigenvalues --  -11.27643 -11.27431 -11.26702 -11.26667 -11.22230
 Alpha  occ. eigenvalues --  -11.22147 -11.22012 -11.21874 -11.21691 -11.21274
 Alpha  occ. eigenvalues --   -1.59786  -1.39340  -1.19282  -1.09013  -1.08685
 Alpha  occ. eigenvalues --   -1.04681  -1.04017  -0.96470  -0.95520  -0.87482
 Alpha  occ. eigenvalues --   -0.86085  -0.82360  -0.80098  -0.78868  -0.77383
 Alpha  occ. eigenvalues --   -0.71982  -0.71109  -0.70393  -0.65683  -0.64933
 Alpha  occ. eigenvalues --   -0.64681  -0.62037  -0.61405  -0.59837  -0.58074
 Alpha  occ. eigenvalues --   -0.55771  -0.55195  -0.53125  -0.53022  -0.52939
 Alpha  occ. eigenvalues --   -0.52734  -0.50410  -0.48743  -0.48736  -0.48395
 Alpha  occ. eigenvalues --   -0.47133  -0.46372  -0.46260  -0.44750  -0.44298
 Alpha  occ. eigenvalues --   -0.37271  -0.36278
 Alpha virt. eigenvalues --    0.05124   0.11341   0.16590   0.19179   0.22945
 Alpha virt. eigenvalues --    0.23269   0.24643   0.25592   0.27321   0.28307
 Alpha virt. eigenvalues --    0.29517   0.30713   0.31442   0.31521   0.32029

 Mulliken charges:
               1
     1  C   -0.304136
     2  C   -0.300037
     3  C   -0.475259
     4  H    0.139621
     5  H    0.155090
     6  H    0.152130
     7  H    0.156256
     8  H    0.158980
     9  H    0.148298
    10  H    0.162827
    11  C   -0.297775
    12  C   -0.304322
    13  C   -0.476160
    14  H    0.149622
    15  H    0.153707
    16  H    0.146045
    17  H    0.160169
    18  H    0.157114
    19  H    0.154404
    20  H    0.165540
    21  C   -0.171107
    22  C   -0.223324
    23  C   -0.175961
    24  C    0.158238
    25  C   -0.170627
    26  C   -0.218847
    27  H    0.225440
    28  H    0.228015
    29  H    0.281191
    30  H    0.275267
    31  H    0.223081
    32  N    0.487939
    33  O   -0.460821
    34  O   -0.460600
 Sum of Mulliken charges =  -0.00000

 Dipole moment (field-independent basis, Debye):
    X=             -1.3387    Y=             -4.3817    Z=             -2.2898  Tot=              5.1220
 Quadrupole moment (field-independent basis, Debye-Ang):
   XX=            -95.6692   YY=            -96.9591   ZZ=            -94.9767
   XY=            -13.5123   XZ=             -6.8671   YZ=              0.0387

 Normal termination of Gaussian 16 at Wed May  5 22:02:30 2021.
