 Gaussian 16, Revision A.03,
 Gaussian 16:  EM64L-G16RevA.03 25-Dec-2016

 -------------
 #p 6-31g* mp2
 -------------

 ------------------------------------------------------
 Input file generated by CHIRIPA (05-May-2021 14:55:24)
 ------------------------------------------------------
 Symbolic Z-matrix:
 Charge =  0 Multiplicity = 1

                         Standard orientation:
 ---------------------------------------------------------------------
 Center     Atomic      Atomic             Coordinates (Angstroms)
 Number     Number       Type             X           Y           Z
 ---------------------------------------------------------------------
      1          6           0       -1.985251    2.260069    0.399064
      2          6           0       -1.434905    0.985329    0.568416
      3          6           0       -2.186231   -0.156929    0.276350
      4          6           0       -3.490579    0.013099   -0.185230
      5          6           0       -4.067017    1.269663   -0.364271
      6          6           0       -3.297237    2.397925   -0.065919
      7          1           0       -1.394435    3.141966    0.628390
      8          1           0       -0.416260    0.875246    0.929372
      9          1           0       -1.784980   -1.155693    0.398358
     10          1           0       -5.085197    1.347551   -0.725740
     11          1           0       -3.727242    3.386656   -0.198393
     12          7           0       -4.295742   -1.188750   -0.497755
     13          8           0       -5.442558   -1.012067   -0.903013
     14          8           0       -3.764768   -2.284685   -0.331536
     15          6           0        3.715471   -0.738800    0.327718
     16          6           0        2.717493   -0.152467    1.326837
     17          6           0        1.557617   -1.101482    1.629909
     18          1           0        3.189108   -0.986176   -0.604319
     19          1           0        4.108721   -1.684746    0.725129
     20          1           0        2.327281    0.792787    0.928285
     21          1           0        3.246330    0.093718    2.256536
     22          1           0        1.928864   -2.041399    2.051018
     23          1           0        1.004593   -1.338356    0.715221
     24          1           0        0.856296   -0.662369    2.346281
     25          6           0        4.880698    0.198184    0.014611
     26          6           0        5.878677   -0.388148   -0.984507
     27          6           0        7.038552    0.560866   -1.287581
     28          1           0        4.487448    1.144130   -0.382800
     29          1           0        5.407061    0.445559    0.946648
     30          1           0        5.349839   -0.634333   -1.914206
     31          1           0        6.268889   -1.333404   -0.585956
     32          1           0        7.591577    0.797741   -0.372892
     33          1           0        6.667304    1.500783   -1.708688
     34          1           0        7.739874    0.121752   -2.003952
 ---------------------------------------------------------------------

 SCF Done:  E(RHF) =  -669.535178987     A.U. after   15 cycles
 E2 =    -0.2091809662D+01 EUMP2 =    -0.67162698864852D+03

 The electronic state is 1-A.
 Alpha  occ. eigenvalues --  -20.60702 -20.60696 -15.85753 -11.31103 -11.27677
 Alpha  occ. eigenvalues --  -11.27641 -11.27403 -11.26694 -11.26593 -11.22613
 Alpha  occ. eigenvalues --  -11.22187 -11.22091 -11.22044 -11.21942 -11.21447
 Alpha  occ. eigenvalues --   -1.59777  -1.39331  -1.19270  -1.09127  -1.08670
 Alpha  occ. eigenvalues --   -1.04682  -1.04253  -0.96714  -0.95509  -0.87736
 Alpha  occ. eigenvalues --   -0.86067  -0.82340  -0.80336  -0.78887  -0.77391
 Alpha  occ. eigenvalues --   -0.71972  -0.71100  -0.70387  -0.65798  -0.64921
 Alpha  occ. eigenvalues --   -0.64694  -0.62251  -0.61467  -0.60069  -0.58299
 Alpha  occ. eigenvalues --   -0.55994  -0.55151  -0.53444  -0.53186  -0.52992
 Alpha  occ. eigenvalues --   -0.52628  -0.50639  -0.48730  -0.48727  -0.48638
 Alpha  occ. eigenvalues --   -0.47369  -0.46436  -0.46334  -0.44740  -0.44490
 Alpha  occ. eigenvalues --   -0.37258  -0.36269
 Alpha virt. eigenvalues --    0.05127   0.11361   0.16579   0.19728   0.22632
 Alpha virt. eigenvalues --    0.23813   0.25502   0.25867   0.26662   0.28039
 Alpha virt. eigenvalues --    0.29054   0.30295   0.30939   0.31261   0.31824

 Mulliken charges:
               1
     1  C   -0.172600
     2  C   -0.227668
     3  C   -0.176894
     4  C    0.159302
     5  C   -0.171239
     6  C   -0.218526
     7  H    0.225366
     8  H    0.239213
     9  H    0.277332
    10  H    0.275241
    11  H    0.222943
    12  N    0.488228
    13  O   -0.460857
    14  O   -0.460499
    15  C   -0.298837
    16  C   -0.303219
    17  C   -0.488756
    18  H    0.152022
    19  H    0.153135
    20  H    0.146149
    21  H    0.156576
    22  H    0.166832
    23  H    0.155439
    24  H    0.157857
    25  C   -0.298768
    26  C   -0.300366
    27  C   -0.476066
    28  H    0.148597
    29  H    0.150563
    30  H    0.153297
    31  H    0.153439
    32  H    0.155601
    33  H    0.155070
    34  H    0.162091
 Sum of Mulliken charges =  -0.00000

 Dipole moment (field-independent basis, Debye):
    X=              3.1000    Y=              4.1459    Z=              1.1161  Tot=              5.2956
 Quadrupole moment (field-independent basis, Debye-Ang):
   XX=           -111.6471   YY=            -93.4309   ZZ=            -95.0599
   XY=            -18.4176   XZ=             -2.4744   YZ=             -1.8966

 Normal termination of Gaussian 16 at Thu May  6 20:54:18 2021.
