 Gaussian 16, Revision A.03,
 Gaussian 16:  EM64L-G16RevA.03 25-Dec-2016

 -------------
 #p 6-31g* mp2
 -------------

 ------------------------------------------------------
 Input file generated by CHIRIPA (05-May-2021 14:55:25)
 ------------------------------------------------------
 Symbolic Z-matrix:
 Charge =  0 Multiplicity = 1

                         Standard orientation:
 ---------------------------------------------------------------------
 Center     Atomic      Atomic             Coordinates (Angstroms)
 Number     Number       Type             X           Y           Z
 ---------------------------------------------------------------------
      1          6           0        2.308052   -2.517688    0.727824
      2          6           0        1.369744   -1.641077    1.282490
      3          6           0        1.376526   -0.285229    0.941643
      4          6           0        2.340036    0.161987    0.038905
      5          6           0        3.288080   -0.686571   -0.530702
      6          6           0        3.262542   -2.038482   -0.175409
      7          1           0        2.295498   -3.569414    0.998214
      8          1           0        0.627316   -2.010439    1.984214
      9          1           0        0.661754    0.415324    1.356064
     10          1           0        4.015961   -0.288913   -1.227463
     11          1           0        3.992464   -2.716973   -0.607740
     12          7           0        2.357144    1.595278   -0.329581
     13          8           0        3.216305    1.964403   -1.127219
     14          8           0        1.511068    2.322428    0.186214
     15          6           0       -3.181601    0.734747    0.244085
     16          6           0       -2.337817    1.944128   -0.160157
     17          6           0       -2.729749    3.216365    0.591906
     18          1           0       -4.241782    0.958054    0.062164
     19          1           0       -3.078123    0.569186    1.325415
     20          1           0       -2.441764    2.106518   -1.240639
     21          1           0       -1.279506    1.717844    0.022567
     22          1           0       -2.608764    3.078580    1.671248
     23          1           0       -3.777626    3.469461    0.400865
     24          1           0       -2.113996    4.068462    0.287540
     25          6           0       -2.801674   -0.544700   -0.499152
     26          6           0       -3.645457   -1.754081   -0.094910
     27          6           0       -3.253526   -3.026317   -0.846973
     28          1           0       -2.905151   -0.379138   -1.580483
     29          1           0       -1.741493   -0.768007   -0.317232
     30          1           0       -4.703769   -1.527797   -0.277635
     31          1           0       -3.541511   -1.916471    0.985572
     32          1           0       -2.205649   -3.279414   -0.655932
     33          1           0       -3.374511   -2.888532   -1.926315
     34          1           0       -3.869279   -3.878415   -0.542607
 ---------------------------------------------------------------------

 SCF Done:  E(RHF) =  -669.536086707     A.U. after   15 cycles
 E2 =    -0.2092752463D+01 EUMP2 =    -0.67162883916948D+03

 The electronic state is 1-A.
 Alpha  occ. eigenvalues --  -20.60949 -20.60944 -15.85975 -11.31320 -11.27898
 Alpha  occ. eigenvalues --  -11.27880 -11.27618 -11.26910 -11.26887 -11.21796
 Alpha  occ. eigenvalues --  -11.21423 -11.21343 -11.21239 -11.21024 -11.20474
 Alpha  occ. eigenvalues --   -1.60005  -1.39562  -1.19493  -1.08888  -1.08355
 Alpha  occ. eigenvalues --   -1.04894  -1.03372  -0.95844  -0.95728  -0.86867
 Alpha  occ. eigenvalues --   -0.86290  -0.82563  -0.79470  -0.78140  -0.77589
 Alpha  occ. eigenvalues --   -0.72201  -0.71315  -0.70598  -0.65150  -0.65053
 Alpha  occ. eigenvalues --   -0.64862  -0.62241  -0.60775  -0.59235  -0.57411
 Alpha  occ. eigenvalues --   -0.55391  -0.55164  -0.53216  -0.52985  -0.52509
 Alpha  occ. eigenvalues --   -0.52261  -0.49831  -0.48986  -0.48954  -0.47761
 Alpha  occ. eigenvalues --   -0.46535  -0.45715  -0.45618  -0.44791  -0.43635
 Alpha  occ. eigenvalues --   -0.37463  -0.36471
 Alpha virt. eigenvalues --    0.04853   0.11093   0.16296   0.20321   0.23002
 Alpha virt. eigenvalues --    0.24017   0.26030   0.27324   0.27776   0.28030
 Alpha virt. eigenvalues --    0.29372   0.29983   0.31536   0.31743   0.32385

 Mulliken charges:
               1
     1  C   -0.170545
     2  C   -0.219842
     3  C   -0.170661
     4  C    0.157643
     5  C   -0.170529
     6  C   -0.218263
     7  H    0.226408
     8  H    0.224603
     9  H    0.278364
    10  H    0.276063
    11  H    0.224135
    12  N    0.488968
    13  O   -0.458740
    14  O   -0.460528
    15  C   -0.298467
    16  C   -0.309363
    17  C   -0.474363
    18  H    0.149775
    19  H    0.142970
    20  H    0.152397
    21  H    0.166126
    22  H    0.151011
    23  H    0.151074
    24  H    0.169397
    25  C   -0.300272
    26  C   -0.298810
    27  C   -0.475075
    28  H    0.152001
    29  H    0.145525
    30  H    0.153946
    31  H    0.147252
    32  H    0.150922
    33  H    0.157313
    34  H    0.159563
 Sum of Mulliken charges =  -0.00000

 Dipole moment (field-independent basis, Debye):
    X=              0.1400    Y=             -4.9396    Z=              1.2151  Tot=              5.0888
 Quadrupole moment (field-independent basis, Debye-Ang):
   XX=            -92.0600   YY=            -97.5622   ZZ=            -93.0840
   XY=            -12.8311   XZ=              1.1251   YZ=             -0.1702

 Normal termination of Gaussian 16 at Thu May  6 00:05:20 2021.
