 Gaussian 16, Revision A.03,
 Gaussian 16:  EM64L-G16RevA.03 25-Dec-2016

 -------------
 #p 6-31g* mp2
 -------------

 ------------------------------------------------------
 Input file generated by CHIRIPA (05-May-2021 14:51:10)
 ------------------------------------------------------
 Symbolic Z-matrix:
 Charge =  0 Multiplicity = 1

                         Standard orientation:
 ---------------------------------------------------------------------
 Center     Atomic      Atomic             Coordinates (Angstroms)
 Number     Number       Type             X           Y           Z
 ---------------------------------------------------------------------
      1          6           0       -2.375712   -1.305598   -0.447916
      2          6           0       -0.874777   -1.258520   -0.159883
      3          6           0       -0.091250   -2.321210   -0.930966
      4          1           0       -2.760228   -2.302915   -0.194042
      5          1           0       -2.539395   -1.172688   -1.526312
      6          1           0       -0.714054   -1.390097    0.917833
      7          1           0       -0.493827   -0.261139   -0.414292
      8          1           0       -0.222052   -2.189077   -2.009869
      9          1           0       -0.443530   -3.324449   -0.670176
     10          1           0        0.979476   -2.269573   -0.710191
     11          6           0       -3.172524   -0.249250    0.315596
     12          6           0       -4.673459   -0.296328    0.027563
     13          6           0       -5.456987    0.766362    0.798646
     14          1           0       -3.008841   -0.382160    1.393992
     15          1           0       -2.788009    0.748067    0.061722
     16          1           0       -5.054409   -1.293709    0.281972
     17          1           0       -4.834182   -0.164752   -1.050153
     18          1           0       -5.104707    1.769601    0.537856
     19          1           0       -5.326185    0.634229    1.877549
     20          1           0       -6.527712    0.714725    0.577871
     21          6           0        2.432149    1.257222   -0.419929
     22          6           0        1.375421    2.141248    0.243251
     23          6           0        0.700161    3.095709   -0.742053
     24          1           0        3.190966    1.895693   -0.892684
     25          1           0        1.962281    0.679529   -1.227945
     26          1           0        1.846852    2.716076    1.050680
     27          1           0        0.619133    1.500598    0.714646
     28          1           0        0.204210    2.536300   -1.541863
     29          1           0        1.438904    3.758685   -1.203920
     30          1           0       -0.051627    3.718163   -0.246850
     31          6           0        3.116088    0.297626    0.552249
     32          6           0        4.172816   -0.586400   -0.110931
     33          6           0        4.848075   -1.540860    0.874374
     34          1           0        3.585956    0.875319    1.360265
     35          1           0        2.357270   -0.340845    1.025004
     36          1           0        4.929103    0.054251   -0.582326
     37          1           0        3.701383   -1.161228   -0.918360
     38          1           0        4.109332   -2.203836    1.336240
     39          1           0        5.344027   -0.981452    1.674183
     40          1           0        5.599863   -2.163314    0.379171
 ---------------------------------------------------------------------

 SCF Done:  E(RHF) =  -470.732942993     A.U. after   11 cycles
 E2 =    -0.1584522518D+01 EUMP2 =    -0.47231746551098D+03

 The electronic state is 1-A.
 Alpha  occ. eigenvalues --  -11.21665 -11.21631 -11.21603 -11.21548 -11.21456
 Alpha  occ. eigenvalues --  -11.21394 -11.21387 -11.21327 -11.21164 -11.21102
 Alpha  occ. eigenvalues --  -11.21089 -11.21074  -1.08515  -1.08397  -1.03602
 Alpha  occ. eigenvalues --   -1.03520  -0.96046  -0.95971  -0.87064  -0.86987
 Alpha  occ. eigenvalues --   -0.79690  -0.79566  -0.78343  -0.78192  -0.65324
 Alpha  occ. eigenvalues --   -0.64925  -0.61168  -0.60758  -0.59399  -0.59334
 Alpha  occ. eigenvalues --   -0.57646  -0.57583  -0.55345  -0.55241  -0.52734
 Alpha  occ. eigenvalues --   -0.52675  -0.52474  -0.52389  -0.50031  -0.49893
 Alpha  occ. eigenvalues --   -0.48105  -0.47806  -0.46774  -0.46545  -0.46009
 Alpha  occ. eigenvalues --   -0.45805  -0.45675  -0.45453  -0.43834  -0.43778
 Alpha virt. eigenvalues --    0.19341   0.22112   0.23564   0.24909   0.25793
 Alpha virt. eigenvalues --    0.26469   0.26838   0.27671   0.28846   0.29418
 Alpha virt. eigenvalues --    0.30103   0.31357   0.31663   0.31884   0.32538

 Mulliken charges:
               1
     1  C   -0.297885
     2  C   -0.308030
     3  C   -0.479493
     4  H    0.149853
     5  H    0.149513
     6  H    0.151466
     7  H    0.161550
     8  H    0.155251
     9  H    0.155771
    10  H    0.163212
    11  C   -0.299219
    12  C   -0.299613
    13  C   -0.475785
    14  H    0.149518
    15  H    0.150316
    16  H    0.152048
    17  H    0.152050
    18  H    0.155396
    19  H    0.155214
    20  H    0.160364
    21  C   -0.300054
    22  C   -0.304908
    23  C   -0.476671
    24  H    0.149786
    25  H    0.151028
    26  H    0.152545
    27  H    0.156610
    28  H    0.154198
    29  H    0.155671
    30  H    0.160307
    31  C   -0.300664
    32  C   -0.301750
    33  C   -0.475737
    34  H    0.149670
    35  H    0.152517
    36  H    0.152161
    37  H    0.153118
    38  H    0.155005
    39  H    0.155293
    40  H    0.160377
 Sum of Mulliken charges =  -0.00000

 Dipole moment (field-independent basis, Debye):
    X=             -0.0180    Y=             -0.0054    Z=              0.0068  Tot=              0.0200
 Quadrupole moment (field-independent basis, Debye-Ang):
   XX=            -85.0618   YY=            -84.9531   ZZ=            -84.7366
   XY=              1.5300   XZ=              0.0458   YZ=             -0.2761

 Normal termination of Gaussian 16 at Wed May  5 16:41:53 2021.
