 Gaussian 16, Revision A.03,
 Gaussian 16:  EM64L-G16RevA.03 25-Dec-2016

 -------------
 #p 6-31g* mp2
 -------------

 ------------------------------------------------------
 Input file generated by CHIRIPA (05-May-2021 14:57:25)
 ------------------------------------------------------
 Symbolic Z-matrix:
 Charge =  0 Multiplicity = 1

                         Standard orientation:
 ---------------------------------------------------------------------
 Center     Atomic      Atomic             Coordinates (Angstroms)
 Number     Number       Type             X           Y           Z
 ---------------------------------------------------------------------
      1          6           0        2.506512    2.046381    0.771933
      2          6           0        3.557357    1.558484    1.555643
      3          6           0        4.283284    0.434682    1.149876
      4          6           0        3.929759   -0.179386   -0.050637
      5          6           0        2.888014    0.282829   -0.853391
      6          6           0        2.175778    1.408122   -0.427967
      7          1           0        1.947912    2.919956    1.094777
      8          1           0        3.816430    2.052144    2.487966
      9          1           0        5.101435    0.035890    1.737254
     10          1           0        2.653153   -0.230565   -1.777882
     11          1           0        1.360162    1.784819   -1.038635
     12          7           0        4.691019   -1.369894   -0.490609
     13          8           0        4.359811   -1.892914   -1.552394
     14          8           0        5.604487   -1.757451    0.234658
     15          6           0       -5.748833   -1.487528    0.627525
     16          6           0       -5.894668   -0.546029   -0.396599
     17          6           0       -4.824019    0.274153   -0.764786
     18          6           0       -3.616304    0.125358   -0.084658
     19          6           0       -3.439786   -0.803358    0.939850
     20          6           0       -4.524016   -1.612968    1.291311
     21          1           0       -6.585813   -2.120559    0.907045
     22          1           0       -6.844711   -0.446408   -0.913840
     23          1           0       -4.909373    1.011258   -1.553968
     24          1           0       -2.480457   -0.879453    1.437159
     25          1           0       -4.407871   -2.343287    2.087044
     26          7           0       -2.475666    0.988052   -0.465587
     27          8           0       -1.422035    0.837366    0.149059
     28          8           0       -2.656865    1.798580   -1.371593
 ---------------------------------------------------------------------

 SCF Done:  E(RHF) =  -868.340222747     A.U. after   16 cycles
 E2 =    -0.2598450414D+01 EUMP2 =    -0.87093867316092D+03

 The electronic state is 1-A.
 Alpha  occ. eigenvalues --  -20.61612 -20.61607 -20.59998 -20.59989 -15.86623
 Alpha  occ. eigenvalues --  -15.85036 -11.31715 -11.30153 -11.28254 -11.28243
 Alpha  occ. eigenvalues --  -11.27943 -11.27206 -11.27192 -11.26716 -11.26577
 Alpha  occ. eigenvalues --  -11.26271 -11.25711 -11.25404  -1.60681  -1.59077
 Alpha  occ. eigenvalues --   -1.40236  -1.38637  -1.19864  -1.18266  -1.09313
 Alpha  occ. eigenvalues --   -1.07694  -1.05223  -1.03613  -0.96193  -0.94585
 Alpha  occ. eigenvalues --   -0.86634  -0.85011  -0.83030  -0.81420  -0.78109
 Alpha  occ. eigenvalues --   -0.76512  -0.72859  -0.71977  -0.71262  -0.70966
 Alpha  occ. eigenvalues --   -0.70397  -0.69358  -0.65518  -0.65224  -0.63903
 Alpha  occ. eigenvalues --   -0.63572  -0.62571  -0.60959  -0.55736  -0.54094
 Alpha  occ. eigenvalues --   -0.53569  -0.53310  -0.51975  -0.51686  -0.49625
 Alpha  occ. eigenvalues --   -0.49598  -0.48032  -0.47989  -0.45697  -0.44099
 Alpha  occ. eigenvalues --   -0.37828  -0.36813  -0.36210  -0.35193
 Alpha virt. eigenvalues --    0.04399   0.05984   0.10846   0.12456   0.15952
 Alpha virt. eigenvalues --    0.17580   0.21023   0.22658   0.26950   0.27891
 Alpha virt. eigenvalues --    0.28629   0.29429   0.30612   0.32095   0.32275

 Mulliken charges:
               1
     1  C   -0.171036
     2  C   -0.219625
     3  C   -0.174260
     4  C    0.157494
     5  C   -0.175240
     6  C   -0.209364
     7  H    0.226911
     8  H    0.218677
     9  H    0.270921
    10  H    0.272896
    11  H    0.239658
    12  N    0.488077
    13  O   -0.462832
    14  O   -0.464222
    15  C   -0.169734
    16  C   -0.218579
    17  C   -0.170506
    18  C    0.157472
    19  C   -0.170525
    20  C   -0.218501
    21  H    0.227713
    22  H    0.225082
    23  H    0.275802
    24  H    0.276541
    25  H    0.225677
    26  N    0.489129
    27  O   -0.466034
    28  O   -0.461593
 Sum of Mulliken charges =  -0.00000

 Dipole moment (field-independent basis, Debye):
    X=             -7.2581    Y=              1.2336    Z=              2.8437  Tot=              7.8922
 Quadrupole moment (field-independent basis, Debye-Ang):
   XX=            -95.3723   YY=           -107.2989   ZZ=           -100.2211
   XY=             27.1083   XZ=              6.3028   YZ=             -1.8252

 Normal termination of Gaussian 16 at Thu May  6 08:16:50 2021.
