 Gaussian 16, Revision A.03,
 Gaussian 16:  EM64L-G16RevA.03 25-Dec-2016

 -------------
 #p 6-31g* mp2
 -------------

 ------------------------------------------------------
 Input file generated by CHIRIPA (05-May-2021 14:51:12)
 ------------------------------------------------------
 Symbolic Z-matrix:
 Charge =  0 Multiplicity = 1

                         Standard orientation:
 ---------------------------------------------------------------------
 Center     Atomic      Atomic             Coordinates (Angstroms)
 Number     Number       Type             X           Y           Z
 ---------------------------------------------------------------------
      1          6           0        3.141380   -0.450551    0.035956
      2          6           0        4.037984   -1.667404   -0.195036
      3          6           0        3.283679   -2.990896   -0.063931
      4          1           0        2.690413   -0.519771    1.035347
      5          1           0        2.311391   -0.473471   -0.683757
      6          1           0        4.866802   -1.641458    0.523994
      7          1           0        4.487019   -1.595183   -1.193919
      8          1           0        2.467270   -3.042721   -0.791523
      9          1           0        2.849210   -3.089259    0.936151
     10          1           0        3.943587   -3.847537   -0.232893
     11          6           0        3.881088    0.879959   -0.091733
     12          6           0        2.984484    2.096811    0.139259
     13          6           0        3.738789    3.420303    0.008154
     14          1           0        4.711077    0.902878    0.627981
     15          1           0        4.332055    0.949178   -1.091124
     16          1           0        2.535449    2.024590    1.138143
     17          1           0        2.155666    2.070865   -0.579770
     18          1           0        4.173258    3.518666   -0.991927
     19          1           0        4.555198    3.472128    0.735747
     20          1           0        3.078881    4.276944    0.177117
     21          6           0       -2.842205   -0.374730   -0.304110
     22          6           0       -1.791492   -0.903271    0.672943
     23          6           0       -0.458456   -1.218861   -0.006183
     24          1           0       -3.000539   -1.116414   -1.098956
     25          1           0       -2.455627    0.530036   -0.793347
     26          1           0       -2.180489   -1.805986    1.161207
     27          1           0       -1.635780   -0.160325    1.465660
     28          1           0       -0.044827   -0.321918   -0.478416
     29          1           0       -0.592631   -1.976929   -0.784599
     30          1           0        0.278067   -1.595249    0.710564
     31          6           0       -4.180263   -0.054677    0.359887
     32          6           0       -5.230976    0.473863   -0.617166
     33          6           0       -6.564012    0.789454    0.061960
     34          1           0       -4.566842   -0.959443    0.849122
     35          1           0       -4.021929    0.687006    1.154733
     36          1           0       -5.386688   -0.269082   -1.409884
     37          1           0       -4.841979    1.376578   -1.105431
     38          1           0       -6.429837    1.547521    0.840375
     39          1           0       -6.977641   -0.107489    0.534192
     40          1           0       -7.300535    1.165842   -0.654788
 ---------------------------------------------------------------------

 SCF Done:  E(RHF) =  -470.731895172     A.U. after   11 cycles
 E2 =    -0.1583807489D+01 EUMP2 =    -0.47231570266140D+03

 The electronic state is 1-A.
 Alpha  occ. eigenvalues --  -11.21603 -11.21587 -11.21534 -11.21532 -11.21378
 Alpha  occ. eigenvalues --  -11.21329 -11.21318 -11.21211 -11.21072 -11.21060
 Alpha  occ. eigenvalues --  -11.21016 -11.20939  -1.08418  -1.08360  -1.03529
 Alpha  occ. eigenvalues --   -1.03459  -0.95977  -0.95908  -0.87019  -0.86914
 Alpha  occ. eigenvalues --   -0.79694  -0.79475  -0.78284  -0.78082  -0.65060
 Alpha  occ. eigenvalues --   -0.64988  -0.60901  -0.60893  -0.59488  -0.59145
 Alpha  occ. eigenvalues --   -0.57604  -0.57517  -0.55343  -0.55127  -0.52761
 Alpha  occ. eigenvalues --   -0.52589  -0.52412  -0.52307  -0.49997  -0.49778
 Alpha  occ. eigenvalues --   -0.47914  -0.47858  -0.46663  -0.46589  -0.45882
 Alpha  occ. eigenvalues --   -0.45729  -0.45671  -0.45365  -0.43743  -0.43630
 Alpha virt. eigenvalues --    0.21852   0.23072   0.23497   0.24361   0.25136
 Alpha virt. eigenvalues --    0.26498   0.26776   0.27655   0.27787   0.29762
 Alpha virt. eigenvalues --    0.29857   0.31338   0.31664   0.32140   0.32379

 Mulliken charges:
               1
     1  C   -0.302186
     2  C   -0.299198
     3  C   -0.477134
     4  H    0.148805
     5  H    0.158081
     6  H    0.151156
     7  H    0.151376
     8  H    0.157784
     9  H    0.154174
    10  H    0.159753
    11  C   -0.297940
    12  C   -0.299962
    13  C   -0.475580
    14  H    0.148969
    15  H    0.149156
    16  H    0.151833
    17  H    0.151086
    18  H    0.155213
    19  H    0.155354
    20  H    0.159977
    21  C   -0.298500
    22  C   -0.300560
    23  C   -0.478267
    24  H    0.149388
    25  H    0.149252
    26  H    0.151425
    27  H    0.151603
    28  H    0.155952
    29  H    0.153301
    30  H    0.165896
    31  C   -0.298162
    32  C   -0.299588
    33  C   -0.475678
    34  H    0.149485
    35  H    0.149576
    36  H    0.151856
    37  H    0.151820
    38  H    0.155148
    39  H    0.155164
    40  H    0.160175
 Sum of Mulliken charges =  -0.00000

 Dipole moment (field-independent basis, Debye):
    X=              0.0076    Y=             -0.0109    Z=             -0.0080  Tot=              0.0155
 Quadrupole moment (field-independent basis, Debye-Ang):
   XX=            -86.1400   YY=            -85.0854   ZZ=            -83.8752
   XY=              0.1518   XZ=              0.6193   YZ=              0.1340

 Normal termination of Gaussian 16 at Wed May  5 23:07:26 2021.
