 Gaussian 16, Revision A.03,
 Gaussian 16:  EM64L-G16RevA.03 25-Dec-2016

 -------------
 #p 6-31g* mp2
 -------------

 ------------------------------------------------------
 Input file generated by CHIRIPA (05-May-2021 14:53:12)
 ------------------------------------------------------
 Symbolic Z-matrix:
 Charge =  0 Multiplicity = 1

                         Standard orientation:
 ---------------------------------------------------------------------
 Center     Atomic      Atomic             Coordinates (Angstroms)
 Number     Number       Type             X           Y           Z
 ---------------------------------------------------------------------
      1          6           0        5.110621   -0.141798   -0.592915
      2          6           0        6.329112   -0.740258    0.110725
      3          6           0        7.272120   -1.462546   -0.851995
      4          1           0        4.565024   -0.941919   -1.111641
      5          1           0        5.450918    0.558184   -1.368556
      6          1           0        5.986590   -1.437861    0.885738
      7          1           0        6.871764    0.061350    0.627994
      8          1           0        7.641947   -0.773711   -1.618373
      9          1           0        6.751743   -2.281440   -1.359165
     10          1           0        8.136262   -1.882665   -0.327954
     11          6           0        4.158501    0.583552    0.356329
     12          6           0        2.940010    1.182012   -0.347312
     13          6           0        1.997002    1.904300    0.615408
     14          1           0        3.818203   -0.116430    1.131969
     15          1           0        4.704098    1.383673    0.875054
     16          1           0        2.397358    0.380403   -0.864581
     17          1           0        3.282532    1.879615   -1.122325
     18          1           0        2.517379    2.723194    1.122578
     19          1           0        1.627175    1.215464    1.381786
     20          1           0        1.132860    2.324419    0.091367
     21          6           0       -1.385734   -0.033611    1.254878
     22          6           0       -1.837508    1.036940    0.476198
     23          6           0       -3.074230    0.970941   -0.172424
     24          6           0       -3.836824   -0.185993   -0.019965
     25          6           0       -3.414178   -1.269242    0.748951
     26          6           0       -2.174121   -1.181262    1.388533
     27          1           0       -0.423723    0.026197    1.755232
     28          1           0       -1.227353    1.929470    0.370616
     29          1           0       -3.448215    1.785050   -0.781340
     30          1           0       -4.044723   -2.145802    0.835398
     31          1           0       -1.825807   -2.014204    1.992628
     32          7           0       -5.147851   -0.267499   -0.701848
     33          8           0       -5.800860   -1.297867   -0.551657
     34          8           0       -5.497602    0.700529   -1.373586
 ---------------------------------------------------------------------

 SCF Done:  E(RHF) =  -669.534813739     A.U. after   15 cycles
 E2 =    -0.2091686350D+01 EUMP2 =    -0.67162650008903D+03

 The electronic state is 1-A.
 Alpha  occ. eigenvalues --  -20.60715 -20.60710 -15.85768 -11.31119 -11.27691
 Alpha  occ. eigenvalues --  -11.27677 -11.27392 -11.26700 -11.26650 -11.22589
 Alpha  occ. eigenvalues --  -11.22460 -11.22211 -11.22145 -11.22010 -11.21512
 Alpha  occ. eigenvalues --   -1.59791  -1.39345  -1.19287  -1.09206  -1.08682
 Alpha  occ. eigenvalues --   -1.04692  -1.04346  -0.96833  -0.95519  -0.87861
 Alpha  occ. eigenvalues --   -0.86081  -0.82359  -0.80421  -0.78966  -0.77408
 Alpha  occ. eigenvalues --   -0.71986  -0.71114  -0.70420  -0.65838  -0.64937
 Alpha  occ. eigenvalues --   -0.64731  -0.62096  -0.61729  -0.60197  -0.58411
 Alpha  occ. eigenvalues --   -0.56202  -0.55134  -0.53606  -0.53246  -0.53012
 Alpha  occ. eigenvalues --   -0.52679  -0.50743  -0.48783  -0.48742  -0.48678
 Alpha  occ. eigenvalues --   -0.47425  -0.46520  -0.46415  -0.44754  -0.44582
 Alpha  occ. eigenvalues --   -0.37259  -0.36294
 Alpha virt. eigenvalues --    0.05123   0.11319   0.16604   0.19687   0.22475
 Alpha virt. eigenvalues --    0.23987   0.24795   0.25900   0.26351   0.27246
 Alpha virt. eigenvalues --    0.29109   0.29488   0.31187   0.31632   0.32364

 Mulliken charges:
               1
     1  C   -0.299021
     2  C   -0.300087
     3  C   -0.476137
     4  H    0.150806
     5  H    0.151432
     6  H    0.151629
     7  H    0.152761
     8  H    0.156251
     9  H    0.155929
    10  H    0.161673
    11  C   -0.298817
    12  C   -0.300204
    13  C   -0.481334
    14  H    0.147292
    15  H    0.151570
    16  H    0.154770
    17  H    0.156528
    18  H    0.161982
    19  H    0.147290
    20  H    0.157369
    21  C   -0.174603
    22  C   -0.223006
    23  C   -0.171778
    24  C    0.158530
    25  C   -0.171013
    26  C   -0.219352
    27  H    0.230517
    28  H    0.228482
    29  H    0.275494
    30  H    0.275216
    31  H    0.223117
    32  N    0.488018
    33  O   -0.460691
    34  O   -0.460613
 Sum of Mulliken charges =  -0.00000

 Dipole moment (field-independent basis, Debye):
    X=              4.8922    Y=              0.3079    Z=              2.3414  Tot=              5.4323
 Quadrupole moment (field-independent basis, Debye-Ang):
   XX=           -130.3592   YY=            -90.2400   ZZ=            -95.2002
   XY=             -0.2593   XZ=             -9.4631   YZ=             -2.9550

 Normal termination of Gaussian 16 at Thu May  6 08:51:11 2021.
