 Gaussian 16, Revision A.03,
 Gaussian 16:  EM64L-G16RevA.03 25-Dec-2016

 -------------
 #p 6-31g* mp2
 -------------

 ------------------------------------------------------
 Input file generated by CHIRIPA (05-May-2021 14:55:20)
 ------------------------------------------------------
 Symbolic Z-matrix:
 Charge =  0 Multiplicity = 1

                         Standard orientation:
 ---------------------------------------------------------------------
 Center     Atomic      Atomic             Coordinates (Angstroms)
 Number     Number       Type             X           Y           Z
 ---------------------------------------------------------------------
      1          6           0       -4.256780   -2.127569   -0.166825
      2          6           0       -3.435842   -1.850297    0.931220
      3          6           0       -2.843816   -0.592010    1.075320
      4          6           0       -3.095347    0.369859    0.098165
      5          6           0       -3.908496    0.124080   -1.007128
      6          6           0       -4.490075   -1.141234   -1.130795
      7          1           0       -4.712622   -3.107766   -0.270830
      8          1           0       -3.252896   -2.614371    1.681398
      9          1           0       -2.204063   -0.350466    1.915433
     10          1           0       -4.072259    0.906058   -1.738640
     11          1           0       -5.127185   -1.353748   -1.984595
     12          7           0       -2.474125    1.705671    0.239902
     13          8           0       -2.711434    2.535929   -0.634737
     14          8           0       -1.761666    1.897128    1.222949
     15          6           0        4.758897   -0.561630   -0.038895
     16          6           0        5.975383    0.352889   -0.186552
     17          6           0        7.299975   -0.401948   -0.070483
     18          1           0        4.807717   -1.072162    0.932660
     19          1           0        4.803382   -1.346246   -0.806875
     20          1           0        5.927896    1.136364    0.580603
     21          1           0        5.923562    0.861447   -1.157788
     22          1           0        7.373458   -1.172399   -0.844824
     23          1           0        7.377816   -0.895921    0.903444
     24          1           0        8.156334    0.270904   -0.179024
     25          6           0        3.427297    0.178396   -0.152606
     26          6           0        2.210811   -0.736122   -0.004948
     27          6           0        0.886218    0.018713   -0.121018
     28          1           0        3.382812    0.963013    0.615374
     29          1           0        3.378477    0.688929   -1.124160
     30          1           0        2.262631   -1.244682    0.966287
     31          1           0        2.258297   -1.519597   -0.772103
     32          1           0        0.808377    0.512688   -1.094944
     33          1           0        0.812736    0.789166    0.653323
     34          1           0        0.029860   -0.654138   -0.012476
 ---------------------------------------------------------------------

 SCF Done:  E(RHF) =  -669.535601580     A.U. after   15 cycles
 E2 =    -0.2092465635D+01 EUMP2 =    -0.67162806721470D+03

 The electronic state is 1-A.
 Alpha  occ. eigenvalues --  -20.60814 -20.60798 -15.85836 -11.31198 -11.27770
 Alpha  occ. eigenvalues --  -11.27764 -11.27520 -11.26795 -11.26783 -11.21319
 Alpha  occ. eigenvalues --  -11.21210 -11.21085 -11.20957 -11.20853 -11.20397
 Alpha  occ. eigenvalues --   -1.59862  -1.39420  -1.19380  -1.08772  -1.08076
 Alpha  occ. eigenvalues --   -1.04786  -1.03163  -0.95645  -0.95567  -0.86629
 Alpha  occ. eigenvalues --   -0.86174  -0.82447  -0.79243  -0.77890  -0.77485
 Alpha  occ. eigenvalues --   -0.72073  -0.71163  -0.70489  -0.65036  -0.64788
 Alpha  occ. eigenvalues --   -0.64705  -0.62134  -0.60553  -0.59009  -0.57230
 Alpha  occ. eigenvalues --   -0.55286  -0.54868  -0.53207  -0.52877  -0.52246
 Alpha  occ. eigenvalues --   -0.51987  -0.49535  -0.48829  -0.48816  -0.47544
 Alpha  occ. eigenvalues --   -0.46291  -0.45454  -0.45376  -0.44686  -0.43420
 Alpha  occ. eigenvalues --   -0.37334  -0.36367
 Alpha virt. eigenvalues --    0.05018   0.11219   0.16486   0.21357   0.23213
 Alpha virt. eigenvalues --    0.24640   0.27007   0.27241   0.27822   0.27943
 Alpha virt. eigenvalues --    0.28771   0.30955   0.31829   0.31932   0.32175

 Mulliken charges:
               1
     1  C   -0.170655
     2  C   -0.219444
     3  C   -0.171023
     4  C    0.160770
     5  C   -0.170958
     6  C   -0.218538
     7  H    0.225686
     8  H    0.223676
     9  H    0.276409
    10  H    0.275657
    11  H    0.223508
    12  N    0.489992
    13  O   -0.459921
    14  O   -0.459043
    15  C   -0.297864
    16  C   -0.299563
    17  C   -0.475490
    18  H    0.148240
    19  H    0.147836
    20  H    0.152897
    21  H    0.152213
    22  H    0.154235
    23  H    0.154460
    24  H    0.159935
    25  C   -0.298395
    26  C   -0.299366
    27  C   -0.487370
    28  H    0.152675
    29  H    0.150479
    30  H    0.147958
    31  H    0.147938
    32  H    0.155528
    33  H    0.175749
    34  H    0.151791
 Sum of Mulliken charges =  -0.00000

 Dipole moment (field-independent basis, Debye):
    X=             -2.3115    Y=             -4.5662    Z=             -0.4561  Tot=              5.1382
 Quadrupole moment (field-independent basis, Debye-Ang):
   XX=            -82.2459   YY=            -98.5998   ZZ=            -90.4121
   XY=             13.9332   XZ=              3.5440   YZ=             -1.8924

 Normal termination of Gaussian 16 at Wed May  5 17:23:08 2021.
