 Gaussian 16, Revision A.03,
 Gaussian 16:  EM64L-G16RevA.03 25-Dec-2016

 -------------
 #p 6-31g* mp2
 -------------

 ------------------------------------------------------
 Input file generated by CHIRIPA (05-May-2021 14:51:11)
 ------------------------------------------------------
 Symbolic Z-matrix:
 Charge =  0 Multiplicity = 1

                         Standard orientation:
 ---------------------------------------------------------------------
 Center     Atomic      Atomic             Coordinates (Angstroms)
 Number     Number       Type             X           Y           Z
 ---------------------------------------------------------------------
      1          6           0       -3.115969    0.704009   -0.075380
      2          6           0       -3.642781    2.130013   -0.239593
      3          6           0       -2.556474    3.187854   -0.042861
      4          1           0       -2.673897    0.596108    0.924557
      5          1           0       -2.303818    0.535339   -0.796045
      6          1           0       -4.454626    2.295491    0.480227
      7          1           0       -4.083822    2.234477   -1.239186
      8          1           0       -1.749390    3.051065   -0.769844
      9          1           0       -2.122301    3.112426    0.959339
     10          1           0       -2.954892    4.199922   -0.164696
     11          6           0       -4.190194   -0.364744   -0.269120
     12          6           0       -3.663381   -1.790748   -0.104907
     13          6           0       -4.749688   -2.848589   -0.301639
     14          1           0       -5.002344   -0.196073    0.451545
     15          1           0       -4.632266   -0.256842   -1.269057
     16          1           0       -3.222340   -1.895211    0.894686
     17          1           0       -2.851536   -1.956225   -0.824727
     18          1           0       -5.183862   -2.773160   -1.303839
     19          1           0       -5.556773   -2.711800    0.425344
     20          1           0       -4.351271   -3.860656   -0.179804
     21          6           0        3.108721   -0.322645    0.685759
     22          6           0        1.709171    0.087331    0.226234
     23          6           0        0.630942   -0.225192    1.264284
     24          1           0        3.113868   -1.398228    0.909455
     25          1           0        3.343912    0.193471    1.626877
     26          1           0        1.477239   -0.428342   -0.714460
     27          1           0        1.707405    1.162026    0.003423
     28          1           0        0.835070    0.301273    2.202242
     29          1           0        0.603596   -1.298130    1.480282
     30          1           0       -0.361686    0.076017    0.915252
     31          6           0        4.197441   -0.016620   -0.341259
     32          6           0        5.596991   -0.426597    0.118266
     33          6           0        6.675220   -0.114074   -0.919784
     34          1           0        3.962251   -0.532737   -1.282377
     35          1           0        4.192295    1.058963   -0.564956
     36          1           0        5.598758   -1.501291    0.341078
     37          1           0        5.828924    0.089077    1.058960
     38          1           0        6.702567    0.958865   -1.135782
     39          1           0        6.471093   -0.640539   -1.857743
     40          1           0        7.667849   -0.415283   -0.570753
 ---------------------------------------------------------------------

 SCF Done:  E(RHF) =  -470.732957202     A.U. after   11 cycles
 E2 =    -0.1583075523D+01 EUMP2 =    -0.47231603272495D+03

 The electronic state is 1-A.
 Alpha  occ. eigenvalues --  -11.21635 -11.21607 -11.21572 -11.21527 -11.21439
 Alpha  occ. eigenvalues --  -11.21378 -11.21357 -11.21295 -11.21096 -11.21078
 Alpha  occ. eigenvalues --  -11.21049 -11.20877  -1.08471  -1.08373  -1.03554
 Alpha  occ. eigenvalues --   -1.03463  -0.96017  -0.95902  -0.87038  -0.86918
 Alpha  occ. eigenvalues --   -0.79626  -0.79532  -0.78301  -0.78189  -0.65095
 Alpha  occ. eigenvalues --   -0.65007  -0.60946  -0.60862  -0.59440  -0.59251
 Alpha  occ. eigenvalues --   -0.57708  -0.57439  -0.55293  -0.55197  -0.52813
 Alpha  occ. eigenvalues --   -0.52646  -0.52416  -0.52223  -0.49944  -0.49855
 Alpha  occ. eigenvalues --   -0.47987  -0.47805  -0.46650  -0.46565  -0.45808
 Alpha  occ. eigenvalues --   -0.45753  -0.45721  -0.45660  -0.43822  -0.43617
 Alpha virt. eigenvalues --    0.21940   0.23120   0.23778   0.24660   0.26098
 Alpha virt. eigenvalues --    0.26566   0.26719   0.27611   0.27912   0.29247
 Alpha virt. eigenvalues --    0.31242   0.31349   0.31433   0.31804   0.32108

 Mulliken charges:
               1
     1  C   -0.304340
     2  C   -0.298787
     3  C   -0.476732
     4  H    0.154037
     5  H    0.150960
     6  H    0.152020
     7  H    0.152020
     8  H    0.155426
     9  H    0.155714
    10  H    0.160574
    11  C   -0.297441
    12  C   -0.300343
    13  C   -0.475677
    14  H    0.149579
    15  H    0.149644
    16  H    0.152931
    17  H    0.151963
    18  H    0.155124
    19  H    0.155224
    20  H    0.160333
    21  C   -0.298225
    22  C   -0.298831
    23  C   -0.485898
    24  H    0.149465
    25  H    0.149395
    26  H    0.150889
    27  H    0.151666
    28  H    0.153489
    29  H    0.154109
    30  H    0.172241
    31  C   -0.298174
    32  C   -0.299580
    33  C   -0.475665
    34  H    0.149250
    35  H    0.149535
    36  H    0.151861
    37  H    0.151885
    38  H    0.155134
    39  H    0.155078
    40  H    0.160147
 Sum of Mulliken charges =  -0.00000

 Dipole moment (field-independent basis, Debye):
    X=             -0.0730    Y=              0.0140    Z=             -0.0063  Tot=              0.0746
 Quadrupole moment (field-independent basis, Debye-Ang):
   XX=            -85.9890   YY=            -84.7067   ZZ=            -84.0696
   XY=             -0.6249   XZ=              0.2933   YZ=              0.4482

 Normal termination of Gaussian 16 at Wed May  5 15:15:16 2021.
