 Gaussian 16, Revision A.03,
 Gaussian 16:  EM64L-G16RevA.03 25-Dec-2016

 -------------
 #p 6-31g* mp2
 -------------

 ------------------------------------------------------
 Input file generated by CHIRIPA (05-May-2021 14:57:24)
 ------------------------------------------------------
 Symbolic Z-matrix:
 Charge =  0 Multiplicity = 1

                         Standard orientation:
 ---------------------------------------------------------------------
 Center     Atomic      Atomic             Coordinates (Angstroms)
 Number     Number       Type             X           Y           Z
 ---------------------------------------------------------------------
      1          6           0        1.679981    1.959398   -1.583564
      2          6           0        3.010692    2.059525   -1.164393
      3          6           0        3.611722    1.016183   -0.453938
      4          6           0        2.849276   -0.117915   -0.178641
      5          6           0        1.521410   -0.247515   -0.582703
      6          6           0        0.940891    0.808227   -1.291895
      7          1           0        1.221053    2.774708   -2.134972
      8          1           0        3.587091    2.952352   -1.389492
      9          1           0        4.640109    1.067367   -0.117458
     10          1           0        0.972236   -1.150045   -0.343403
     11          1           0       -0.092746    0.727707   -1.616174
     12          7           0        3.474703   -1.229019    0.572818
     13          8           0        2.781536   -2.217593    0.802766
     14          8           0        4.646238   -1.090288    0.917634
     15          6           0       -1.993328    1.690288    1.950926
     16          6           0       -1.336028    0.456963    1.892739
     17          6           0       -1.744598   -0.523127    0.983321
     18          6           0       -2.818983   -0.234923    0.143126
     19          6           0       -3.494117    0.984228    0.177104
     20          6           0       -3.068380    1.949528    1.094433
     21          1           0       -1.669273    2.445901    2.660457
     22          1           0       -0.500825    0.252868    2.556687
     23          1           0       -1.253606   -1.486433    0.917101
     24          1           0       -4.323488    1.158524   -0.497568
     25          1           0       -3.580721    2.906453    1.137403
     26          7           0       -3.260605   -1.264671   -0.823822
     27          8           0       -4.209841   -0.986149   -1.553215
     28          8           0       -2.649151   -2.330812   -0.834014
 ---------------------------------------------------------------------

 SCF Done:  E(RHF) =  -868.337282685     A.U. after   16 cycles
 E2 =    -0.2602432504D+01 EUMP2 =    -0.87093971518885D+03

 The electronic state is 1-A.
 Alpha  occ. eigenvalues --  -20.61388 -20.61383 -20.61066 -20.61054 -15.86440
 Alpha  occ. eigenvalues --  -15.86110 -11.31856 -11.31430 -11.28385 -11.28349
 Alpha  occ. eigenvalues --  -11.28049 -11.27970 -11.27954 -11.27678 -11.27392
 Alpha  occ. eigenvalues --  -11.27310 -11.26995 -11.26916  -1.60473  -1.60141
 Alpha  occ. eigenvalues --   -1.40020  -1.39695  -1.20009  -1.19584  -1.09373
 Alpha  occ. eigenvalues --   -1.08988  -1.05406  -1.04948  -0.96208  -0.95832
 Alpha  occ. eigenvalues --   -0.86774  -0.86373  -0.83016  -0.82656  -0.78096
 Alpha  occ. eigenvalues --   -0.77712  -0.72636  -0.72324  -0.71824  -0.71471
 Alpha  occ. eigenvalues --   -0.71098  -0.70659  -0.65623  -0.65365  -0.65224
 Alpha  occ. eigenvalues --   -0.64949  -0.62784  -0.62247  -0.55841  -0.55474
 Alpha  occ. eigenvalues --   -0.53898  -0.53457  -0.53185  -0.52969  -0.49405
 Alpha  occ. eigenvalues --   -0.49403  -0.49089  -0.49076  -0.45407  -0.45109
 Alpha  occ. eigenvalues --   -0.37981  -0.37573  -0.37391  -0.36115
 Alpha virt. eigenvalues --    0.04251   0.04940   0.10566   0.11041   0.15852
 Alpha virt. eigenvalues --    0.16400   0.20279   0.21510   0.25401   0.27137
 Alpha virt. eigenvalues --    0.27427   0.28678   0.30410   0.30785   0.31432

 Mulliken charges:
               1
     1  C   -0.172958
     2  C   -0.218850
     3  C   -0.172285
     4  C    0.156738
     5  C   -0.175964
     6  C   -0.214565
     7  H    0.225917
     8  H    0.223425
     9  H    0.275447
    10  H    0.276099
    11  H    0.227066
    12  N    0.487589
    13  O   -0.461843
    14  O   -0.459440
    15  C   -0.171545
    16  C   -0.213509
    17  C   -0.183827
    18  C    0.154537
    19  C   -0.174858
    20  C   -0.218878
    21  H    0.228344
    22  H    0.231099
    23  H    0.281638
    24  H    0.276545
    25  H    0.224888
    26  N    0.486682
    27  O   -0.458852
    28  O   -0.458639
 Sum of Mulliken charges =  -0.00000

 Dipole moment (field-independent basis, Debye):
    X=             -0.7312    Y=              7.5999    Z=              0.8525  Tot=              7.6824
 Quadrupole moment (field-independent basis, Debye-Ang):
   XX=           -120.5616   YY=           -104.9732   ZZ=           -103.3828
   XY=              0.7907   XZ=            -15.2399   YZ=             -1.5850

 Normal termination of Gaussian 16 at Thu May  6 09:48:42 2021.
