 Gaussian 16, Revision A.03,
 Gaussian 16:  EM64L-G16RevA.03 25-Dec-2016

 -------------
 #p 6-31g* mp2
 -------------

 ------------------------------------------------------
 Input file generated by CHIRIPA (05-May-2021 14:53:14)
 ------------------------------------------------------
 Symbolic Z-matrix:
 Charge =  0 Multiplicity = 1

                         Standard orientation:
 ---------------------------------------------------------------------
 Center     Atomic      Atomic             Coordinates (Angstroms)
 Number     Number       Type             X           Y           Z
 ---------------------------------------------------------------------
      1          6           0        3.152614   -0.587382   -0.139435
      2          6           0        4.060846   -1.805438    0.032150
      3          6           0        3.288436   -3.124933    0.021708
      4          1           0        2.402599   -0.581217    0.663300
      5          1           0        2.598899   -0.681724   -1.083836
      6          1           0        4.613710   -1.708154    0.975279
      7          1           0        4.808906   -1.808599   -0.770977
      8          1           0        2.749761   -3.248521   -0.923361
      9          1           0        2.553456   -3.147505    0.832817
     10          1           0        3.957040   -3.982508    0.145773
     11          6           0        3.910193    0.739167   -0.131057
     12          6           0        3.001961    1.957222   -0.302642
     13          6           0        3.774372    3.276717   -0.292200
     14          1           0        4.463908    0.833509    0.813344
     15          1           0        4.660208    0.733001   -0.933792
     16          1           0        2.253902    1.960384    0.500485
     17          1           0        2.449097    1.859938   -1.245771
     18          1           0        4.509351    3.299289   -1.103309
     19          1           0        4.313047    3.400305    0.652869
     20          1           0        3.105767    4.134293   -0.416265
     21          6           0       -5.158745    0.203905   -0.627438
     22          6           0       -4.788653    0.520365    0.683822
     23          6           0       -3.461871    0.378392    1.101001
     24          6           0       -2.526902   -0.084735    0.176535
     25          6           0       -2.864578   -0.408290   -1.136698
     26          6           0       -4.197223   -0.258597   -1.531919
     27          1           0       -6.191699    0.317191   -0.942984
     28          1           0       -5.533256    0.879765    1.388410
     29          1           0       -3.147954    0.616100    2.110143
     30          1           0       -2.099885   -0.764291   -1.816348
     31          1           0       -4.481768   -0.505129   -2.550889
     32          7           0       -1.119193   -0.239122    0.606560
     33          8           0       -0.314427   -0.649052   -0.227075
     34          8           0       -0.847253    0.052723    1.769105
 ---------------------------------------------------------------------

 SCF Done:  E(RHF) =  -669.535960053     A.U. after   15 cycles
 E2 =    -0.2091949642D+01 EUMP2 =    -0.67162790969470D+03

 The electronic state is 1-A.
 Alpha  occ. eigenvalues --  -20.61016 -20.61011 -15.86032 -11.31337 -11.27897
 Alpha  occ. eigenvalues --  -11.27893 -11.27630 -11.26898 -11.26889 -11.20289
 Alpha  occ. eigenvalues --  -11.20160 -11.20093 -11.19955 -11.19740 -11.19374
 Alpha  occ. eigenvalues --   -1.60070  -1.39626  -1.19502  -1.08912  -1.06913
 Alpha  occ. eigenvalues --   -1.04895  -1.02196  -0.95758  -0.94635  -0.86297
 Alpha  occ. eigenvalues --   -0.85661  -0.82593  -0.78257  -0.77649  -0.76640
 Alpha  occ. eigenvalues --   -0.72233  -0.71375  -0.70611  -0.65157  -0.64899
 Alpha  occ. eigenvalues --   -0.63559  -0.62243  -0.59613  -0.58020  -0.56244
 Alpha  occ. eigenvalues --   -0.55401  -0.53931  -0.53227  -0.52987  -0.51421
 Alpha  occ. eigenvalues --   -0.51077  -0.49079  -0.49015  -0.48565  -0.46566
 Alpha  occ. eigenvalues --   -0.45291  -0.45053  -0.44145  -0.43985  -0.42376
 Alpha  occ. eigenvalues --   -0.37479  -0.36495
 Alpha virt. eigenvalues --    0.04878   0.11161   0.16380   0.21294   0.24269
 Alpha virt. eigenvalues --    0.25552   0.27216   0.28043   0.28191   0.28975
 Alpha virt. eigenvalues --    0.29379   0.30917   0.32411   0.32616   0.32907

 Mulliken charges:
               1
     1  C   -0.298602
     2  C   -0.299614
     3  C   -0.472869
     4  H    0.172754
     5  H    0.151259
     6  H    0.147084
     7  H    0.144436
     8  H    0.153291
     9  H    0.159630
    10  H    0.152323
    11  C   -0.298331
    12  C   -0.298670
    13  C   -0.474707
    14  H    0.145078
    15  H    0.142202
    16  H    0.159595
    17  H    0.149384
    18  H    0.151500
    19  H    0.153319
    20  H    0.155331
    21  C   -0.170501
    22  C   -0.218579
    23  C   -0.170577
    24  C    0.158151
    25  C   -0.170669
    26  C   -0.218534
    27  H    0.226153
    28  H    0.223948
    29  H    0.275828
    30  H    0.275703
    31  H    0.223967
    32  N    0.490034
    33  O   -0.458292
    34  O   -0.461025
 Sum of Mulliken charges =  -0.00000

 Dipole moment (field-independent basis, Debye):
    X=             -5.4213    Y=              0.4980    Z=             -1.4360  Tot=              5.6303
 Quadrupole moment (field-independent basis, Debye-Ang):
   XX=            -71.9553   YY=            -97.2340   ZZ=            -90.2120
   XY=             -1.9115   XZ=              1.9731   YZ=              2.1139

 Normal termination of Gaussian 16 at Thu May  6 01:01:56 2021.
