 Gaussian 16, Revision A.03,
 Gaussian 16:  EM64L-G16RevA.03 25-Dec-2016

 -------------
 #p 6-31g* mp2
 -------------

 ------------------------------------------------------
 Input file generated by CHIRIPA (05-May-2021 14:53:14)
 ------------------------------------------------------
 Symbolic Z-matrix:
 Charge =  0 Multiplicity = 1

                         Standard orientation:
 ---------------------------------------------------------------------
 Center     Atomic      Atomic             Coordinates (Angstroms)
 Number     Number       Type             X           Y           Z
 ---------------------------------------------------------------------
      1          6           0        3.122557    0.986846   -0.400997
      2          6           0        3.436754    2.123189    0.572651
      3          6           0        3.360741    3.502034   -0.083705
      4          1           0        3.823816    1.031681   -1.245492
      5          1           0        2.118370    1.139589   -0.820130
      6          1           0        4.439502    1.967602    0.990869
      7          1           0        2.734789    2.075529    1.415021
      8          1           0        2.358496    3.682686   -0.485537
      9          1           0        4.072895    3.574147   -0.912100
     10          1           0        3.588866    4.299625    0.630206
     11          6           0        3.194481   -0.397774    0.240394
     12          6           0        2.880284   -1.534117   -0.733254
     13          6           0        2.956297   -2.912962   -0.076899
     14          1           0        4.198669   -0.550516    0.659527
     15          1           0        2.493223   -0.442608    1.084889
     16          1           0        3.582250   -1.486456   -1.575625
     17          1           0        1.877537   -1.378530   -1.151473
     18          1           0        2.244144   -2.985074    0.751496
     19          1           0        3.958543   -3.093614    0.324934
     20          1           0        2.728172   -3.710552   -0.790810
     21          6           0       -4.173627    1.580785   -0.356836
     22          6           0       -3.624693    0.873624   -1.431598
     23          6           0       -2.678655   -0.131793   -1.210924
     24          6           0       -2.302660   -0.405177    0.103298
     25          6           0       -2.831383    0.281764    1.195019
     26          6           0       -3.775922    1.283123    0.950737
     27          1           0       -4.907950    2.360242   -0.537431
     28          1           0       -3.931683    1.102649   -2.448137
     29          1           0       -2.237634   -0.694803   -2.024519
     30          1           0       -2.505625    0.030866    2.197193
     31          1           0       -4.200549    1.830684    1.787346
     32          7           0       -1.301926   -1.467420    0.349413
     33          8           0       -0.987335   -1.689195    1.516668
     34          8           0       -0.851091   -2.058115   -0.629598
 ---------------------------------------------------------------------

 SCF Done:  E(RHF) =  -669.536623973     A.U. after   15 cycles
 E2 =    -0.2091828376D+01 EUMP2 =    -0.67162845234908D+03

 The electronic state is 1-A.
 Alpha  occ. eigenvalues --  -20.61085 -20.61080 -15.86091 -11.31372 -11.27927
 Alpha  occ. eigenvalues --  -11.27924 -11.27655 -11.26923 -11.26913 -11.21109
 Alpha  occ. eigenvalues --  -11.20760 -11.20700 -11.20313 -11.20139 -11.19447
 Alpha  occ. eigenvalues --   -1.60128  -1.39686  -1.19534  -1.08946  -1.07544
 Alpha  occ. eigenvalues --   -1.04922  -1.02555  -0.95795  -0.95031  -0.86325
 Alpha  occ. eigenvalues --   -0.86056  -0.82629  -0.78709  -0.77690  -0.77267
 Alpha  occ. eigenvalues --   -0.72308  -0.71442  -0.70641  -0.65189  -0.64925
 Alpha  occ. eigenvalues --   -0.64175  -0.62269  -0.59934  -0.58491  -0.56615
 Alpha  occ. eigenvalues --   -0.55429  -0.54320  -0.53255  -0.53012  -0.51739
 Alpha  occ. eigenvalues --   -0.51457  -0.49103  -0.49074  -0.48936  -0.47001
 Alpha  occ. eigenvalues --   -0.45807  -0.45273  -0.44806  -0.44423  -0.42834
 Alpha  occ. eigenvalues --   -0.37509  -0.36521
 Alpha virt. eigenvalues --    0.04796   0.11134   0.16275   0.21262   0.23605
 Alpha virt. eigenvalues --    0.25348   0.27186   0.27422   0.28180   0.28410
 Alpha virt. eigenvalues --    0.28941   0.30845   0.32215   0.32397   0.32658

 Mulliken charges:
               1
     1  C   -0.296560
     2  C   -0.298759
     3  C   -0.474857
     4  H    0.147590
     5  H    0.144991
     6  H    0.151724
     7  H    0.150870
     8  H    0.152132
     9  H    0.154592
    10  H    0.158015
    11  C   -0.300649
    12  C   -0.303656
    13  C   -0.474790
    14  H    0.145686
    15  H    0.155058
    16  H    0.142950
    17  H    0.165775
    18  H    0.170283
    19  H    0.144944
    20  H    0.158534
    21  C   -0.170397
    22  C   -0.218533
    23  C   -0.170874
    24  C    0.158142
    25  C   -0.170745
    26  C   -0.218546
    27  H    0.226383
    28  H    0.224229
    29  H    0.276020
    30  H    0.275937
    31  H    0.224163
    32  N    0.488328
    33  O   -0.459660
    34  O   -0.458318
 Sum of Mulliken charges =  -0.00000

 Dipole moment (field-independent basis, Debye):
    X=             -3.8648    Y=              3.6171    Z=             -0.8168  Tot=              5.3560
 Quadrupole moment (field-independent basis, Debye-Ang):
   XX=            -79.1283   YY=            -99.7649   ZZ=            -90.1574
   XY=             -7.6392   XZ=              1.2638   YZ=              1.9896

 Normal termination of Gaussian 16 at Thu May  6 18:48:32 2021.
