 Gaussian 16, Revision A.03,
 Gaussian 16:  EM64L-G16RevA.03 25-Dec-2016

 -------------
 #p 6-31g* mp2
 -------------

 ------------------------------------------------------
 Input file generated by CHIRIPA (05-May-2021 14:51:11)
 ------------------------------------------------------
 Symbolic Z-matrix:
 Charge =  0 Multiplicity = 1

                         Standard orientation:
 ---------------------------------------------------------------------
 Center     Atomic      Atomic             Coordinates (Angstroms)
 Number     Number       Type             X           Y           Z
 ---------------------------------------------------------------------
      1          6           0        2.099358    0.284871    0.754989
      2          6           0        2.423206    1.777876    0.818591
      3          6           0        2.038717    2.409691    2.156789
      4          1           0        1.025117    0.141200    0.934741
      5          1           0        2.624543   -0.232173    1.569999
      6          1           0        1.898665    2.291747    0.002865
      7          1           0        3.496767    1.918025    0.638477
      8          1           0        2.572301    1.923415    2.979847
      9          1           0        0.965119    2.299259    2.340622
     10          1           0        2.278932    3.477209    2.180493
     11          6           0        2.477964   -0.360961   -0.576659
     12          6           0        2.154116   -1.853965   -0.640261
     13          6           0        2.538605   -2.485780   -1.978459
     14          1           0        1.952779    0.156083   -1.391669
     15          1           0        3.552205   -0.217289   -0.756411
     16          1           0        1.080555   -1.994115   -0.460147
     17          1           0        2.678657   -2.367836    0.175465
     18          1           0        3.612203   -2.375349   -2.162292
     19          1           0        2.005021   -1.999504   -2.801517
     20          1           0        2.298390   -3.553298   -2.002163
     21          6           0       -2.711275   -0.514175    0.226877
     22          6           0       -1.891233   -1.512207    1.045076
     23          6           0       -2.750736   -2.610963    1.671004
     24          1           0       -3.475545   -0.060621    0.872729
     25          1           0       -3.250515   -1.054227   -0.563667
     26          1           0       -1.352617   -0.970249    1.832979
     27          1           0       -1.128703   -1.963297    0.397250
     28          1           0       -3.276938   -3.177118    0.895645
     29          1           0       -3.502125   -2.178427    2.339532
     30          1           0       -2.144362   -3.313338    2.251383
     31          6           0       -1.866047    0.590264   -0.405207
     32          6           0       -2.686088    1.588297   -1.223406
     33          6           0       -1.826586    2.687053   -1.849334
     34          1           0       -1.326807    1.130316    0.385336
     35          1           0       -1.101776    0.136710   -1.051059
     36          1           0       -3.448620    2.039387   -0.575580
     37          1           0       -3.224706    1.046339   -2.011308
     38          1           0       -1.075197    2.254518   -2.517861
     39          1           0       -1.300384    3.253208   -1.073975
     40          1           0       -2.432959    3.389427   -2.429713
 ---------------------------------------------------------------------

 SCF Done:  E(RHF) =  -470.732735314     A.U. after   11 cycles
 E2 =    -0.1585405421D+01 EUMP2 =    -0.47231814073522D+03

 The electronic state is 1-A.
 Alpha  occ. eigenvalues --  -11.21696 -11.21670 -11.21550 -11.21532 -11.21517
 Alpha  occ. eigenvalues --  -11.21450 -11.21324 -11.21218 -11.21160 -11.21122
 Alpha  occ. eigenvalues --  -11.21065 -11.21065  -1.08558  -1.08344  -1.03619
 Alpha  occ. eigenvalues --   -1.03490  -0.96068  -0.95936  -0.87082  -0.86958
 Alpha  occ. eigenvalues --   -0.79714  -0.79535  -0.78508  -0.78040  -0.65198
 Alpha  occ. eigenvalues --   -0.64986  -0.61043  -0.60876  -0.59438  -0.59301
 Alpha  occ. eigenvalues --   -0.57686  -0.57545  -0.55357  -0.55229  -0.52761
 Alpha  occ. eigenvalues --   -0.52640  -0.52495  -0.52363  -0.50019  -0.49896
 Alpha  occ. eigenvalues --   -0.48128  -0.47833  -0.46906  -0.46520  -0.46390
 Alpha  occ. eigenvalues --   -0.45720  -0.45621  -0.45029  -0.43867  -0.43725
 Alpha virt. eigenvalues --    0.19736   0.22023   0.23120   0.23836   0.25381
 Alpha virt. eigenvalues --    0.26561   0.26959   0.27708   0.28261   0.30132
 Alpha virt. eigenvalues --    0.30833   0.31393   0.31628   0.32047   0.32117

 Mulliken charges:
               1
     1  C   -0.306377
     2  C   -0.300285
     3  C   -0.476236
     4  H    0.160510
     5  H    0.148339
     6  H    0.152852
     7  H    0.151685
     8  H    0.155302
     9  H    0.153909
    10  H    0.160195
    11  C   -0.297884
    12  C   -0.308732
    13  C   -0.475012
    14  H    0.149175
    15  H    0.149393
    16  H    0.159546
    17  H    0.151949
    18  H    0.155386
    19  H    0.154268
    20  H    0.159877
    21  C   -0.297619
    22  C   -0.309313
    23  C   -0.475139
    24  H    0.150010
    25  H    0.149727
    26  H    0.153445
    27  H    0.159494
    28  H    0.155216
    29  H    0.155343
    30  H    0.160878
    31  C   -0.303918
    32  C   -0.299551
    33  C   -0.476437
    34  H    0.151814
    35  H    0.151804
    36  H    0.152468
    37  H    0.152362
    38  H    0.154887
    39  H    0.155732
    40  H    0.160937
 Sum of Mulliken charges =  -0.00000

 Dipole moment (field-independent basis, Debye):
    X=             -0.0697    Y=             -0.0098    Z=              0.0060  Tot=              0.0706
 Quadrupole moment (field-independent basis, Debye-Ang):
   XX=            -84.2052   YY=            -85.5025   ZZ=            -85.0833
   XY=             -0.5642   XZ=              0.7007   YZ=              0.2188

 Normal termination of Gaussian 16 at Wed May  5 23:07:28 2021.
