 Gaussian 16, Revision A.03,
 Gaussian 16:  EM64L-G16RevA.03 25-Dec-2016

 -------------
 #p 6-31g* mp2
 -------------

 ------------------------------------------------------
 Input file generated by CHIRIPA (05-May-2021 14:51:12)
 ------------------------------------------------------
 Symbolic Z-matrix:
 Charge =  0 Multiplicity = 1

                         Standard orientation:
 ---------------------------------------------------------------------
 Center     Atomic      Atomic             Coordinates (Angstroms)
 Number     Number       Type             X           Y           Z
 ---------------------------------------------------------------------
      1          6           0        4.727487   -0.600535    0.026013
      2          6           0        6.119312   -0.014011   -0.212310
      3          6           0        7.115054   -1.048954   -0.736889
      4          1           0        4.804307   -1.432187    0.739733
      5          1           0        4.351848   -1.028732   -0.913635
      6          1           0        6.491639    0.414183    0.727179
      7          1           0        6.039143    0.816466   -0.925399
      8          1           0        6.769492   -1.468960   -1.687038
      9          1           0        7.224559   -1.873529   -0.025070
     10          1           0        8.103474   -0.608276   -0.900257
     11          6           0        3.720894    0.421909    0.550521
     12          6           0        2.329069   -0.164615    0.788843
     13          6           0        1.333327    0.870328    1.313423
     14          1           0        4.096534    0.850106    1.490168
     15          1           0        3.644074    1.253562   -0.163200
     16          1           0        2.409238   -0.995092    1.501933
     17          1           0        1.956743   -0.592809   -0.150645
     18          1           0        1.223823    1.694903    0.601604
     19          1           0        1.678890    1.290334    2.263572
     20          1           0        0.344907    0.429650    1.476791
     21          6           0       -4.867848    0.076260    0.122788
     22          6           0       -5.817393   -1.054895   -0.273238
     23          6           0       -7.100597   -1.067843    0.558033
     24          1           0       -4.615654   -0.021171    1.187612
     25          1           0       -5.387699    1.037898    0.011414
     26          1           0       -5.295458   -2.014025   -0.162471
     27          1           0       -6.067205   -0.954872   -1.337290
     28          1           0       -7.645843   -0.125886    0.439606
     29          1           0       -6.869712   -1.191057    1.621101
     30          1           0       -7.764900   -1.884368    0.258284
     31          6           0       -3.580533    0.102366   -0.699322
     32          6           0       -2.630988    1.233521   -0.303295
     33          6           0       -1.347785    1.246469   -1.134568
     34          1           0       -3.060683   -0.859272   -0.587947
     35          1           0       -3.832728    0.199796   -1.764146
     36          1           0       -2.381177    1.133497    0.760756
     37          1           0       -3.152923    2.192652   -0.414063
     38          1           0       -1.578669    1.369684   -2.197634
     39          1           0       -0.802538    0.304512   -1.016140
     40          1           0       -0.683481    2.062993   -0.834818
 ---------------------------------------------------------------------

 SCF Done:  E(RHF) =  -470.732407230     A.U. after   11 cycles
 E2 =    -0.1583147622D+01 EUMP2 =    -0.47231555485214D+03

 The electronic state is 1-A.
 Alpha  occ. eigenvalues --  -11.21595 -11.21591 -11.21584 -11.21576 -11.21394
 Alpha  occ. eigenvalues --  -11.21390 -11.21334 -11.21331 -11.21065 -11.21062
 Alpha  occ. eigenvalues --  -11.20984 -11.20982  -1.08431  -1.08399  -1.03569
 Alpha  occ. eigenvalues --   -1.03451  -0.96068  -0.95850  -0.87095  -0.86857
 Alpha  occ. eigenvalues --   -0.79615  -0.79534  -0.78233  -0.78224  -0.65105
 Alpha  occ. eigenvalues --   -0.65001  -0.61116  -0.60785  -0.59389  -0.59250
 Alpha  occ. eigenvalues --   -0.57628  -0.57530  -0.55469  -0.55019  -0.52763
 Alpha  occ. eigenvalues --   -0.52557  -0.52443  -0.52274  -0.50014  -0.49714
 Alpha  occ. eigenvalues --   -0.47960  -0.47824  -0.46614  -0.46577  -0.45774
 Alpha  occ. eigenvalues --   -0.45770  -0.45706  -0.45674  -0.43758  -0.43736
 Alpha virt. eigenvalues --    0.21194   0.23034   0.23530   0.25239   0.26236
 Alpha virt. eigenvalues --    0.26368   0.26754   0.27527   0.27604   0.29028
 Alpha virt. eigenvalues --    0.29650   0.30542   0.30976   0.32219   0.32573

 Mulliken charges:
               1
     1  C   -0.298306
     2  C   -0.299653
     3  C   -0.475701
     4  H    0.149530
     5  H    0.149590
     6  H    0.151881
     7  H    0.151990
     8  H    0.155202
     9  H    0.155125
    10  H    0.160222
    11  C   -0.298380
    12  C   -0.301496
    13  C   -0.477142
    14  H    0.149530
    15  H    0.149884
    16  H    0.151568
    17  H    0.152598
    18  H    0.158104
    19  H    0.153898
    20  H    0.161519
    21  C   -0.298260
    22  C   -0.299636
    23  C   -0.475697
    24  H    0.149565
    25  H    0.149566
    26  H    0.151879
    27  H    0.151926
    28  H    0.155187
    29  H    0.155172
    30  H    0.160222
    31  C   -0.298380
    32  C   -0.301849
    33  C   -0.476737
    34  H    0.149247
    35  H    0.149694
    36  H    0.153140
    37  H    0.151949
    38  H    0.153724
    39  H    0.156888
    40  H    0.162436
 Sum of Mulliken charges =  -0.00000

 Dipole moment (field-independent basis, Debye):
    X=              0.0025    Y=              0.0141    Z=             -0.0035  Tot=              0.0147
 Quadrupole moment (field-independent basis, Debye-Ang):
   XX=            -86.2783   YY=            -84.7672   ZZ=            -83.8784
   XY=              0.0507   XZ=              1.3305   YZ=             -0.8323

 Normal termination of Gaussian 16 at Wed May  5 23:10:26 2021.
