 Gaussian 16, Revision A.03,
 Gaussian 16:  EM64L-G16RevA.03 25-Dec-2016

 -------------
 #p 6-31g* mp2
 -------------

 ------------------------------------------------------
 Input file generated by CHIRIPA (05-May-2021 14:55:20)
 ------------------------------------------------------
 Symbolic Z-matrix:
 Charge =  0 Multiplicity = 1

                         Standard orientation:
 ---------------------------------------------------------------------
 Center     Atomic      Atomic             Coordinates (Angstroms)
 Number     Number       Type             X           Y           Z
 ---------------------------------------------------------------------
      1          6           0       -4.565855   -0.596650   -1.106104
      2          6           0       -3.736412   -1.622884   -0.642002
      3          6           0       -2.602791   -1.329054    0.121616
      4          6           0       -2.327288    0.008043    0.403682
      5          6           0       -3.134258    1.052736   -0.044319
      6          6           0       -4.262665    0.735536   -0.806310
      7          1           0       -5.444454   -0.833982   -1.698669
      8          1           0       -3.969416   -2.658384   -0.873289
      9          1           0       -1.943525   -2.103913    0.493610
     10          1           0       -2.876091    2.075417    0.202443
     11          1           0       -4.905024    1.534579   -1.165406
     12          7           0       -1.129933    0.331478    1.211229
     13          8           0       -0.909079    1.517531    1.446048
     14          8           0       -0.434974   -0.607190    1.594074
     15          6           0        2.990816   -0.663397   -0.418268
     16          6           0        4.045753   -1.696986   -0.022303
     17          6           0        3.549299   -3.135402   -0.171577
     18          1           0        2.093932   -0.809192    0.199217
     19          1           0        2.686072   -0.840955   -1.458941
     20          1           0        4.349424   -1.516668    1.016872
     21          1           0        4.940301   -1.548588   -0.640670
     22          1           0        3.264459   -3.338935   -1.208901
     23          1           0        2.670225   -3.306834    0.458059
     24          1           0        4.319249   -3.857812    0.116805
     25          6           0        3.472226    0.779270   -0.274439
     26          6           0        2.417290    1.812859   -0.670403
     27          6           0        2.913744    3.251277   -0.521129
     28          1           0        3.776970    0.956829    0.766234
     29          1           0        4.369111    0.925067   -0.891922
     30          1           0        1.522741    1.664463   -0.052037
     31          1           0        2.113618    1.632542   -1.709579
     32          1           0        3.792817    3.422707   -1.150765
     33          1           0        3.198584    3.454809    0.516195
     34          1           0        2.143795    3.973686   -0.809511
 ---------------------------------------------------------------------

 SCF Done:  E(RHF) =  -669.537014453     A.U. after   15 cycles
 E2 =    -0.2092364160D+01 EUMP2 =    -0.67162937861292D+03

 The electronic state is 1-A.
 Alpha  occ. eigenvalues --  -20.61173 -20.61162 -15.86148 -11.31379 -11.27931
 Alpha  occ. eigenvalues --  -11.27927 -11.27657 -11.26918 -11.26908 -11.20665
 Alpha  occ. eigenvalues --  -11.20339 -11.20321 -11.20224 -11.20127 -11.20040
 Alpha  occ. eigenvalues --   -1.60199  -1.39759  -1.19538  -1.08962  -1.07306
 Alpha  occ. eigenvalues --   -1.04920  -1.02496  -0.95818  -0.94965  -0.86326
 Alpha  occ. eigenvalues --   -0.85994  -0.82659  -0.78570  -0.77726  -0.77122
 Alpha  occ. eigenvalues --   -0.72377  -0.71494  -0.70650  -0.65197  -0.64925
 Alpha  occ. eigenvalues --   -0.63904  -0.62268  -0.59881  -0.58348  -0.56584
 Alpha  occ. eigenvalues --   -0.55433  -0.54247  -0.53256  -0.53012  -0.51705
 Alpha  occ. eigenvalues --   -0.51414  -0.49171  -0.49156  -0.48908  -0.46934
 Alpha  occ. eigenvalues --   -0.45760  -0.44917  -0.44683  -0.44449  -0.42725
 Alpha  occ. eigenvalues --   -0.37508  -0.36515
 Alpha virt. eigenvalues --    0.04722   0.11143   0.16195   0.21253   0.24058
 Alpha virt. eigenvalues --    0.25298   0.27196   0.27584   0.28086   0.28814
 Alpha virt. eigenvalues --    0.29007   0.30978   0.32071   0.32472   0.32875

 Mulliken charges:
               1
     1  C   -0.170203
     2  C   -0.218656
     3  C   -0.170210
     4  C    0.159106
     5  C   -0.170272
     6  C   -0.218665
     7  H    0.226390
     8  H    0.224272
     9  H    0.276038
    10  H    0.276108
    11  H    0.224177
    12  N    0.487987
    13  O   -0.457275
    14  O   -0.458664
    15  C   -0.310176
    16  C   -0.297759
    17  C   -0.475956
    18  H    0.171930
    19  H    0.140892
    20  H    0.153337
    21  H    0.147554
    22  H    0.150458
    23  H    0.158066
    24  H    0.156737
    25  C   -0.295529
    26  C   -0.309762
    27  C   -0.473330
    28  H    0.152024
    29  H    0.143250
    30  H    0.172123
    31  H    0.142687
    32  H    0.149555
    33  H    0.157280
    34  H    0.156487
 Sum of Mulliken charges =  -0.00000

 Dipole moment (field-independent basis, Debye):
    X=             -4.6144    Y=             -1.1344    Z=             -2.6124  Tot=              5.4226
 Quadrupole moment (field-independent basis, Debye-Ang):
   XX=            -76.2740   YY=            -91.7773   ZZ=            -97.1427
   XY=              1.2826   XZ=              5.6133   YZ=             -0.7346

 Normal termination of Gaussian 16 at Thu May  6 01:23:28 2021.
