 Gaussian 16, Revision A.03,
 Gaussian 16:  EM64L-G16RevA.03 25-Dec-2016

 -------------
 #p 6-31g* mp2
 -------------

 ------------------------------------------------------
 Input file generated by CHIRIPA (05-May-2021 14:55:19)
 ------------------------------------------------------
 Symbolic Z-matrix:
 Charge =  0 Multiplicity = 1

                         Standard orientation:
 ---------------------------------------------------------------------
 Center     Atomic      Atomic             Coordinates (Angstroms)
 Number     Number       Type             X           Y           Z
 ---------------------------------------------------------------------
      1          6           0       -1.293161   -1.205590    1.909358
      2          6           0       -2.542733   -1.776944    1.647355
      3          6           0       -3.381090   -1.233247    0.669551
      4          6           0       -2.936128   -0.112847   -0.030451
      5          6           0       -1.696700    0.479150    0.207554
      6          6           0       -0.874870   -0.081349    1.189890
      7          1           0       -0.648325   -1.634473    2.670700
      8          1           0       -2.870193   -2.650071    2.204547
      9          1           0       -4.353365   -1.655501    0.446390
     10          1           0       -1.397762    1.349244   -0.364278
     11          1           0        0.095051    0.364475    1.391235
     12          7           0       -3.814911    0.471635   -1.068007
     13          8           0       -3.399689    1.458947   -1.670869
     14          8           0       -4.902281   -0.068628   -1.258736
     15          6           0        4.074498   -0.307779   -0.156270
     16          6           0        3.737650   -1.445737   -1.120411
     17          6           0        4.750393   -2.589713   -1.061544
     18          1           0        5.077356    0.076123   -0.388306
     19          1           0        4.121017   -0.705241    0.867085
     20          1           0        3.690418   -1.045980   -2.141480
     21          1           0        2.735400   -1.826847   -0.886176
     22          1           0        4.792238   -3.015704   -0.053883
     23          1           0        5.752683   -2.230400   -1.316319
     24          1           0        4.490359   -3.392369   -1.758671
     25          6           0        3.071214    0.843271   -0.203540
     26          6           0        3.408064    1.981229    0.760602
     27          6           0        2.395321    3.125204    0.701735
     28          1           0        3.024697    1.240733   -1.226895
     29          1           0        2.068358    0.459369    0.028497
     30          1           0        4.410314    2.362339    0.526366
     31          1           0        3.455295    1.581472    1.781669
     32          1           0        1.393031    2.765892    0.956510
     33          1           0        2.353475    3.551195   -0.305927
     34          1           0        2.655355    3.927861    1.398861
 ---------------------------------------------------------------------

 SCF Done:  E(RHF) =  -669.535336578     A.U. after   15 cycles
 E2 =    -0.2091803050D+01 EUMP2 =    -0.67162713962825D+03

 The electronic state is 1-A.
 Alpha  occ. eigenvalues --  -20.60755 -20.60750 -15.85810 -11.31188 -11.27771
 Alpha  occ. eigenvalues --  -11.27759 -11.27518 -11.26783 -11.26759 -11.22384
 Alpha  occ. eigenvalues --  -11.22181 -11.22114 -11.22013 -11.21891 -11.21512
 Alpha  occ. eigenvalues --   -1.59831  -1.39384  -1.19368  -1.09134  -1.08760
 Alpha  occ. eigenvalues --   -1.04776  -1.04187  -0.96640  -0.95592  -0.87652
 Alpha  occ. eigenvalues --   -0.86174  -0.82430  -0.80246  -0.78942  -0.77464
 Alpha  occ. eigenvalues --   -0.72028  -0.71154  -0.70477  -0.65861  -0.65020
 Alpha  occ. eigenvalues --   -0.64739  -0.62173  -0.61534  -0.60000  -0.58240
 Alpha  occ. eigenvalues --   -0.55953  -0.55279  -0.53307  -0.53133  -0.53037
 Alpha  occ. eigenvalues --   -0.52869  -0.50597  -0.48796  -0.48781  -0.48548
 Alpha  occ. eigenvalues --   -0.47284  -0.46457  -0.46385  -0.44786  -0.44444
 Alpha  occ. eigenvalues --   -0.37350  -0.36367
 Alpha virt. eigenvalues --    0.05058   0.11216   0.16459   0.18744   0.22760
 Alpha virt. eigenvalues --    0.23539   0.25370   0.26414   0.27133   0.28390
 Alpha virt. eigenvalues --    0.29030   0.30293   0.31129   0.31416   0.32301

 Mulliken charges:
               1
     1  C   -0.171751
     2  C   -0.218555
     3  C   -0.170617
     4  C    0.158559
     5  C   -0.172402
     6  C   -0.223876
     7  H    0.225755
     8  H    0.223447
     9  H    0.275742
    10  H    0.276413
    11  H    0.230594
    12  N    0.488117
    13  O   -0.460084
    14  O   -0.460586
    15  C   -0.297942
    16  C   -0.300486
    17  C   -0.476011
    18  H    0.152692
    19  H    0.147030
    20  H    0.154941
    21  H    0.151568
    22  H    0.153933
    23  H    0.156571
    24  H    0.162388
    25  C   -0.303413
    26  C   -0.301140
    27  C   -0.476757
    28  H    0.155011
    29  H    0.142850
    30  H    0.156793
    31  H    0.149379
    32  H    0.145986
    33  H    0.160915
    34  H    0.164934
 Sum of Mulliken charges =  -0.00000

 Dipole moment (field-independent basis, Debye):
    X=              3.2445    Y=             -2.0275    Z=              3.5701  Tot=              5.2329
 Quadrupole moment (field-independent basis, Debye-Ang):
   XX=           -110.3712   YY=            -92.4588   ZZ=            -94.9561
   XY=              9.6294   XZ=            -12.2707   YZ=             -1.6207

 Normal termination of Gaussian 16 at Thu May  6 12:23:21 2021.
