 Gaussian 16, Revision A.03,
 Gaussian 16:  EM64L-G16RevA.03 25-Dec-2016

 -------------
 #p 6-31g* mp2
 -------------

 ------------------------------------------------------
 Input file generated by CHIRIPA (05-May-2021 14:55:21)
 ------------------------------------------------------
 Symbolic Z-matrix:
 Charge =  0 Multiplicity = 1

                         Standard orientation:
 ---------------------------------------------------------------------
 Center     Atomic      Atomic             Coordinates (Angstroms)
 Number     Number       Type             X           Y           Z
 ---------------------------------------------------------------------
      1          6           0        2.792003   -2.729096    0.385980
      2          6           0        1.541195   -2.116422    0.257013
      3          6           0        1.444920   -0.742394    0.017585
      4          6           0        2.625152   -0.008058   -0.087732
      5          6           0        3.886067   -0.589497    0.036017
      6          6           0        3.958390   -1.965025    0.275265
      7          1           0        2.857489   -3.797057    0.571904
      8          1           0        0.633687   -2.707319    0.342534
      9          1           0        0.489561   -0.242508   -0.086442
     10          1           0        4.773045    0.025781   -0.054098
     11          1           0        4.931144   -2.438155    0.374984
     12          7           0        2.535908    1.447358   -0.341109
     13          8           0        3.590613    2.072153   -0.429787
     14          8           0        1.412942    1.935759   -0.446230
     15          6           0       -3.187903    0.900362    0.513817
     16          6           0       -2.317843    1.949910   -0.178594
     17          6           0       -1.943742    3.109987    0.744479
     18          1           0       -4.101480    1.380866    0.889901
     19          1           0       -2.653812    0.513328    1.392649
     20          1           0       -2.852842    2.333850   -1.056650
     21          1           0       -1.406319    1.466815   -0.553241
     22          1           0       -1.387915    2.746077    1.614667
     23          1           0       -2.842656    3.618040    1.108397
     24          1           0       -1.321736    3.848538    0.229204
     25          6           0       -3.570141   -0.265666   -0.396127
     26          6           0       -4.440200   -1.315213    0.296284
     27          6           0       -4.814301   -2.475290   -0.626789
     28          1           0       -4.104232    0.121368   -1.274959
     29          1           0       -2.656563   -0.746170   -0.772211
     30          1           0       -5.351723   -0.832118    0.670931
     31          1           0       -3.905200   -1.699154    1.174339
     32          1           0       -3.915388   -2.983343   -0.990708
     33          1           0       -5.370129   -2.111380   -1.496977
     34          1           0       -5.436307   -3.213842   -0.111514
 ---------------------------------------------------------------------

 SCF Done:  E(RHF) =  -669.535700881     A.U. after   15 cycles
 E2 =    -0.2092200053D+01 EUMP2 =    -0.67162790093378D+03

 The electronic state is 1-A.
 Alpha  occ. eigenvalues --  -20.60895 -20.60890 -15.85935 -11.31273 -11.27841
 Alpha  occ. eigenvalues --  -11.27834 -11.27576 -11.26850 -11.26840 -11.21794
 Alpha  occ. eigenvalues --  -11.21505 -11.21323 -11.21202 -11.20958 -11.20175
 Alpha  occ. eigenvalues --   -1.59962  -1.39518  -1.19444  -1.08844  -1.08340
 Alpha  occ. eigenvalues --   -1.04844  -1.03290  -0.95764  -0.95668  -0.86770
 Alpha  occ. eigenvalues --   -0.86244  -0.82519  -0.79417  -0.78109  -0.77551
 Alpha  occ. eigenvalues --   -0.72167  -0.71277  -0.70556  -0.65122  -0.65031
 Alpha  occ. eigenvalues --   -0.64805  -0.62201  -0.60675  -0.59168  -0.57310
 Alpha  occ. eigenvalues --   -0.55346  -0.55061  -0.53173  -0.52941  -0.52388
 Alpha  occ. eigenvalues --   -0.52170  -0.49736  -0.48948  -0.48905  -0.47686
 Alpha  occ. eigenvalues --   -0.46487  -0.45613  -0.45513  -0.44914  -0.43564
 Alpha  occ. eigenvalues --   -0.37422  -0.36445
 Alpha virt. eigenvalues --    0.04959   0.11206   0.16456   0.19361   0.22887
 Alpha virt. eigenvalues --    0.24043   0.25629   0.27282   0.27698   0.28164
 Alpha virt. eigenvalues --    0.29813   0.30373   0.31574   0.31809   0.32598

 Mulliken charges:
               1
     1  C   -0.170209
     2  C   -0.221601
     3  C   -0.173377
     4  C    0.155644
     5  C   -0.169956
     6  C   -0.218948
     7  H    0.226023
     8  H    0.224217
     9  H    0.284394
    10  H    0.275839
    11  H    0.223790
    12  N    0.491900
    13  O   -0.459411
    14  O   -0.466251
    15  C   -0.299308
    16  C   -0.309463
    17  C   -0.471198
    18  H    0.150333
    19  H    0.144410
    20  H    0.150684
    21  H    0.165824
    22  H    0.153370
    23  H    0.147957
    24  H    0.172847
    25  C   -0.296340
    26  C   -0.299249
    27  C   -0.474885
    28  H    0.152591
    29  H    0.139285
    30  H    0.154404
    31  H    0.148367
    32  H    0.150787
    33  H    0.157240
    34  H    0.160294
 Sum of Mulliken charges =  -0.00000

 Dipole moment (field-independent basis, Debye):
    X=              0.4506    Y=             -4.9760    Z=              0.8452  Tot=              5.0674
 Quadrupole moment (field-independent basis, Debye-Ang):
   XX=            -87.5348   YY=            -95.5009   ZZ=            -96.1517
   XY=            -14.1501   XZ=              2.6267   YZ=             -0.3756

 Normal termination of Gaussian 16 at Thu May  6 10:53:28 2021.
