 Gaussian 16, Revision A.03,
 Gaussian 16:  EM64L-G16RevA.03 25-Dec-2016

 -------------
 #p 6-31g* mp2
 -------------

 ------------------------------------------------------
 Input file generated by CHIRIPA (05-May-2021 14:55:19)
 ------------------------------------------------------
 Symbolic Z-matrix:
 Charge =  0 Multiplicity = 1

                         Standard orientation:
 ---------------------------------------------------------------------
 Center     Atomic      Atomic             Coordinates (Angstroms)
 Number     Number       Type             X           Y           Z
 ---------------------------------------------------------------------
      1          6           0        0.693998   -2.287561    0.688956
      2          6           0        0.545720   -1.100300    1.413487
      3          6           0        1.350790    0.007783    1.133198
      4          6           0        2.298306   -0.106847    0.117145
      5          6           0        2.470049   -1.275975   -0.622405
      6          6           0        1.653996   -2.371462   -0.324890
      7          1           0        0.064334   -3.143454    0.913382
      8          1           0       -0.199000   -1.032271    2.201402
      9          1           0        1.257184    0.939072    1.678503
     10          1           0        3.221149   -1.313541   -1.402056
     11          1           0        1.771372   -3.292231   -0.889205
     12          7           0        3.156411    1.059563   -0.188703
     13          8           0        3.983806    0.933036   -1.088728
     14          8           0        2.985350    2.078237    0.477390
     15          6           0       -2.517839    1.051379   -0.492749
     16          6           0       -2.940092    2.250975    0.356166
     17          6           0       -2.446528    3.581294   -0.213429
     18          1           0       -1.422242    1.033948   -0.572181
     19          1           0       -2.903248    1.179711   -1.513722
     20          1           0       -2.555175    2.119749    1.375595
     21          1           0       -4.034801    2.265441    0.433747
     22          1           0       -2.841548    3.738658   -1.222289
     23          1           0       -1.353514    3.592138   -0.275089
     24          1           0       -2.759608    4.425362    0.408979
     25          6           0       -3.003774   -0.285720    0.063815
     26          6           0       -2.581520   -1.485316   -0.785101
     27          6           0       -3.075084   -2.815636   -0.215505
     28          1           0       -2.618365   -0.414052    1.084787
     29          1           0       -4.099371   -0.268290    0.143246
     30          1           0       -1.486812   -1.499783   -0.862681
     31          1           0       -2.966438   -1.354091   -1.804529
     32          1           0       -4.168099   -2.826480   -0.153846
     33          1           0       -2.680065   -2.973001    0.793354
     34          1           0       -2.762005   -3.659702   -0.837913
 ---------------------------------------------------------------------

 SCF Done:  E(RHF) =  -669.534476326     A.U. after   15 cycles
 E2 =    -0.2094998191D+01 EUMP2 =    -0.67162947451688D+03

 The electronic state is 1-A.
 Alpha  occ. eigenvalues --  -20.60864 -20.60858 -15.85921 -11.31322 -11.27911
 Alpha  occ. eigenvalues --  -11.27897 -11.27603 -11.26901 -11.26891 -11.22027
 Alpha  occ. eigenvalues --  -11.21926 -11.21886 -11.21840 -11.21631 -11.21094
 Alpha  occ. eigenvalues --   -1.59940  -1.39492  -1.19512  -1.08960  -1.08767
 Alpha  occ. eigenvalues --   -1.04911  -1.03935  -0.96408  -0.95713  -0.87411
 Alpha  occ. eigenvalues --   -0.86303  -0.82546  -0.79997  -0.78619  -0.77587
 Alpha  occ. eigenvalues --   -0.72136  -0.71265  -0.70618  -0.65575  -0.65151
 Alpha  occ. eigenvalues --   -0.64849  -0.62246  -0.61366  -0.59793  -0.57991
 Alpha  occ. eigenvalues --   -0.55877  -0.55224  -0.53287  -0.53060  -0.53002
 Alpha  occ. eigenvalues --   -0.52804  -0.50332  -0.48897  -0.48889  -0.48305
 Alpha  occ. eigenvalues --   -0.47040  -0.46163  -0.46041  -0.44890  -0.44173
 Alpha  occ. eigenvalues --   -0.37374  -0.36498
 Alpha virt. eigenvalues --    0.04918   0.11025   0.16324   0.19375   0.23049
 Alpha virt. eigenvalues --    0.23851   0.25130   0.26571   0.26795   0.28635
 Alpha virt. eigenvalues --    0.29380   0.30378   0.31106   0.31272   0.31991

 Mulliken charges:
               1
     1  C   -0.174048
     2  C   -0.215953
     3  C   -0.172039
     4  C    0.158164
     5  C   -0.170256
     6  C   -0.218591
     7  H    0.230747
     8  H    0.224915
     9  H    0.276254
    10  H    0.276335
    11  H    0.224617
    12  N    0.488157
    13  O   -0.459847
    14  O   -0.460352
    15  C   -0.301687
    16  C   -0.299025
    17  C   -0.477110
    18  H    0.153392
    19  H    0.151464
    20  H    0.146594
    21  H    0.152046
    22  H    0.156010
    23  H    0.160668
    24  H    0.161122
    25  C   -0.295625
    26  C   -0.308421
    27  C   -0.476802
    28  H    0.139436
    29  H    0.151061
    30  H    0.161756
    31  H    0.154423
    32  H    0.160206
    33  H    0.143737
    34  H    0.158652
 Sum of Mulliken charges =  -0.00000

 Dipole moment (field-independent basis, Debye):
    X=             -2.9258    Y=             -4.0479    Z=              0.9826  Tot=              5.0903
 Quadrupole moment (field-independent basis, Debye-Ang):
   XX=           -107.6767   YY=            -93.9295   ZZ=            -92.1452
   XY=            -11.1918   XZ=              1.0369   YZ=              1.8082

 Normal termination of Gaussian 16 at Thu May  6 01:19:50 2021.
