 Gaussian 16, Revision A.03,
 Gaussian 16:  EM64L-G16RevA.03 25-Dec-2016

 -------------
 #p 6-31g* mp2
 -------------

 ------------------------------------------------------
 Input file generated by CHIRIPA (05-May-2021 14:53:16)
 ------------------------------------------------------
 Symbolic Z-matrix:
 Charge =  0 Multiplicity = 1

                         Standard orientation:
 ---------------------------------------------------------------------
 Center     Atomic      Atomic             Coordinates (Angstroms)
 Number     Number       Type             X           Y           Z
 ---------------------------------------------------------------------
      1          6           0        3.494633   -0.518879   -0.625420
      2          6           0        2.083962   -0.634801   -0.047012
      3          6           0        1.156254   -1.483540   -0.916951
      4          1           0        3.436364   -0.085350   -1.633190
      5          1           0        3.919347   -1.525535   -0.742283
      6          1           0        1.662560    0.371847    0.070019
      7          1           0        2.145613   -1.067928    0.959575
      8          1           0        1.550866   -2.499128   -1.024012
      9          1           0        1.065069   -1.051173   -1.918622
     10          1           0        0.153097   -1.553148   -0.484872
     11          6           0        4.433783    0.326589    0.233014
     12          6           0        5.844454    0.442511   -0.345394
     13          6           0        6.772162    1.291250    0.524545
     14          1           0        4.009069    1.333245    0.349877
     15          1           0        4.492052   -0.106940    1.240784
     16          1           0        5.782803    0.875638   -1.351981
     17          1           0        6.265856   -0.564137   -0.462425
     18          1           0        6.863347    0.858883    1.526216
     19          1           0        6.377550    2.306838    0.631606
     20          1           0        7.775319    1.360858    0.092466
     21          6           0       -2.263155   -2.234740    0.732197
     22          6           0       -2.170870   -1.201611    1.670626
     23          6           0       -2.629705    0.082132    1.360749
     24          6           0       -3.177654    0.298421    0.097316
     25          6           0       -3.283391   -0.710215   -0.859115
     26          6           0       -2.818142   -1.986183   -0.527457
     27          1           0       -1.904229   -3.228962    0.981378
     28          1           0       -1.740323   -1.391743    2.649668
     29          1           0       -2.570433    0.900208    2.068320
     30          1           0       -3.717453   -0.490126   -1.826879
     31          1           0       -2.891086   -2.786611   -1.258237
     32          7           0       -3.666797    1.653347   -0.242266
     33          8           0       -4.145427    1.818100   -1.362269
     34          8           0       -3.562296    2.524929    0.618003
 ---------------------------------------------------------------------

 SCF Done:  E(RHF) =  -669.534864124     A.U. after   15 cycles
 E2 =    -0.2092502071D+01 EUMP2 =    -0.67162736619485D+03

 The electronic state is 1-A.
 Alpha  occ. eigenvalues --  -20.60820 -20.60815 -15.85874 -11.31266 -11.27843
 Alpha  occ. eigenvalues --  -11.27830 -11.27565 -11.26853 -11.26833 -11.21819
 Alpha  occ. eigenvalues --  -11.21713 -11.21560 -11.21494 -11.21177 -11.21159
 Alpha  occ. eigenvalues --   -1.59895  -1.39447  -1.19453  -1.08850  -1.08582
 Alpha  occ. eigenvalues --   -1.04847  -1.03681  -0.96133  -0.95665  -0.87151
 Alpha  occ. eigenvalues --   -0.86243  -0.82491  -0.79754  -0.78400  -0.77532
 Alpha  occ. eigenvalues --   -0.72092  -0.71218  -0.70551  -0.65216  -0.65096
 Alpha  occ. eigenvalues --   -0.64841  -0.62186  -0.61082  -0.59565  -0.57788
 Alpha  occ. eigenvalues --   -0.55423  -0.55341  -0.53639  -0.52932  -0.52649
 Alpha  occ. eigenvalues --   -0.52227  -0.50075  -0.48852  -0.48845  -0.48059
 Alpha  occ. eigenvalues --   -0.46791  -0.45943  -0.45866  -0.44847  -0.43947
 Alpha  occ. eigenvalues --   -0.37339  -0.36448
 Alpha virt. eigenvalues --    0.04985   0.11172   0.16447   0.21298   0.22738
 Alpha virt. eigenvalues --    0.24236   0.26479   0.27146   0.27446   0.27772
 Alpha virt. eigenvalues --    0.28426   0.30922   0.31232   0.31783   0.32261

 Mulliken charges:
               1
     1  C   -0.298193
     2  C   -0.297778
     3  C   -0.486835
     4  H    0.151133
     5  H    0.148246
     6  H    0.154355
     7  H    0.146753
     8  H    0.149574
     9  H    0.155790
    10  H    0.170320
    11  C   -0.298441
    12  C   -0.299732
    13  C   -0.475825
    14  H    0.151045
    15  H    0.148142
    16  H    0.152830
    17  H    0.151295
    18  H    0.154579
    19  H    0.156146
    20  H    0.160622
    21  C   -0.176046
    22  C   -0.216160
    23  C   -0.170898
    24  C    0.159094
    25  C   -0.170195
    26  C   -0.216005
    27  H    0.227168
    28  H    0.224342
    29  H    0.276125
    30  H    0.276116
    31  H    0.224772
    32  N    0.488035
    33  O   -0.460131
    34  O   -0.460244
 Sum of Mulliken charges =  -0.00000

 Dipole moment (field-independent basis, Debye):
    X=              1.6170    Y=             -4.7428    Z=              1.2062  Tot=              5.1540
 Quadrupole moment (field-independent basis, Debye-Ang):
   XX=           -106.6497   YY=            -97.3446   ZZ=            -90.5294
   XY=             15.9127   XZ=             -2.5221   YZ=              0.7560

 Normal termination of Gaussian 16 at Thu May  6 01:09:38 2021.
