 Gaussian 16, Revision A.03,
 Gaussian 16:  EM64L-G16RevA.03 25-Dec-2016

 -------------
 #p 6-31g* mp2
 -------------

 ------------------------------------------------------
 Input file generated by CHIRIPA (05-May-2021 14:57:23)
 ------------------------------------------------------
 Symbolic Z-matrix:
 Charge =  0 Multiplicity = 1

                         Standard orientation:
 ---------------------------------------------------------------------
 Center     Atomic      Atomic             Coordinates (Angstroms)
 Number     Number       Type             X           Y           Z
 ---------------------------------------------------------------------
      1          6           0        1.578512    2.307710    0.524123
      2          6           0        1.786964    1.452406    1.611102
      3          6           0        2.583487    0.311615    1.474366
      4          6           0        3.158786    0.055393    0.230714
      5          6           0        2.969934    0.888292   -0.871058
      6          6           0        2.169620    2.023425   -0.711310
      7          1           0        0.958281    3.191706    0.639280
      8          1           0        1.329163    1.670687    2.571735
      9          1           0        2.761483   -0.367528    2.299290
     10          1           0        3.439582    0.644368   -1.816230
     11          1           0        2.009475    2.685884   -1.557210
     12          7           0        4.004036   -1.149316    0.073777
     13          8           0        4.499656   -1.352818   -1.032380
     14          8           0        4.154918   -1.867254    1.059900
     15          6           0       -5.337631   -0.267450    0.739367
     16          6           0       -4.619395   -1.461930    0.621584
     17          6           0       -3.334197   -1.466321    0.071315
     18          6           0       -2.795368   -0.252637   -0.352864
     19          6           0       -3.485867    0.953883   -0.248887
     20          6           0       -4.769576    0.934525    0.304523
     21          1           0       -6.335426   -0.273263    1.168049
     22          1           0       -5.058044   -2.396892    0.958452
     23          1           0       -2.756017   -2.376551   -0.031671
     24          1           0       -3.022152    1.870184   -0.593531
     25          1           0       -5.325047    1.863695    0.394758
     26          7           0       -1.435574   -0.244715   -0.937072
     27          8           0       -0.983195    0.837808   -1.303312
     28          8           0       -0.847895   -1.321179   -1.017670
 ---------------------------------------------------------------------

 SCF Done:  E(RHF) =  -868.337656909     A.U. after   16 cycles
 E2 =    -0.2600831732D+01 EUMP2 =    -0.87093848864066D+03

 The electronic state is 1-A.
 Alpha  occ. eigenvalues --  -20.61196 -20.61175 -20.59653 -20.59634 -15.86222
 Alpha  occ. eigenvalues --  -15.84695 -11.31587 -11.29875 -11.28192 -11.28110
 Alpha  occ. eigenvalues --  -11.27874 -11.27180 -11.27126 -11.26513 -11.26370
 Alpha  occ. eigenvalues --  -11.26206 -11.25552 -11.25370  -1.60247  -1.58718
 Alpha  occ. eigenvalues --   -1.39808  -1.38281  -1.19754  -1.18032  -1.09147
 Alpha  occ. eigenvalues --   -1.07478  -1.05155  -1.03438  -0.95987  -0.94351
 Alpha  occ. eigenvalues --   -0.86552  -0.84866  -0.82823  -0.81208  -0.77875
 Alpha  occ. eigenvalues --   -0.76266  -0.72464  -0.71569  -0.70934  -0.70857
 Alpha  occ. eigenvalues --   -0.70019  -0.69224  -0.65408  -0.65154  -0.63727
 Alpha  occ. eigenvalues --   -0.63501  -0.62504  -0.60829  -0.55648  -0.54014
 Alpha  occ. eigenvalues --   -0.53491  -0.53245  -0.51773  -0.51584  -0.49209
 Alpha  occ. eigenvalues --   -0.49152  -0.47688  -0.47671  -0.45222  -0.43732
 Alpha  occ. eigenvalues --   -0.37733  -0.36763  -0.35929  -0.34957
 Alpha virt. eigenvalues --    0.04638   0.06313   0.10893   0.12665   0.16153
 Alpha virt. eigenvalues --    0.17851   0.21042   0.22515   0.26939   0.27903
 Alpha virt. eigenvalues --    0.28434   0.29363   0.30635   0.31903   0.32298

 Mulliken charges:
               1
     1  C   -0.163105
     2  C   -0.223231
     3  C   -0.171408
     4  C    0.162122
     5  C   -0.165916
     6  C   -0.198429
     7  H    0.217866
     8  H    0.215128
     9  H    0.270140
    10  H    0.273104
    11  H    0.220941
    12  N    0.488945
    13  O   -0.461866
    14  O   -0.465596
    15  C   -0.170814
    16  C   -0.218463
    17  C   -0.170825
    18  C    0.158624
    19  C   -0.172174
    20  C   -0.218498
    21  H    0.226729
    22  H    0.225428
    23  H    0.278311
    24  H    0.271268
    25  H    0.223176
    26  N    0.489270
    27  O   -0.465276
    28  O   -0.455451
 Sum of Mulliken charges =  -0.00000

 Dipole moment (field-independent basis, Debye):
    X=             -7.9958    Y=              4.1357    Z=              2.3693  Tot=              9.3086
 Quadrupole moment (field-independent basis, Debye-Ang):
   XX=            -98.5564   YY=            -99.9064   ZZ=           -102.5650
   XY=             14.8327   XZ=             -4.6522   YZ=             -1.8037

 Normal termination of Gaussian 16 at Thu May  6 16:15:31 2021.
