 Gaussian 16, Revision A.03,
 Gaussian 16:  EM64L-G16RevA.03 25-Dec-2016

 -------------
 #p 6-31g* mp2
 -------------

 ------------------------------------------------------
 Input file generated by CHIRIPA (05-May-2021 14:53:12)
 ------------------------------------------------------
 Symbolic Z-matrix:
 Charge =  0 Multiplicity = 1

                         Standard orientation:
 ---------------------------------------------------------------------
 Center     Atomic      Atomic             Coordinates (Angstroms)
 Number     Number       Type             X           Y           Z
 ---------------------------------------------------------------------
      1          6           0        4.432519    0.134051   -0.105147
      2          6           0        5.714828   -0.693338   -0.200521
      3          6           0        6.760440   -0.059476   -1.118512
      4          1           0        4.010202    0.261416   -1.111314
      5          1           0        4.680134    1.140546    0.259614
      6          1           0        5.464685   -1.698406   -0.563678
      7          1           0        6.134039   -0.818910    0.806013
      8          1           0        7.038748    0.935440   -0.756175
      9          1           0        6.365591    0.050947   -2.133648
     10          1           0        7.668957   -0.667410   -1.172133
     11          6           0        3.377609   -0.486679    0.808956
     12          6           0        2.095300    0.340711    0.904329
     13          6           0        1.049688   -0.293151    1.822320
     14          1           0        3.129994   -1.493174    0.444194
     15          1           0        3.799926   -0.614044    1.815122
     16          1           0        1.676089    0.466283   -0.102204
     17          1           0        2.345443    1.345778    1.267487
     18          1           0        1.444537   -0.403574    2.837457
     19          1           0        0.771380   -1.288067    1.459984
     20          1           0        0.141171    0.314782    1.875941
     21          6           0       -4.475304   -1.942154   -0.170930
     22          6           0       -3.160797   -2.016887   -0.643167
     23          6           0       -2.362408   -0.870904   -0.705182
     24          6           0       -2.913119    0.338823   -0.284979
     25          6           0       -4.219233    0.445568    0.190373
     26          6           0       -4.999403   -0.713332    0.243601
     27          1           0       -5.088435   -2.837400   -0.126169
     28          1           0       -2.751136   -2.969858   -0.965763
     29          1           0       -1.341619   -0.900269   -1.066491
     30          1           0       -4.599792    1.409746    0.504941
     31          1           0       -6.019937   -0.652308    0.610795
     32          7           0       -2.077544    1.558861   -0.345981
     33          8           0       -2.586201    2.612634    0.030139
     34          8           0       -0.929786    1.438251   -0.768758
 ---------------------------------------------------------------------

 SCF Done:  E(RHF) =  -669.535955174     A.U. after   15 cycles
 E2 =    -0.2092012230D+01 EUMP2 =    -0.67162796740411D+03

 The electronic state is 1-A.
 Alpha  occ. eigenvalues --  -20.60937 -20.60923 -15.85955 -11.31260 -11.27826
 Alpha  occ. eigenvalues --  -11.27823 -11.27562 -11.26830 -11.26820 -11.21201
 Alpha  occ. eigenvalues --  -11.20846 -11.20768 -11.20716 -11.20616 -11.20460
 Alpha  occ. eigenvalues --   -1.59990  -1.39547  -1.19429  -1.08838  -1.07839
 Alpha  occ. eigenvalues --   -1.04824  -1.02934  -0.95689  -0.95431  -0.86466
 Alpha  occ. eigenvalues --   -0.86223  -0.82522  -0.78995  -0.77664  -0.77526
 Alpha  occ. eigenvalues --   -0.72187  -0.71311  -0.70541  -0.65092  -0.64832
 Alpha  occ. eigenvalues --   -0.64475  -0.62177  -0.60337  -0.58789  -0.57005
 Alpha  occ. eigenvalues --   -0.55333  -0.54759  -0.53154  -0.52917  -0.52137
 Alpha  occ. eigenvalues --   -0.51856  -0.49410  -0.48947  -0.48932  -0.47312
 Alpha  occ. eigenvalues --   -0.46032  -0.45197  -0.45141  -0.44814  -0.43202
 Alpha  occ. eigenvalues --   -0.37404  -0.36418
 Alpha virt. eigenvalues --    0.04935   0.11204   0.16410   0.21055   0.23261
 Alpha virt. eigenvalues --    0.24436   0.26868   0.27451   0.27852   0.28280
 Alpha virt. eigenvalues --    0.28744   0.30870   0.31545   0.32071   0.32243

 Mulliken charges:
               1
     1  C   -0.297803
     2  C   -0.298930
     3  C   -0.475359
     4  H    0.150812
     5  H    0.150825
     6  H    0.149412
     7  H    0.150857
     8  H    0.155627
     9  H    0.155066
    10  H    0.158378
    11  C   -0.298144
    12  C   -0.302456
    13  C   -0.474008
    14  H    0.143217
    15  H    0.146639
    16  H    0.169749
    17  H    0.154183
    18  H    0.151470
    19  H    0.143752
    20  H    0.161882
    21  C   -0.170406
    22  C   -0.218791
    23  C   -0.169156
    24  C    0.157326
    25  C   -0.170847
    26  C   -0.218573
    27  H    0.225916
    28  H    0.223681
    29  H    0.276049
    30  H    0.275709
    31  H    0.223706
    32  N    0.490854
    33  O   -0.458941
    34  O   -0.461697
 Sum of Mulliken charges =  -0.00000

 Dipole moment (field-independent basis, Debye):
    X=             -3.1285    Y=             -4.1385    Z=              0.1229  Tot=              5.1893
 Quadrupole moment (field-independent basis, Debye-Ang):
   XX=            -76.0506   YY=            -96.5617   ZZ=            -94.9825
   XY=              9.7252   XZ=             -0.7125   YZ=              3.2372

 Normal termination of Gaussian 16 at Thu May  6 18:40:54 2021.
