 Gaussian 16, Revision A.03,
 Gaussian 16:  EM64L-G16RevA.03 25-Dec-2016

 -------------
 #p 6-31g* mp2
 -------------

 ------------------------------------------------------
 Input file generated by CHIRIPA (05-May-2021 14:51:10)
 ------------------------------------------------------
 Symbolic Z-matrix:
 Charge =  0 Multiplicity = 1

                         Standard orientation:
 ---------------------------------------------------------------------
 Center     Atomic      Atomic             Coordinates (Angstroms)
 Number     Number       Type             X           Y           Z
 ---------------------------------------------------------------------
      1          6           0       -2.615084    1.440667   -0.190903
      2          6           0       -1.637336    2.125419    0.764663
      3          6           0       -1.697083    3.650812    0.678641
      4          1           0       -2.397339    1.760160   -1.219230
      5          1           0       -3.635334    1.781787    0.032977
      6          1           0       -0.619385    1.782057    0.539955
      7          1           0       -1.857312    1.804110    1.790815
      8          1           0       -2.701339    4.011437    0.923634
      9          1           0       -1.456378    3.989258   -0.334333
     10          1           0       -0.990118    4.119903    1.370026
     11          6           0       -2.567098   -0.084421   -0.116525
     12          6           0       -3.544847   -0.769174   -1.072091
     13          6           0       -3.485100   -2.294567   -0.986069
     14          1           0       -1.546848   -0.425541   -0.340404
     15          1           0       -2.784844   -0.403915    0.911802
     16          1           0       -3.324871   -0.447865   -2.098243
     17          1           0       -4.562798   -0.425811   -0.847383
     18          1           0       -3.725805   -2.633013    0.026906
     19          1           0       -2.480844   -2.655191   -1.231061
     20          1           0       -4.192065   -2.763658   -1.677454
     21          6           0        2.935743    0.003225    0.133401
     22          6           0        4.050124    0.088185   -0.910113
     23          6           0        4.730101    1.457350   -0.938690
     24          1           0        2.188196    0.781220   -0.073584
     25          1           0        3.353452    0.226967    1.124791
     26          1           0        3.630715   -0.137006   -1.899052
     27          1           0        4.795008   -0.690225   -0.700732
     28          1           0        5.174891    1.686978    0.034981
     29          1           0        4.003982    2.243340   -1.170148
     30          1           0        5.523437    1.495961   -1.691675
     31          6           0        2.246440   -1.359471    0.174027
     32          6           0        1.132058   -1.444432    1.217541
     33          6           0        0.452082   -2.813595    1.246117
     34          1           0        1.828731   -1.583212   -0.817363
     35          1           0        2.993986   -2.137465    0.381013
     36          1           0        0.387174   -0.666021    1.008160
     37          1           0        1.551468   -1.219239    2.206480
     38          1           0        1.178200   -3.599585    1.477576
     39          1           0        0.007292   -3.043223    0.272447
     40          1           0       -0.341255   -2.852206    1.999102
 ---------------------------------------------------------------------

 SCF Done:  E(RHF) =  -470.732906717     A.U. after   11 cycles
 E2 =    -0.1584368705D+01 EUMP2 =    -0.47231727542280D+03

 The electronic state is 1-A.
 Alpha  occ. eigenvalues --  -11.21654 -11.21631 -11.21619 -11.21500 -11.21442
 Alpha  occ. eigenvalues --  -11.21416 -11.21380 -11.21350 -11.21108 -11.21087
 Alpha  occ. eigenvalues --  -11.21084 -11.21017  -1.08498  -1.08407  -1.03569
 Alpha  occ. eigenvalues --   -1.03509  -0.96016  -0.95964  -0.87032  -0.86978
 Alpha  occ. eigenvalues --   -0.79641  -0.79575  -0.78408  -0.78133  -0.65291
 Alpha  occ. eigenvalues --   -0.64901  -0.61015  -0.60876  -0.59381  -0.59333
 Alpha  occ. eigenvalues --   -0.57681  -0.57521  -0.55308  -0.55260  -0.52715
 Alpha  occ. eigenvalues --   -0.52648  -0.52461  -0.52367  -0.50028  -0.49841
 Alpha  occ. eigenvalues --   -0.47954  -0.47930  -0.46775  -0.46647  -0.46165
 Alpha  occ. eigenvalues --   -0.45786  -0.45736  -0.45117  -0.43819  -0.43765
 Alpha virt. eigenvalues --    0.20054   0.22262   0.23573   0.24195   0.25615
 Alpha virt. eigenvalues --    0.26182   0.26728   0.27604   0.28224   0.29600
 Alpha virt. eigenvalues --    0.30710   0.31504   0.31682   0.32005   0.32490

 Mulliken charges:
               1
     1  C   -0.298213
     2  C   -0.304475
     3  C   -0.475606
     4  H    0.149216
     5  H    0.149853
     6  H    0.155482
     7  H    0.152530
     8  H    0.155450
     9  H    0.155012
    10  H    0.160724
    11  C   -0.303137
    12  C   -0.299532
    13  C   -0.476758
    14  H    0.154956
    15  H    0.149979
    16  H    0.151621
    17  H    0.152095
    18  H    0.155778
    19  H    0.156176
    20  H    0.160259
    21  C   -0.300260
    22  C   -0.299590
    23  C   -0.475713
    24  H    0.150357
    25  H    0.149959
    26  H    0.151704
    27  H    0.152232
    28  H    0.155308
    29  H    0.155084
    30  H    0.160305
    31  C   -0.298304
    32  C   -0.309412
    33  C   -0.476356
    34  H    0.148235
    35  H    0.149913
    36  H    0.162142
    37  H    0.151744
    38  H    0.154745
    39  H    0.155997
    40  H    0.160503
 Sum of Mulliken charges =  -0.00000

 Dipole moment (field-independent basis, Debye):
    X=             -0.0307    Y=              0.0123    Z=              0.0148  Tot=              0.0362
 Quadrupole moment (field-independent basis, Debye-Ang):
   XX=            -84.1167   YY=            -86.8145   ZZ=            -83.7885
   XY=             -0.8345   XZ=             -0.0020   YZ=             -0.1284

 Normal termination of Gaussian 16 at Thu May  6 02:12:10 2021.
