 Gaussian 16, Revision A.03,
 Gaussian 16:  EM64L-G16RevA.03 25-Dec-2016

 -------------
 #p 6-31g* mp2
 -------------

 ------------------------------------------------------
 Input file generated by CHIRIPA (05-May-2021 14:57:24)
 ------------------------------------------------------
 Symbolic Z-matrix:
 Charge =  0 Multiplicity = 1

                         Standard orientation:
 ---------------------------------------------------------------------
 Center     Atomic      Atomic             Coordinates (Angstroms)
 Number     Number       Type             X           Y           Z
 ---------------------------------------------------------------------
      1          6           0        1.566585   -0.570456    1.124338
      2          6           0        2.063114   -1.361070    0.082749
      3          6           0        3.294930   -1.064838   -0.508372
      4          6           0        4.007035    0.034370   -0.030945
      5          6           0        3.539046    0.841111    1.005127
      6          6           0        2.304834    0.526178    1.581398
      7          1           0        0.608751   -0.807840    1.577767
      8          1           0        1.491947   -2.213342   -0.274249
      9          1           0        3.702898   -1.660112   -1.316227
     10          1           0        4.131248    1.684261    1.339512
     11          1           0        1.921694    1.141940    2.390154
     12          7           0        5.312372    0.357877   -0.648877
     13          8           0        5.920458    1.331715   -0.210122
     14          8           0        5.702691   -0.368522   -1.560267
     15          6           0       -4.483693    2.420199   -0.419230
     16          6           0       -5.257904    1.384321   -0.952217
     17          6           0       -4.884165    0.050160   -0.765451
     18          6           0       -3.725020   -0.213196   -0.037223
     19          6           0       -2.932737    0.796842    0.506283
     20          6           0       -3.325622    2.123676    0.307039
     21          1           0       -4.781460    3.453762   -0.569162
     22          1           0       -6.157770    1.611638   -1.516674
     23          1           0       -5.465074   -0.771224   -1.167062
     24          1           0       -2.040899    0.538981    1.064452
     25          1           0       -2.722426    2.926115    0.722118
     26          7           0       -3.319224   -1.621735    0.167104
     27          8           0       -2.293630   -1.827360    0.812482
     28          8           0       -4.034440   -2.493452   -0.321993
 ---------------------------------------------------------------------

 SCF Done:  E(RHF) =  -868.339483455     A.U. after   16 cycles
 E2 =    -0.2598872025D+01 EUMP2 =    -0.87093835547991D+03

 The electronic state is 1-A.
 Alpha  occ. eigenvalues --  -20.61809 -20.61742 -20.60542 -20.60532 -15.86818
 Alpha  occ. eigenvalues --  -15.85590 -11.31973 -11.30875 -11.28581 -11.28473
 Alpha  occ. eigenvalues --  -11.28181 -11.27491 -11.27479 -11.27439 -11.27386
 Alpha  occ. eigenvalues --  -11.27037 -11.26478 -11.26284  -1.60835  -1.59618
 Alpha  occ. eigenvalues --   -1.40402  -1.39173  -1.20117  -1.19027  -1.09541
 Alpha  occ. eigenvalues --   -1.08415  -1.05494  -1.04419  -0.96419  -0.95266
 Alpha  occ. eigenvalues --   -0.86901  -0.85803  -0.83268  -0.82106  -0.78350
 Alpha  occ. eigenvalues --   -0.77185  -0.73056  -0.72141  -0.71807  -0.71225
 Alpha  occ. eigenvalues --   -0.70941  -0.70058  -0.65776  -0.65493  -0.64665
 Alpha  occ. eigenvalues --   -0.64397  -0.62860  -0.61764  -0.55983  -0.54827
 Alpha  occ. eigenvalues --   -0.53822  -0.53583  -0.52757  -0.52489  -0.49812
 Alpha  occ. eigenvalues --   -0.49759  -0.48569  -0.48557  -0.45852  -0.44597
 Alpha  occ. eigenvalues --   -0.38066  -0.37088  -0.36979  -0.36037
 Alpha virt. eigenvalues --    0.04182   0.05331   0.10575   0.11618   0.15727
 Alpha virt. eigenvalues --    0.16783   0.19862   0.21910   0.25570   0.27048
 Alpha virt. eigenvalues --    0.27725   0.28964   0.30508   0.31073   0.32812

 Mulliken charges:
               1
     1  C   -0.180739
     2  C   -0.220586
     3  C   -0.171897
     4  C    0.157955
     5  C   -0.171674
     6  C   -0.221002
     7  H    0.241594
     8  H    0.233163
     9  H    0.275309
    10  H    0.273258
    11  H    0.218237
    12  N    0.488123
    13  O   -0.462312
    14  O   -0.460581
    15  C   -0.169651
    16  C   -0.218187
    17  C   -0.170051
    18  C    0.158455
    19  C   -0.168865
    20  C   -0.218208
    21  H    0.228617
    22  H    0.226319
    23  H    0.277252
    24  H    0.268016
    25  H    0.224646
    26  N    0.491488
    27  O   -0.474159
    28  O   -0.454521
 Sum of Mulliken charges =  -0.00000

 Dipole moment (field-independent basis, Debye):
    X=             -6.4367    Y=              3.7590    Z=              1.3221  Tot=              7.5703
 Quadrupole moment (field-independent basis, Debye-Ang):
   XX=           -128.1566   YY=           -103.9347   ZZ=           -102.8618
   XY=            -21.8422   XZ=             14.7350   YZ=              3.7293

 Normal termination of Gaussian 16 at Thu May  6 22:45:46 2021.
