 Gaussian 16, Revision A.03,
 Gaussian 16:  EM64L-G16RevA.03 25-Dec-2016

 -------------
 #p 6-31g* mp2
 -------------

 ------------------------------------------------------
 Input file generated by CHIRIPA (05-May-2021 14:53:15)
 ------------------------------------------------------
 Symbolic Z-matrix:
 Charge =  0 Multiplicity = 1

                         Standard orientation:
 ---------------------------------------------------------------------
 Center     Atomic      Atomic             Coordinates (Angstroms)
 Number     Number       Type             X           Y           Z
 ---------------------------------------------------------------------
      1          6           0        3.940853   -0.416478    0.297056
      2          6           0        2.728825   -0.864149   -0.520600
      3          6           0        1.484341   -1.085288    0.339721
      4          1           0        4.154728   -1.170638    1.066760
      5          1           0        3.692435    0.511975    0.829653
      6          1           0        2.979915   -1.790736   -1.052585
      7          1           0        2.517927   -0.108928   -1.288571
      8          1           0        1.206273   -0.162621    0.859302
      9          1           0        1.670886   -1.853984    1.096628
     10          1           0        0.629872   -1.404853   -0.264944
     11          6           0        5.192729   -0.191309   -0.549014
     12          6           0        6.404757    0.256363    0.268643
     13          6           0        7.649240    0.477502   -0.591679
     14          1           0        5.441147   -1.119761   -1.081611
     15          1           0        4.978853    0.562852   -1.318718
     16          1           0        6.615654   -0.498859    1.036613
     17          1           0        6.153666    1.182949    0.800627
     18          1           0        7.462695    1.246198   -1.348586
     19          1           0        7.927308   -0.445166   -1.111260
     20          1           0        8.503710    0.797067    0.012987
     21          6           0       -1.469462    1.299364    1.012284
     22          6           0       -2.286096    2.011257    0.127503
     23          6           0       -3.451081    1.432822   -0.385111
     24          6           0       -3.770666    0.134751    0.010072
     25          6           0       -2.977489   -0.600163    0.889880
     26          6           0       -1.817152   -0.001779    1.389983
     27          1           0       -0.566279    1.756456    1.405635
     28          1           0       -2.018557    3.021901   -0.167569
     29          1           0       -4.101342    1.961323   -1.071598
     30          1           0       -3.270331   -1.605958    1.165631
     31          1           0       -1.184835   -0.557016    2.076957
     32          7           0       -5.001522   -0.488171   -0.525986
     33          8           0       -5.261004   -1.633178   -0.162303
     34          8           0       -5.683479    0.180383   -1.299682
 ---------------------------------------------------------------------

 SCF Done:  E(RHF) =  -669.534705740     A.U. after   15 cycles
 E2 =    -0.2091995056D+01 EUMP2 =    -0.67162670079593D+03

 The electronic state is 1-A.
 Alpha  occ. eigenvalues --  -20.60738 -20.60732 -15.85790 -11.31152 -11.27713
 Alpha  occ. eigenvalues --  -11.27692 -11.27448 -11.26742 -11.26692 -11.22243
 Alpha  occ. eigenvalues --  -11.22049 -11.22006 -11.21882 -11.21867 -11.21443
 Alpha  occ. eigenvalues --   -1.59813  -1.39367  -1.19321  -1.08997  -1.08720
 Alpha  occ. eigenvalues --   -1.04724  -1.04098  -0.96572  -0.95555  -0.87605
 Alpha  occ. eigenvalues --   -0.86110  -0.82386  -0.80178  -0.78798  -0.77428
 Alpha  occ. eigenvalues --   -0.72009  -0.71137  -0.70449  -0.65634  -0.64975
 Alpha  occ. eigenvalues --   -0.64728  -0.62078  -0.61496  -0.59922  -0.58160
 Alpha  occ. eigenvalues --   -0.55906  -0.55218  -0.53449  -0.53016  -0.52909
 Alpha  occ. eigenvalues --   -0.52723  -0.50507  -0.48769  -0.48765  -0.48483
 Alpha  occ. eigenvalues --   -0.47203  -0.46343  -0.46261  -0.44774  -0.44346
 Alpha  occ. eigenvalues --   -0.37258  -0.36295
 Alpha virt. eigenvalues --    0.05072   0.11296   0.16494   0.20559   0.22416
 Alpha virt. eigenvalues --    0.23866   0.25766   0.26201   0.27039   0.27585
 Alpha virt. eigenvalues --    0.28646   0.30054   0.31152   0.31576   0.31917

 Mulliken charges:
               1
     1  C   -0.298153
     2  C   -0.300768
     3  C   -0.476479
     4  H    0.150441
     5  H    0.145649
     6  H    0.155441
     7  H    0.153077
     8  H    0.144073
     9  H    0.153921
    10  H    0.167374
    11  C   -0.298607
    12  C   -0.299834
    13  C   -0.475970
    14  H    0.151376
    15  H    0.149974
    16  H    0.152517
    17  H    0.151000
    18  H    0.155493
    19  H    0.156248
    20  H    0.161206
    21  C   -0.170353
    22  C   -0.219236
    23  C   -0.171377
    24  C    0.158619
    25  C   -0.173885
    26  C   -0.213390
    27  H    0.224462
    28  H    0.223063
    29  H    0.275354
    30  H    0.275439
    31  H    0.226329
    32  N    0.488079
    33  O   -0.460495
    34  O   -0.460585
 Sum of Mulliken charges =  -0.00000

 Dipole moment (field-independent basis, Debye):
    X=              4.4508    Y=              2.1452    Z=              1.8346  Tot=              5.2704
 Quadrupole moment (field-independent basis, Debye-Ang):
   XX=           -128.6301   YY=            -89.9638   ZZ=            -94.2124
   XY=             -9.2119   XZ=             -6.2127   YZ=             -2.2532

 Normal termination of Gaussian 16 at Thu May  6 10:34:49 2021.
