 Gaussian 16, Revision A.03,
 Gaussian 16:  EM64L-G16RevA.03 25-Dec-2016

 -------------
 #p 6-31g* mp2
 -------------

 ------------------------------------------------------
 Input file generated by CHIRIPA (05-May-2021 14:55:22)
 ------------------------------------------------------
 Symbolic Z-matrix:
 Charge =  0 Multiplicity = 1

                         Standard orientation:
 ---------------------------------------------------------------------
 Center     Atomic      Atomic             Coordinates (Angstroms)
 Number     Number       Type             X           Y           Z
 ---------------------------------------------------------------------
      1          6           0        0.372144   -1.177240    1.471531
      2          6           0        0.906255   -1.880435    0.386743
      3          6           0        2.008591   -1.378458   -0.311412
      4          6           0        2.554302   -0.164884    0.104194
      5          6           0        2.044816    0.559159    1.180984
      6          6           0        0.942125    0.038170    1.864496
      7          1           0       -0.484316   -1.574573    2.008187
      8          1           0        0.465651   -2.824582    0.079334
      9          1           0        2.442078   -1.902172   -1.154757
     10          1           0        2.505643    1.497767    1.463953
     11          1           0        0.529423    0.586447    2.706585
     12          7           0        3.721484    0.376601   -0.627161
     13          8           0        4.184010    1.447926   -0.241195
     14          8           0        4.151695   -0.280561   -1.572515
     15          6           0       -3.311039    1.030179   -0.348859
     16          6           0       -2.286000    2.129918   -0.069830
     17          6           0       -2.876730    3.534505   -0.196192
     18          1           0       -3.721035    1.167578   -1.358795
     19          1           0       -4.153677    1.138626    0.347987
     20          1           0       -1.444897    2.018590   -0.766083
     21          1           0       -1.878257    1.989772    0.939486
     22          1           0       -3.702753    3.669941    0.509459
     23          1           0       -3.266931    3.698923   -1.205801
     24          1           0       -2.126802    4.305237    0.007375
     25          6           0       -2.735517   -0.379615   -0.226449
     26          6           0       -3.760556   -1.479353   -0.505478
     27          6           0       -3.169826   -2.883940   -0.379116
     28          1           0       -1.892879   -0.488061   -0.923296
     29          1           0       -2.325521   -0.517014    0.783486
     30          1           0       -4.168299   -1.339207   -1.514795
     31          1           0       -4.601659   -1.368026    0.190775
     32          1           0       -2.779625   -3.048358    0.630493
     33          1           0       -2.343803   -3.019376   -1.084768
     34          1           0       -3.919754   -3.654673   -0.582683
 ---------------------------------------------------------------------

 SCF Done:  E(RHF) =  -669.534356655     A.U. after   15 cycles
 E2 =    -0.2093863638D+01 EUMP2 =    -0.67162822029360D+03

 The electronic state is 1-A.
 Alpha  occ. eigenvalues --  -20.60741 -20.60736 -15.85797 -11.31141 -11.27744
 Alpha  occ. eigenvalues --  -11.27736 -11.27462 -11.26731 -11.26697 -11.22348
 Alpha  occ. eigenvalues --  -11.22095 -11.22045 -11.22019 -11.21891 -11.21418
 Alpha  occ. eigenvalues --   -1.59819  -1.39373  -1.19333  -1.09071  -1.08710
 Alpha  occ. eigenvalues --   -1.04735  -1.04164  -0.96628  -0.95568  -0.87646
 Alpha  occ. eigenvalues --   -0.86132  -0.82405  -0.80230  -0.78863  -0.77439
 Alpha  occ. eigenvalues --   -0.72016  -0.71144  -0.70475  -0.65688  -0.64984
 Alpha  occ. eigenvalues --   -0.64733  -0.62086  -0.61568  -0.59996  -0.58239
 Alpha  occ. eigenvalues --   -0.55948  -0.55258  -0.53383  -0.53161  -0.52951
 Alpha  occ. eigenvalues --   -0.52794  -0.50583  -0.48774  -0.48771  -0.48547
 Alpha  occ. eigenvalues --   -0.47256  -0.46392  -0.46282  -0.44783  -0.44395
 Alpha  occ. eigenvalues --   -0.37186  -0.36328
 Alpha virt. eigenvalues --    0.05080   0.11169   0.16482   0.19359   0.22752
 Alpha virt. eigenvalues --    0.23446   0.24961   0.26229   0.26820   0.28321
 Alpha virt. eigenvalues --    0.28601   0.30263   0.31174   0.31630   0.31929

 Mulliken charges:
               1
     1  C   -0.165308
     2  C   -0.220128
     3  C   -0.171949
     4  C    0.157798
     5  C   -0.170414
     6  C   -0.218505
     7  H    0.225561
     8  H    0.225629
     9  H    0.275375
    10  H    0.275518
    11  H    0.222746
    12  N    0.488123
    13  O   -0.460680
    14  O   -0.460791
    15  C   -0.299053
    16  C   -0.298719
    17  C   -0.476313
    18  H    0.152074
    19  H    0.148817
    20  H    0.156400
    21  H    0.145667
    22  H    0.154445
    23  H    0.157231
    24  H    0.161910
    25  C   -0.298051
    26  C   -0.299849
    27  C   -0.476988
    28  H    0.154894
    29  H    0.140499
    30  H    0.155808
    31  H    0.153007
    32  H    0.145852
    33  H    0.154017
    34  H    0.165375
 Sum of Mulliken charges =  -0.00000

 Dipole moment (field-independent basis, Debye):
    X=             -4.1932    Y=             -1.8611    Z=              2.4773  Tot=              5.2138
 Quadrupole moment (field-independent basis, Debye-Ang):
   XX=           -116.5141   YY=            -92.3904   ZZ=            -91.8368
   XY=             -3.8522   XZ=              6.3052   YZ=              2.2083

 Normal termination of Gaussian 16 at Thu May  6 01:29:29 2021.
