 Gaussian 16, Revision A.03,
 Gaussian 16:  EM64L-G16RevA.03 25-Dec-2016

 -------------
 #p 6-31g* mp2
 -------------

 ------------------------------------------------------
 Input file generated by CHIRIPA (05-May-2021 14:53:12)
 ------------------------------------------------------
 Symbolic Z-matrix:
 Charge =  0 Multiplicity = 1

                         Standard orientation:
 ---------------------------------------------------------------------
 Center     Atomic      Atomic             Coordinates (Angstroms)
 Number     Number       Type             X           Y           Z
 ---------------------------------------------------------------------
      1          6           0       -5.190796   -0.258757   -0.336099
      2          6           0       -6.500360    0.469679   -0.032109
      3          6           0       -7.681289   -0.077705   -0.834339
      4          1           0       -4.974824   -0.178571   -1.410283
      5          1           0       -5.316347   -1.329087   -0.121563
      6          1           0       -6.371951    1.538531   -0.245841
      7          1           0       -6.713141    0.387913    1.041508
      8          1           0       -7.837860   -1.138654   -0.614172
      9          1           0       -7.494732    0.018502   -1.908835
     10          1           0       -8.607238    0.457344   -0.601526
     11          6           0       -4.000988    0.277124    0.458203
     12          6           0       -2.691424   -0.451311    0.154214
     13          6           0       -1.510495    0.096072    0.956444
     14          1           0       -3.875438    1.347454    0.243668
     15          1           0       -4.216960    0.196939    1.532388
     16          1           0       -2.478643   -0.369546   -0.919404
     17          1           0       -2.819833   -1.520164    0.367945
     18          1           0       -1.697053   -0.000135    2.030940
     19          1           0       -1.353924    1.157021    0.736276
     20          1           0       -0.584546   -0.438976    0.723631
     21          6           0        3.774321    2.507994   -0.125641
     22          6           0        4.757738    1.715314   -0.726532
     23          6           0        4.666159    0.320756   -0.689514
     24          6           0        3.572774   -0.250333   -0.040162
     25          6           0        2.576848    0.512385    0.567856
     26          6           0        2.688928    1.905062    0.518500
     27          1           0        3.853424    3.590589   -0.159191
     28          1           0        5.601776    2.180818   -1.227482
     29          1           0        5.413261   -0.316777   -1.146466
     30          1           0        1.747145    0.019474    1.059841
     31          1           0        1.923702    2.518166    0.986023
     32          7           0        3.464971   -1.725692    0.005559
     33          8           0        2.491840   -2.204445    0.583875
     34          8           0        4.355648   -2.375391   -0.537786
 ---------------------------------------------------------------------

 SCF Done:  E(RHF) =  -669.535709969     A.U. after   15 cycles
 E2 =    -0.2090973772D+01 EUMP2 =    -0.67162668374185D+03

 The electronic state is 1-A.
 Alpha  occ. eigenvalues --  -20.60767 -20.60761 -15.85814 -11.31148 -11.27727
 Alpha  occ. eigenvalues --  -11.27683 -11.27469 -11.26742 -11.26719 -11.21713
 Alpha  occ. eigenvalues --  -11.21656 -11.21499 -11.21414 -11.21411 -11.21098
 Alpha  occ. eigenvalues --   -1.59838  -1.39394  -1.19325  -1.08729  -1.08521
 Alpha  occ. eigenvalues --   -1.04723  -1.03646  -0.96124  -0.95565  -0.87155
 Alpha  occ. eigenvalues --   -0.86124  -0.82396  -0.79715  -0.78323  -0.77446
 Alpha  occ. eigenvalues --   -0.72035  -0.71159  -0.70445  -0.65147  -0.64978
 Alpha  occ. eigenvalues --   -0.64739  -0.62110  -0.61038  -0.59464  -0.57712
 Alpha  occ. eigenvalues --   -0.55413  -0.55237  -0.53100  -0.53009  -0.52632
 Alpha  occ. eigenvalues --   -0.52479  -0.50063  -0.48792  -0.48789  -0.48024
 Alpha  occ. eigenvalues --   -0.46727  -0.45872  -0.45785  -0.44804  -0.43895
 Alpha  occ. eigenvalues --   -0.37313  -0.36320
 Alpha virt. eigenvalues --    0.05064   0.11293   0.16573   0.20818   0.22837
 Alpha virt. eigenvalues --    0.24097   0.26083   0.26523   0.27215   0.27880
 Alpha virt. eigenvalues --    0.28901   0.29584   0.31469   0.31611   0.32040

 Mulliken charges:
               1
     1  C   -0.298578
     2  C   -0.299629
     3  C   -0.475795
     4  H    0.150026
     5  H    0.151318
     6  H    0.150981
     7  H    0.152047
     8  H    0.156040
     9  H    0.155296
    10  H    0.160147
    11  C   -0.298847
    12  C   -0.298281
    13  C   -0.485533
    14  H    0.147359
    15  H    0.149885
    16  H    0.153422
    17  H    0.157737
    18  H    0.157107
    19  H    0.147876
    20  H    0.167900
    21  C   -0.170721
    22  C   -0.218770
    23  C   -0.170592
    24  C    0.157729
    25  C   -0.175634
    26  C   -0.221225
    27  H    0.225397
    28  H    0.223244
    29  H    0.275403
    30  H    0.284664
    31  H    0.224309
    32  N    0.487893
    33  O   -0.462020
    34  O   -0.460153
 Sum of Mulliken charges =  -0.00000

 Dipole moment (field-independent basis, Debye):
    X=              0.3034    Y=              5.1300    Z=             -0.1772  Tot=              5.1420
 Quadrupole moment (field-independent basis, Debye-Ang):
   XX=            -89.2858   YY=            -97.6112   ZZ=            -93.8089
   XY=             18.4289   XZ=             -3.7912   YZ=             -0.6356

 Normal termination of Gaussian 16 at Wed May  5 23:21:34 2021.
