 Gaussian 16, Revision A.03,
 Gaussian 16:  EM64L-G16RevA.03 25-Dec-2016

 -------------
 #p 6-31g* mp2
 -------------

 ------------------------------------------------------
 Input file generated by CHIRIPA (05-May-2021 14:57:21)
 ------------------------------------------------------
 Symbolic Z-matrix:
 Charge =  0 Multiplicity = 1

                         Standard orientation:
 ---------------------------------------------------------------------
 Center     Atomic      Atomic             Coordinates (Angstroms)
 Number     Number       Type             X           Y           Z
 ---------------------------------------------------------------------
      1          6           0       -5.010095    1.893854   -0.014149
      2          6           0       -3.680969    1.880506    0.421473
      3          6           0       -2.958775    0.684090    0.461130
      4          6           0       -3.599759   -0.485704    0.056147
      5          6           0       -4.922719   -0.504849   -0.382827
      6          6           0       -5.625643    0.703233   -0.414203
      7          1           0       -5.563628    2.827790   -0.041739
      8          1           0       -3.200365    2.803637    0.732752
      9          1           0       -1.928680    0.645130    0.794002
     10          1           0       -5.374816   -1.441103   -0.686890
     11          1           0       -6.657742    0.710598   -0.752971
     12          7           0       -2.845404   -1.758471    0.093747
     13          8           0       -3.432901   -2.775526   -0.268307
     14          8           0       -1.680928   -1.714911    0.484560
     15          6           0        1.980673    2.098847   -0.108563
     16          6           0        1.589251    0.758004   -0.034728
     17          6           0        2.546579   -0.260319   -0.001681
     18          6           0        3.892631    0.099705   -0.044284
     19          6           0        4.314145    1.426425   -0.117970
     20          6           0        3.339475    2.428197   -0.149876
     21          1           0        1.230262    2.883476   -0.133792
     22          1           0        0.534706    0.499277   -0.002511
     23          1           0        2.271376   -1.306466    0.055373
     24          1           0        5.372927    1.653264   -0.148679
     25          1           0        3.646374    3.468663   -0.207228
     26          7           0        4.915292   -0.969587   -0.009903
     27          8           0        6.094785   -0.626173   -0.048623
     28          8           0        4.517995   -2.130864    0.055114
 ---------------------------------------------------------------------

 SCF Done:  E(RHF) =  -868.337945685     A.U. after   16 cycles
 E2 =    -0.2599740014D+01 EUMP2 =    -0.87093768569846D+03

 The electronic state is 1-A.
 Alpha  occ. eigenvalues --  -20.61665 -20.61607 -20.60386 -20.60364 -15.86678
 Alpha  occ. eigenvalues --  -15.85430 -11.32021 -11.30829 -11.28677 -11.28512
 Alpha  occ. eigenvalues --  -11.28266 -11.27624 -11.27518 -11.27456 -11.27310
 Alpha  occ. eigenvalues --  -11.27275 -11.26520 -11.26407  -1.60692  -1.59453
 Alpha  occ. eigenvalues --   -1.40255  -1.39003  -1.20176  -1.19025  -1.09563
 Alpha  occ. eigenvalues --   -1.08445  -1.05585  -1.04412  -0.96412  -0.95260
 Alpha  occ. eigenvalues --   -0.86983  -0.85838  -0.83253  -0.82069  -0.78326
 Alpha  occ. eigenvalues --   -0.77084  -0.72899  -0.72003  -0.71650  -0.71286
 Alpha  occ. eigenvalues --   -0.70777  -0.70184  -0.65833  -0.65603  -0.64682
 Alpha  occ. eigenvalues --   -0.64439  -0.62950  -0.61719  -0.56056  -0.55016
 Alpha  occ. eigenvalues --   -0.53895  -0.53690  -0.52772  -0.52489  -0.49661
 Alpha  occ. eigenvalues --   -0.49630  -0.48418  -0.48394  -0.45658  -0.44400
 Alpha  occ. eigenvalues --   -0.38125  -0.37181  -0.37070  -0.36011
 Alpha virt. eigenvalues --    0.04200   0.05423   0.10431   0.11597   0.15737
 Alpha virt. eigenvalues --    0.16873   0.19230   0.21975   0.25124   0.26901
 Alpha virt. eigenvalues --    0.28383   0.29066   0.29987   0.31001   0.32355

 Mulliken charges:
               1
     1  C   -0.170021
     2  C   -0.219150
     3  C   -0.175162
     4  C    0.158741
     5  C   -0.169518
     6  C   -0.217843
     7  H    0.228104
     8  H    0.222279
     9  H    0.273102
    10  H    0.278365
    11  H    0.226679
    12  N    0.489655
    13  O   -0.453325
    14  O   -0.469443
    15  C   -0.172287
    16  C   -0.228052
    17  C   -0.171960
    18  C    0.158448
    19  C   -0.171520
    20  C   -0.218543
    21  H    0.217392
    22  H    0.234200
    23  H    0.286364
    24  H    0.274573
    25  H    0.220859
    26  N    0.487738
    27  O   -0.462607
    28  O   -0.457069
 Sum of Mulliken charges =  -0.00000

 Dipole moment (field-independent basis, Debye):
    X=             -6.6213    Y=              8.0038    Z=             -0.3007  Tot=             10.3920
 Quadrupole moment (field-independent basis, Debye-Ang):
   XX=           -106.9647   YY=           -105.6249   ZZ=           -105.9262
   XY=              4.1147   XZ=              1.6506   YZ=              0.9596

 Normal termination of Gaussian 16 at Thu May  6 19:29:55 2021.
