 Gaussian 16, Revision A.03,
 Gaussian 16:  EM64L-G16RevA.03 25-Dec-2016

 -------------
 #p 6-31g* mp2
 -------------

 ------------------------------------------------------
 Input file generated by CHIRIPA (05-May-2021 14:57:27)
 ------------------------------------------------------
 Symbolic Z-matrix:
 Charge =  0 Multiplicity = 1

                         Standard orientation:
 ---------------------------------------------------------------------
 Center     Atomic      Atomic             Coordinates (Angstroms)
 Number     Number       Type             X           Y           Z
 ---------------------------------------------------------------------
      1          6           0       -1.082123   -1.911546    0.606654
      2          6           0       -2.268160   -1.813017    1.341589
      3          6           0       -3.289662   -0.952281    0.929017
      4          6           0       -3.090640   -0.201375   -0.228489
      5          6           0       -1.920388   -0.277434   -0.982157
      6          6           0       -0.912322   -1.144792   -0.550832
      7          1           0       -0.293815   -2.582759    0.934434
      8          1           0       -2.402791   -2.407284    2.240904
      9          1           0       -4.217934   -0.856495    1.479067
     10          1           0       -1.815267    0.327660   -1.874474
     11          1           0        0.007713   -1.219266   -1.123575
     12          7           0       -4.164946    0.713353   -0.675187
     13          8           0       -3.965053    1.364179   -1.698468
     14          8           0       -5.186539    0.762169    0.006430
     15          6           0        1.630269    2.108541    1.433173
     16          6           0        1.395349    0.751881    1.679763
     17          6           0        2.100557   -0.229933    0.977432
     18          6           0        3.037648    0.182331    0.031286
     19          6           0        3.294191    1.526025   -0.236968
     20          6           0        2.577270    2.490610    0.477280
     21          1           0        1.077897    2.864546    1.983390
     22          1           0        0.660489    0.452239    2.421546
     23          1           0        1.938532   -1.287254    1.148418
     24          1           0        4.033003    1.793928   -0.982490
     25          1           0        2.761792    3.543472    0.283687
     26          7           0        3.790420   -0.847952   -0.718548
     27          8           0        4.610706   -0.458747   -1.546973
     28          8           0        3.545903   -2.025182   -0.463646
 ---------------------------------------------------------------------

 SCF Done:  E(RHF) =  -868.336751220     A.U. after   16 cycles
 E2 =    -0.2602894022D+01 EUMP2 =    -0.87093964524204D+03

 The electronic state is 1-A.
 Alpha  occ. eigenvalues --  -20.61600 -20.61561 -20.61131 -20.61123 -15.86625
 Alpha  occ. eigenvalues --  -15.86180 -11.31897 -11.31592 -11.28496 -11.28366
 Alpha  occ. eigenvalues --  -11.28145 -11.28063 -11.28045 -11.27884 -11.27373
 Alpha  occ. eigenvalues --  -11.27343 -11.27227 -11.27083  -1.60659  -1.60204
 Alpha  occ. eigenvalues --   -1.40216  -1.39756  -1.20045  -1.19749  -1.09427
 Alpha  occ. eigenvalues --   -1.09162  -1.05434  -1.05123  -0.96300  -0.95977
 Alpha  occ. eigenvalues --   -0.86836  -0.86523  -0.83125  -0.82793  -0.78216
 Alpha  occ. eigenvalues --   -0.77827  -0.72836  -0.72397  -0.71996  -0.71531
 Alpha  occ. eigenvalues --   -0.71239  -0.70776  -0.65673  -0.65480  -0.65351
 Alpha  occ. eigenvalues --   -0.65089  -0.62790  -0.62455  -0.55906  -0.55641
 Alpha  occ. eigenvalues --   -0.54048  -0.53488  -0.53298  -0.53110  -0.49614
 Alpha  occ. eigenvalues --   -0.49574  -0.49158  -0.49150  -0.45634  -0.45150
 Alpha  occ. eigenvalues --   -0.38126  -0.37982  -0.37149  -0.36171
 Alpha virt. eigenvalues --    0.04239   0.04694   0.10360   0.11126   0.15823
 Alpha virt. eigenvalues --    0.16068   0.19693   0.21701   0.25336   0.26886
 Alpha virt. eigenvalues --    0.27290   0.29010   0.30181   0.30958   0.32019

 Mulliken charges:
               1
     1  C   -0.182602
     2  C   -0.221294
     3  C   -0.172937
     4  C    0.158357
     5  C   -0.172898
     6  C   -0.211987
     7  H    0.227721
     8  H    0.223971
     9  H    0.275923
    10  H    0.277167
    11  H    0.230677
    12  N    0.487720
    13  O   -0.459232
    14  O   -0.460154
    15  C   -0.171276
    16  C   -0.211243
    17  C   -0.177201
    18  C    0.156041
    19  C   -0.171850
    20  C   -0.217858
    21  H    0.229907
    22  H    0.225187
    23  H    0.267402
    24  H    0.277387
    25  H    0.227134
    26  N    0.487424
    27  O   -0.455732
    28  O   -0.465753
 Sum of Mulliken charges =  -0.00000

 Dipole moment (field-independent basis, Debye):
    X=              1.1569    Y=              0.6359    Z=              4.1542  Tot=              4.3589
 Quadrupole moment (field-independent basis, Debye-Ang):
   XX=           -142.6399   YY=            -99.9286   ZZ=           -101.8378
   XY=             23.1734   XZ=             -1.6744   YZ=             -2.0258

 Normal termination of Gaussian 16 at Thu May  6 08:25:51 2021.
