 Gaussian 16, Revision A.03,
 Gaussian 16:  EM64L-G16RevA.03 25-Dec-2016

 -------------
 #p 6-31g* mp2
 -------------

 ------------------------------------------------------
 Input file generated by CHIRIPA (05-May-2021 14:55:24)
 ------------------------------------------------------
 Symbolic Z-matrix:
 Charge =  0 Multiplicity = 1

                         Standard orientation:
 ---------------------------------------------------------------------
 Center     Atomic      Atomic             Coordinates (Angstroms)
 Number     Number       Type             X           Y           Z
 ---------------------------------------------------------------------
      1          6           0        1.126249   -1.792011    1.573513
      2          6           0        0.553575   -0.621264    1.065657
      3          6           0        1.297622    0.237762    0.251399
      4          6           0        2.617539   -0.106375   -0.036137
      5          6           0        3.216334   -1.265612    0.454682
      6          6           0        2.453461   -2.109888    1.266945
      7          1           0        0.540943   -2.453594    2.205273
      8          1           0       -0.476932   -0.371860    1.302086
      9          1           0        0.879182    1.150474   -0.155151
     10          1           0        4.245949   -1.487500    0.201550
     11          1           0        2.900817   -3.018439    1.659950
     12          7           0        3.415193    0.795230   -0.897100
     13          8           0        4.576054    0.469476   -1.135688
     14          8           0        2.864431    1.810590   -1.317031
     15          6           0       -2.926615    1.040115   -0.228525
     16          6           0       -2.820334    1.821907    1.081242
     17          6           0       -2.307659    3.248040    0.878513
     18          1           0       -1.940587    1.011540   -0.712135
     19          1           0       -3.595889    1.577256   -0.914781
     20          1           0       -2.152551    1.282740    1.765333
     21          1           0       -3.806688    1.848459    1.561884
     22          1           0       -2.976566    3.807415    0.216497
     23          1           0       -1.313030    3.238482    0.421102
     24          1           0       -2.239432    3.788846    1.827583
     25          6           0       -3.437740   -0.387390   -0.042219
     26          6           0       -3.544020   -1.169182   -1.351987
     27          6           0       -4.056696   -2.595316   -1.149258
     28          1           0       -2.768466   -0.924532    0.644036
     29          1           0       -4.423767   -0.358816    0.441390
     30          1           0       -2.557667   -1.195735   -1.832629
     31          1           0       -4.211804   -0.630016   -2.036079
     32          1           0       -5.051324   -2.585757   -0.691848
     33          1           0       -3.387789   -3.154690   -0.487242
     34          1           0       -4.124923   -3.136122   -2.098328
 ---------------------------------------------------------------------

 SCF Done:  E(RHF) =  -669.534919973     A.U. after   15 cycles
 E2 =    -0.2093157599D+01 EUMP2 =    -0.67162807757190D+03

 The electronic state is 1-A.
 Alpha  occ. eigenvalues --  -20.60770 -20.60765 -15.85823 -11.31192 -11.27762
 Alpha  occ. eigenvalues --  -11.27758 -11.27496 -11.26777 -11.26720 -11.22517
 Alpha  occ. eigenvalues --  -11.22301 -11.22235 -11.22203 -11.21712 -11.21648
 Alpha  occ. eigenvalues --   -1.59845  -1.39399  -1.19363  -1.09275  -1.08754
 Alpha  occ. eigenvalues --   -1.04769  -1.04259  -0.96697  -0.95592  -0.87706
 Alpha  occ. eigenvalues --   -0.86170  -0.82428  -0.80326  -0.79084  -0.77483
 Alpha  occ. eigenvalues --   -0.72041  -0.71168  -0.70479  -0.66136  -0.65011
 Alpha  occ. eigenvalues --   -0.64657  -0.62168  -0.61554  -0.60057  -0.58302
 Alpha  occ. eigenvalues --   -0.56009  -0.55259  -0.53366  -0.53134  -0.53058
 Alpha  occ. eigenvalues --   -0.52855  -0.50651  -0.48807  -0.48798  -0.48625
 Alpha  occ. eigenvalues --   -0.47385  -0.46572  -0.46532  -0.44803  -0.44537
 Alpha  occ. eigenvalues --   -0.37342  -0.36360
 Alpha virt. eigenvalues --    0.05043   0.11225   0.16464   0.18220   0.22797
 Alpha virt. eigenvalues --    0.23277   0.24770   0.25315   0.27174   0.28720
 Alpha virt. eigenvalues --    0.29271   0.30482   0.31219   0.31473   0.32049

 Mulliken charges:
               1
     1  C   -0.173281
     2  C   -0.227278
     3  C   -0.177974
     4  C    0.159312
     5  C   -0.170737
     6  C   -0.218456
     7  H    0.225886
     8  H    0.238085
     9  H    0.277758
    10  H    0.275644
    11  H    0.223472
    12  N    0.488061
    13  O   -0.460418
    14  O   -0.460500
    15  C   -0.304615
    16  C   -0.304703
    17  C   -0.476690
    18  H    0.148640
    19  H    0.157217
    20  H    0.143520
    21  H    0.156921
    22  H    0.160065
    23  H    0.156171
    24  H    0.163829
    25  C   -0.299133
    26  C   -0.300607
    27  C   -0.475760
    28  H    0.139386
    29  H    0.153402
    30  H    0.155214
    31  H    0.155435
    32  H    0.156121
    33  H    0.152466
    34  H    0.163548
 Sum of Mulliken charges =  -0.00000

 Dipole moment (field-independent basis, Debye):
    X=             -2.9947    Y=             -3.0942    Z=              2.9358  Tot=              5.2116
 Quadrupole moment (field-independent basis, Debye-Ang):
   XX=           -105.0390   YY=            -93.1226   ZZ=            -95.6493
   XY=            -11.9059   XZ=              8.8868   YZ=             -0.5300

 Normal termination of Gaussian 16 at Thu May  6 09:31:23 2021.
