 Gaussian 16, Revision A.03,
 Gaussian 16:  EM64L-G16RevA.03 25-Dec-2016

 -------------
 #p 6-31g* mp2
 -------------

 ------------------------------------------------------
 Input file generated by CHIRIPA (05-May-2021 14:51:14)
 ------------------------------------------------------
 Symbolic Z-matrix:
 Charge =  0 Multiplicity = 1

                         Standard orientation:
 ---------------------------------------------------------------------
 Center     Atomic      Atomic             Coordinates (Angstroms)
 Number     Number       Type             X           Y           Z
 ---------------------------------------------------------------------
      1          6           0       -4.353374   -0.181106   -0.396222
      2          6           0       -5.752345   -0.201308    0.220590
      3          6           0       -6.851932    0.100564   -0.798025
      4          1           0       -4.174105    0.802924   -0.850636
      5          1           0       -4.309616   -0.915107   -1.212753
      6          1           0       -5.793037    0.531532    1.036620
      7          1           0       -5.928232   -1.185341    0.673756
      8          1           0       -6.840142   -0.636522   -1.607448
      9          1           0       -6.704180    1.090105   -1.242522
     10          1           0       -7.843788    0.080965   -0.335749
     11          6           0       -3.243419   -0.481097    0.609628
     12          6           0       -1.844447   -0.460894   -0.007184
     13          6           0       -0.744860   -0.762767    1.011431
     14          1           0       -3.287177    0.252904    1.426159
     15          1           0       -3.422688   -1.465127    1.064042
     16          1           0       -1.668561    0.523138   -0.460350
     17          1           0       -1.803756   -1.193734   -0.823214
     18          1           0       -0.892613   -1.752308    1.455928
     19          1           0       -0.756650   -0.025680    1.820854
     20          1           0        0.246995   -0.743167    0.549155
     21          6           0        4.285631   -0.152795   -0.441184
     22          6           0        4.304522   -1.538105    0.205767
     23          6           0        5.284110   -2.494913   -0.474469
     24          1           0        4.023289   -0.254601   -1.503143
     25          1           0        5.297990    0.273200   -0.408756
     26          1           0        3.292144   -1.960785    0.173370
     27          1           0        4.566663   -1.432972    1.266355
     28          1           0        6.303660   -2.098540   -0.429681
     29          1           0        5.021899   -2.629351   -1.528876
     30          1           0        5.281484   -3.479275    0.003950
     31          6           0        3.311161    0.814998    0.227778
     32          6           0        3.292271    2.200307   -0.419174
     33          6           0        2.312684    3.157115    0.261063
     34          1           0        2.298802    0.389003    0.195350
     35          1           0        3.573505    0.916804    1.289737
     36          1           0        3.030131    2.095174   -1.479760
     37          1           0        4.304649    2.622987   -0.386775
     38          1           0        2.574893    3.291554    1.315470
     39          1           0        1.293132    2.760742    0.216275
     40          1           0        2.315309    4.141476   -0.217356
 ---------------------------------------------------------------------

 SCF Done:  E(RHF) =  -470.733322500     A.U. after   11 cycles
 E2 =    -0.1582689079D+01 EUMP2 =    -0.47231601157885D+03

 The electronic state is 1-A.
 Alpha  occ. eigenvalues --  -11.21648 -11.21615 -11.21591 -11.21589 -11.21428
 Alpha  occ. eigenvalues --  -11.21382 -11.21368 -11.21318 -11.21099 -11.21081
 Alpha  occ. eigenvalues --  -11.21064 -11.21061  -1.08457  -1.08416  -1.03559
 Alpha  occ. eigenvalues --   -1.03515  -0.96013  -0.95961  -0.87033  -0.86974
 Alpha  occ. eigenvalues --   -0.79628  -0.79572  -0.78270  -0.78227  -0.65095
 Alpha  occ. eigenvalues --   -0.65054  -0.60973  -0.60896  -0.59407  -0.59319
 Alpha  occ. eigenvalues --   -0.57670  -0.57534  -0.55288  -0.55260  -0.52771
 Alpha  occ. eigenvalues --   -0.52647  -0.52460  -0.52335  -0.49948  -0.49901
 Alpha  occ. eigenvalues --   -0.47959  -0.47886  -0.46655  -0.46608  -0.45813
 Alpha  occ. eigenvalues --   -0.45765  -0.45732  -0.45688  -0.43789  -0.43730
 Alpha virt. eigenvalues --    0.20860   0.23036   0.23837   0.24456   0.25883
 Alpha virt. eigenvalues --    0.26533   0.27091   0.27443   0.27833   0.29036
 Alpha virt. eigenvalues --    0.30840   0.31541   0.31715   0.31915   0.32117

 Mulliken charges:
               1
     1  C   -0.298287
     2  C   -0.299685
     3  C   -0.475725
     4  H    0.149718
     5  H    0.149499
     6  H    0.152036
     7  H    0.151971
     8  H    0.155172
     9  H    0.155227
    10  H    0.160321
    11  C   -0.298515
    12  C   -0.299463
    13  C   -0.482989
    14  H    0.149795
    15  H    0.149823
    16  H    0.151586
    17  H    0.151792
    18  H    0.155605
    19  H    0.156054
    20  H    0.166148
    21  C   -0.297768
    22  C   -0.300435
    23  C   -0.475688
    24  H    0.149302
    25  H    0.149553
    26  H    0.152205
    27  H    0.152205
    28  H    0.155227
    29  H    0.155095
    30  H    0.160287
    31  C   -0.307113
    32  C   -0.298997
    33  C   -0.476014
    34  H    0.158029
    35  H    0.149776
    36  H    0.151683
    37  H    0.151910
    38  H    0.155226
    39  H    0.155369
    40  H    0.160064
 Sum of Mulliken charges =  -0.00000

 Dipole moment (field-independent basis, Debye):
    X=             -0.0124    Y=             -0.0058    Z=              0.0144  Tot=              0.0199
 Quadrupole moment (field-independent basis, Debye-Ang):
   XX=            -85.4942   YY=            -84.3959   ZZ=            -84.8609
   XY=              1.0228   XZ=              0.2122   YZ=              0.2299

 Normal termination of Gaussian 16 at Wed May  5 15:22:06 2021.
