 Gaussian 16, Revision A.03,
 Gaussian 16:  EM64L-G16RevA.03 25-Dec-2016

 -------------
 #p 6-31g* mp2
 -------------

 ------------------------------------------------------
 Input file generated by CHIRIPA (05-May-2021 14:57:24)
 ------------------------------------------------------
 Symbolic Z-matrix:
 Charge =  0 Multiplicity = 1

                         Standard orientation:
 ---------------------------------------------------------------------
 Center     Atomic      Atomic             Coordinates (Angstroms)
 Number     Number       Type             X           Y           Z
 ---------------------------------------------------------------------
      1          6           0        2.086798    2.493340    0.152539
      2          6           0        3.364833    2.072272    0.534441
      3          6           0        3.780123    0.758645    0.296814
      4          6           0        2.887672   -0.111329   -0.327659
      5          6           0        1.607953    0.278201   -0.719929
      6          6           0        1.213976    1.596542   -0.472326
      7          1           0        1.772469    3.515628    0.341008
      8          1           0        4.044790    2.766561    1.019894
      9          1           0        4.763905    0.406205    0.582083
     10          1           0        0.952394   -0.436831   -1.201997
     11          1           0        0.220847    1.920775   -0.770005
     12          7           0        3.316039   -1.504502   -0.584504
     13          8           0        2.510998   -2.251591   -1.136232
     14          8           0        4.448724   -1.823002   -0.229228
     15          6           0       -1.609900   -0.672017    2.430564
     16          6           0       -1.525634    0.616317    1.892402
     17          6           0       -2.190357    0.934376    0.704323
     18          6           0       -2.933776   -0.064750    0.077934
     19          6           0       -3.037028   -1.357523    0.589173
     20          6           0       -2.363999   -1.653095    1.778382
     21          1           0       -1.090301   -0.910358    3.353930
     22          1           0       -0.940723    1.380238    2.396731
     23          1           0       -2.142146    1.923665    0.265686
     24          1           0       -3.627803   -2.097935    0.063632
     25          1           0       -2.431225   -2.654480    2.194018
     26          7           0       -3.641886    0.260063   -1.180430
     27          8           0       -4.290333   -0.637985   -1.713030
     28          8           0       -3.535044    1.406547   -1.610308
 ---------------------------------------------------------------------

 SCF Done:  E(RHF) =  -868.337084312     A.U. after   16 cycles
 E2 =    -0.2601764974D+01 EUMP2 =    -0.87093884928524D+03

 The electronic state is 1-A.
 Alpha  occ. eigenvalues --  -20.61331 -20.61291 -20.61035 -20.61029 -15.86364
 Alpha  occ. eigenvalues --  -15.86088 -11.31744 -11.31485 -11.28357 -11.28186
 Alpha  occ. eigenvalues --  -11.28056 -11.28012 -11.27915 -11.27826 -11.27306
 Alpha  occ. eigenvalues --  -11.27192 -11.27103 -11.27046  -1.60389  -1.60111
 Alpha  occ. eigenvalues --   -1.39944  -1.39662  -1.19886  -1.19662  -1.09253
 Alpha  occ. eigenvalues --   -1.09068  -1.05310  -1.05031  -0.96101  -0.95889
 Alpha  occ. eigenvalues --   -0.86674  -0.86464  -0.82939  -0.82702  -0.78026
 Alpha  occ. eigenvalues --   -0.77727  -0.72573  -0.72304  -0.71722  -0.71438
 Alpha  occ. eigenvalues --   -0.70967  -0.70777  -0.65530  -0.65326  -0.65303
 Alpha  occ. eigenvalues --   -0.65021  -0.62714  -0.62307  -0.55731  -0.55586
 Alpha  occ. eigenvalues --   -0.53806  -0.53445  -0.53209  -0.53038  -0.49347
 Alpha  occ. eigenvalues --   -0.49322  -0.49067  -0.49055  -0.45344  -0.45059
 Alpha  occ. eigenvalues --   -0.37846  -0.37749  -0.37241  -0.36160
 Alpha virt. eigenvalues --    0.04444   0.04825   0.10670   0.10940   0.15882
 Alpha virt. eigenvalues --    0.16447   0.20010   0.21728   0.25488   0.27265
 Alpha virt. eigenvalues --    0.27922   0.28691   0.29818   0.31215   0.31833

 Mulliken charges:
               1
     1  C   -0.176429
     2  C   -0.218850
     3  C   -0.172121
     4  C    0.157269
     5  C   -0.169351
     6  C   -0.219980
     7  H    0.224742
     8  H    0.223651
     9  H    0.275834
    10  H    0.278535
    11  H    0.226937
    12  N    0.487738
    13  O   -0.459060
    14  O   -0.460562
    15  C   -0.171137
    16  C   -0.211322
    17  C   -0.181571
    18  C    0.157382
    19  C   -0.170629
    20  C   -0.215888
    21  H    0.228851
    22  H    0.222598
    23  H    0.268641
    24  H    0.278618
    25  H    0.228176
    26  N    0.488158
    27  O   -0.455480
    28  O   -0.464749
 Sum of Mulliken charges =  -0.00000

 Dipole moment (field-independent basis, Debye):
    X=              0.9037    Y=              3.4977    Z=              5.4113  Tot=              6.5064
 Quadrupole moment (field-independent basis, Debye-Ang):
   XX=           -124.3554   YY=           -101.8812   ZZ=           -104.8793
   XY=             21.0081   XZ=             -7.7135   YZ=             -1.5589

 Normal termination of Gaussian 16 at Fri May  7 12:36:14 2021.
