 Gaussian 16, Revision A.03,
 Gaussian 16:  EM64L-G16RevA.03 25-Dec-2016

 -------------
 #p 6-31g* mp2
 -------------

 ------------------------------------------------------
 Input file generated by CHIRIPA (05-May-2021 14:55:24)
 ------------------------------------------------------
 Symbolic Z-matrix:
 Charge =  0 Multiplicity = 1

                         Standard orientation:
 ---------------------------------------------------------------------
 Center     Atomic      Atomic             Coordinates (Angstroms)
 Number     Number       Type             X           Y           Z
 ---------------------------------------------------------------------
      1          6           0        5.589503   -0.056476    0.125032
      2          6           0        4.925649   -1.135489    0.717950
      3          6           0        3.535686   -1.252472    0.623793
      4          6           0        2.837777   -0.267903   -0.073944
      5          6           0        3.470482    0.818902   -0.675464
      6          6           0        4.861085    0.915562   -0.568560
      7          1           0        6.669508    0.026505    0.203127
      8          1           0        5.488774   -1.891876    1.257221
      9          1           0        2.996420   -2.077432    1.073296
     10          1           0        2.882007    1.557213   -1.206513
     11          1           0        5.373987    1.754625   -1.030024
     12          7           0        1.365946   -0.380991   -0.180371
     13          8           0        0.773987    0.499666   -0.800586
     14          8           0        0.832154   -1.348143    0.358441
     15          6           0       -3.970720   -0.371530   -0.252983
     16          6           0       -5.170619   -1.205653    0.196980
     17          6           0       -5.212551   -2.584593   -0.462233
     18          1           0       -4.000982   -0.256633   -1.345150
     19          1           0       -3.045813   -0.917826   -0.021669
     20          1           0       -6.092939   -0.657334   -0.033858
     21          1           0       -5.137600   -1.318416    1.288222
     22          1           0       -4.309017   -3.154167   -0.221792
     23          1           0       -5.269785   -2.489329   -1.551385
     24          1           0       -6.078229   -3.163966   -0.126397
     25          6           0       -3.914982    1.009649    0.397375
     26          6           0       -2.715083    1.843772   -0.052587
     27          6           0       -2.673150    3.222712    0.606625
     28          1           0       -4.839888    1.555945    0.166061
     29          1           0       -3.884719    0.894751    1.489541
     30          1           0       -2.748102    1.956536   -1.143830
     31          1           0       -1.792762    1.295453    0.178251
     32          1           0       -2.615917    3.127449    1.695776
     33          1           0       -3.576684    3.792287    0.366185
     34          1           0       -1.807472    3.802085    0.270789
 ---------------------------------------------------------------------

 SCF Done:  E(RHF) =  -669.536416548     A.U. after   15 cycles
 E2 =    -0.2091166104D+01 EUMP2 =    -0.67162758265165D+03

 The electronic state is 1-A.
 Alpha  occ. eigenvalues --  -20.61051 -20.61035 -15.86059 -11.31352 -11.27909
 Alpha  occ. eigenvalues --  -11.27905 -11.27641 -11.26908 -11.26898 -11.20508
 Alpha  occ. eigenvalues --  -11.20102 -11.20040 -11.19950 -11.19899 -11.19840
 Alpha  occ. eigenvalues --   -1.60097  -1.39653  -1.19515  -1.08926  -1.07081
 Alpha  occ. eigenvalues --   -1.04906  -1.02259  -0.95772  -0.94762  -0.86308
 Alpha  occ. eigenvalues --   -0.85785  -0.82607  -0.78303  -0.77664  -0.76842
 Alpha  occ. eigenvalues --   -0.72272  -0.71406  -0.70623  -0.65170  -0.64909
 Alpha  occ. eigenvalues --   -0.63715  -0.62253  -0.59664  -0.58128  -0.56349
 Alpha  occ. eigenvalues --   -0.55412  -0.54068  -0.53240  -0.52997  -0.51495
 Alpha  occ. eigenvalues --   -0.51182  -0.49116  -0.49040  -0.48691  -0.46610
 Alpha  occ. eigenvalues --   -0.45357  -0.45037  -0.44428  -0.44182  -0.42501
 Alpha  occ. eigenvalues --   -0.37492  -0.36505
 Alpha virt. eigenvalues --    0.04845   0.11151   0.16347   0.21290   0.24166
 Alpha virt. eigenvalues --    0.25489   0.27211   0.27979   0.28179   0.28937
 Alpha virt. eigenvalues --    0.29219   0.30869   0.32377   0.32591   0.33012

 Mulliken charges:
               1
     1  C   -0.170447
     2  C   -0.218593
     3  C   -0.170654
     4  C    0.158037
     5  C   -0.170686
     6  C   -0.218561
     7  H    0.226219
     8  H    0.224000
     9  H    0.275855
    10  H    0.276055
    11  H    0.224069
    12  N    0.488471
    13  O   -0.458231
    14  O   -0.460119
    15  C   -0.300766
    16  C   -0.298506
    17  C   -0.475226
    18  H    0.147316
    19  H    0.164029
    20  H    0.147799
    21  H    0.149649
    22  H    0.157548
    23  H    0.153484
    24  H    0.155695
    25  C   -0.297437
    26  C   -0.306525
    27  C   -0.474924
    28  H    0.142702
    29  H    0.145608
    30  H    0.148926
    31  H    0.178375
    32  H    0.150599
    33  H    0.149278
    34  H    0.156964
 Sum of Mulliken charges =  -0.00000

 Dipole moment (field-independent basis, Debye):
    X=              5.6348    Y=              0.2682    Z=              0.3256  Tot=              5.6505
 Quadrupole moment (field-independent basis, Debye-Ang):
   XX=            -67.2773   YY=            -93.3110   ZZ=            -93.7447
   XY=             -0.4064   XZ=              1.2998   YZ=             -3.6965

 Normal termination of Gaussian 16 at Thu May  6 03:10:40 2021.
