 Gaussian 16, Revision A.03,
 Gaussian 16:  EM64L-G16RevA.03 25-Dec-2016

 -------------
 #p 6-31g* mp2
 -------------

 ------------------------------------------------------
 Input file generated by CHIRIPA (05-May-2021 14:53:17)
 ------------------------------------------------------
 Symbolic Z-matrix:
 Charge =  0 Multiplicity = 1

                         Standard orientation:
 ---------------------------------------------------------------------
 Center     Atomic      Atomic             Coordinates (Angstroms)
 Number     Number       Type             X           Y           Z
 ---------------------------------------------------------------------
      1          6           0       -4.064793   -0.611188   -0.188866
      2          6           0       -2.884897   -0.656235    0.782629
      3          6           0       -1.623705   -1.249341    0.153810
      4          1           0       -4.275471   -1.628097   -0.547273
      5          1           0       -3.781705   -0.021076   -1.071490
      6          1           0       -3.170598   -1.244927    1.663783
      7          1           0       -2.677126    0.360874    1.138912
      8          1           0       -1.311454   -0.658836   -0.713602
      9          1           0       -1.807730   -2.273761   -0.185750
     10          1           0       -0.792714   -1.272019    0.865709
     11          6           0       -5.332910   -0.020787    0.425164
     12          6           0       -6.512806    0.024261   -0.546331
     13          6           0       -7.773998    0.617367    0.082487
     14          1           0       -5.615998   -0.610898    1.307787
     15          1           0       -5.122232    0.996122    0.783571
     16          1           0       -6.720577   -0.992848   -0.902615
     17          1           0       -6.227105    0.612953   -1.427485
     18          1           0       -7.589973    1.641786    0.422047
     19          1           0       -8.086249    0.026862    0.949900
     20          1           0       -8.604989    0.640045   -0.629412
     21          6           0        5.752228   -1.149636    0.197708
     22          6           0        4.572819   -1.739511   -0.268728
     23          6           0        3.413664   -0.975416   -0.433244
     24          6           0        3.469770    0.381873   -0.120341
     25          6           0        4.629573    0.998591    0.346357
     26          6           0        5.776797    0.215127    0.503224
     27          1           0        6.648053   -1.750727    0.322538
     28          1           0        4.550813   -2.799177   -0.506781
     29          1           0        2.487130   -1.406480   -0.792600
     30          1           0        4.620687    2.057315    0.575367
     31          1           0        6.691329    0.675916    0.865647
     32          7           0        2.248940    1.201040   -0.290458
     33          8           0        2.324392    2.394791   -0.007787
     34          8           0        1.239718    0.633841   -0.703245
 ---------------------------------------------------------------------

 SCF Done:  E(RHF) =  -669.535773952     A.U. after   15 cycles
 E2 =    -0.2090882317D+01 EUMP2 =    -0.67162665626884D+03

 The electronic state is 1-A.
 Alpha  occ. eigenvalues --  -20.60859 -20.60848 -15.85895 -11.31235 -11.27804
 Alpha  occ. eigenvalues --  -11.27793 -11.27546 -11.26817 -11.26805 -11.21051
 Alpha  occ. eigenvalues --  -11.20724 -11.20642 -11.20604 -11.20561 -11.19850
 Alpha  occ. eigenvalues --   -1.59924  -1.39479  -1.19408  -1.08810  -1.07683
 Alpha  occ. eigenvalues --   -1.04806  -1.02741  -0.95654  -0.95179  -0.86214
 Alpha  occ. eigenvalues --   -0.86196  -0.82482  -0.78832  -0.77552  -0.77461
 Alpha  occ. eigenvalues --   -0.72128  -0.71241  -0.70516  -0.65065  -0.64810
 Alpha  occ. eigenvalues --   -0.64308  -0.62152  -0.60120  -0.58588  -0.56800
 Alpha  occ. eigenvalues --   -0.55312  -0.54449  -0.53139  -0.52898  -0.51884
 Alpha  occ. eigenvalues --   -0.51616  -0.49167  -0.48878  -0.48815  -0.47138
 Alpha  occ. eigenvalues --   -0.45859  -0.45030  -0.44970  -0.44829  -0.42999
 Alpha  occ. eigenvalues --   -0.37390  -0.36409
 Alpha virt. eigenvalues --    0.04991   0.11241   0.16478   0.21318   0.23601
 Alpha virt. eigenvalues --    0.25086   0.27123   0.27384   0.27853   0.28226
 Alpha virt. eigenvalues --    0.29069   0.30831   0.31914   0.32274   0.32579

 Mulliken charges:
               1
     1  C   -0.298361
     2  C   -0.299742
     3  C   -0.475815
     4  H    0.146066
     5  H    0.152329
     6  H    0.145816
     7  H    0.156404
     8  H    0.175289
     9  H    0.143374
    10  H    0.156285
    11  C   -0.297940
    12  C   -0.299219
    13  C   -0.475357
    14  H    0.147303
    15  H    0.150662
    16  H    0.150272
    17  H    0.152415
    18  H    0.155333
    19  H    0.153954
    20  H    0.158637
    21  C   -0.170690
    22  C   -0.218615
    23  C   -0.171374
    24  C    0.157683
    25  C   -0.170831
    26  C   -0.218615
    27  H    0.225768
    28  H    0.223794
    29  H    0.277036
    30  H    0.275652
    31  H    0.223575
    32  N    0.492624
    33  O   -0.460135
    34  O   -0.463578
 Sum of Mulliken charges =  -0.00000

 Dipole moment (field-independent basis, Debye):
    X=              4.5275    Y=             -2.7664    Z=              0.5309  Tot=              5.3323
 Quadrupole moment (field-independent basis, Debye-Ang):
   XX=            -65.9621   YY=            -93.5156   ZZ=            -95.3084
   XY=             -5.9571   XZ=              2.9204   YZ=              1.7506

 Normal termination of Gaussian 16 at Thu May  6 12:17:44 2021.
