 Gaussian 16, Revision A.03,
 Gaussian 16:  EM64L-G16RevA.03 25-Dec-2016

 -------------
 #p 6-31g* mp2
 -------------

 ------------------------------------------------------
 Input file generated by CHIRIPA (05-May-2021 14:55:25)
 ------------------------------------------------------
 Symbolic Z-matrix:
 Charge =  0 Multiplicity = 1

                         Standard orientation:
 ---------------------------------------------------------------------
 Center     Atomic      Atomic             Coordinates (Angstroms)
 Number     Number       Type             X           Y           Z
 ---------------------------------------------------------------------
      1          6           0        4.189871    1.334568   -0.790545
      2          6           0        4.311179   -0.058695   -0.815501
      3          6           0        3.314378   -0.868197   -0.262650
      4          6           0        2.204718   -0.248170    0.309636
      5          6           0        2.054992    1.137200    0.349923
      6          6           0        3.064149    1.927024   -0.208938
      7          1           0        4.969009    1.955765   -1.222348
      8          1           0        5.184326   -0.521556   -1.266520
      9          1           0        3.382821   -1.949261   -0.268362
     10          1           0        1.172973    1.569611    0.806522
     11          1           0        2.967270    3.008795   -0.188131
     12          7           0        1.142909   -1.094737    0.898096
     13          8           0        0.175109   -0.524016    1.396371
     14          8           0        1.298569   -2.312967    0.849914
     15          6           0       -2.923337   -0.457151   -0.733607
     16          6           0       -3.023955   -1.806216   -0.020946
     17          6           0       -2.776025   -2.989319   -0.957210
     18          1           0       -3.647362   -0.431021   -1.559469
     19          1           0       -1.927281   -0.363813   -1.188090
     20          1           0       -4.019046   -1.896396    0.433232
     21          1           0       -2.299739   -1.829064    0.803436
     22          1           0       -1.777027   -2.926852   -1.400722
     23          1           0       -3.506103   -2.994567   -1.773029
     24          1           0       -2.852792   -3.943754   -0.427095
     25          6           0       -3.168739    0.735283    0.189220
     26          6           0       -3.068121    2.084348   -0.523441
     27          6           0       -3.316053    3.267451    0.412824
     28          1           0       -4.164796    0.641943    0.643703
     29          1           0       -2.444714    0.709152    1.015082
     30          1           0       -3.792337    2.107195   -1.347822
     31          1           0       -2.073031    2.174527   -0.977618
     32          1           0       -2.585973    3.272697    1.228642
     33          1           0       -4.315049    3.204982    0.856335
     34          1           0       -3.239285    4.221884   -0.117292
 ---------------------------------------------------------------------

 SCF Done:  E(RHF) =  -669.536713104     A.U. after   15 cycles
 E2 =    -0.2092682963D+01 EUMP2 =    -0.67162939606661D+03

 The electronic state is 1-A.
 Alpha  occ. eigenvalues --  -20.61164 -20.61153 -15.86162 -11.31408 -11.27959
 Alpha  occ. eigenvalues --  -11.27953 -11.27679 -11.26945 -11.26936 -11.21012
 Alpha  occ. eigenvalues --  -11.20685 -11.20299 -11.20236 -11.20024 -11.19812
 Alpha  occ. eigenvalues --   -1.60200  -1.39760  -1.19565  -1.08985  -1.07377
 Alpha  occ. eigenvalues --   -1.04948  -1.02544  -0.95839  -0.95024  -0.86353
 Alpha  occ. eigenvalues --   -0.86059  -0.82679  -0.78637  -0.77743  -0.77127
 Alpha  occ. eigenvalues --   -0.72393  -0.71512  -0.70673  -0.65229  -0.64950
 Alpha  occ. eigenvalues --   -0.63970  -0.62296  -0.59935  -0.58448  -0.56615
 Alpha  occ. eigenvalues --   -0.55455  -0.54313  -0.53283  -0.53038  -0.51776
 Alpha  occ. eigenvalues --   -0.51460  -0.49261  -0.49139  -0.48927  -0.46948
 Alpha  occ. eigenvalues --   -0.45625  -0.45248  -0.44697  -0.44382  -0.42770
 Alpha  occ. eigenvalues --   -0.37537  -0.36544
 Alpha virt. eigenvalues --    0.04751   0.11101   0.16237   0.20914   0.23391
 Alpha virt. eigenvalues --    0.25145   0.26870   0.27429   0.28320   0.28684
 Alpha virt. eigenvalues --    0.29181   0.31114   0.31871   0.32397   0.32897

 Mulliken charges:
               1
     1  C   -0.170286
     2  C   -0.218546
     3  C   -0.170572
     4  C    0.157740
     5  C   -0.170824
     6  C   -0.218489
     7  H    0.226538
     8  H    0.224299
     9  H    0.276154
    10  H    0.275898
    11  H    0.224560
    12  N    0.491887
    13  O   -0.463132
    14  O   -0.457506
    15  C   -0.291560
    16  C   -0.310425
    17  C   -0.473109
    18  H    0.142440
    19  H    0.143255
    20  H    0.144421
    21  H    0.181146
    22  H    0.154364
    23  H    0.147233
    24  H    0.159553
    25  C   -0.305113
    26  C   -0.297995
    27  C   -0.474844
    28  H    0.145586
    29  H    0.168791
    30  H    0.149758
    31  H    0.144586
    32  H    0.152566
    33  H    0.156117
    34  H    0.155511
 Sum of Mulliken charges =  -0.00000

 Dipole moment (field-independent basis, Debye):
    X=              4.0966    Y=              2.8662    Z=             -1.8481  Tot=              5.3304
 Quadrupole moment (field-independent basis, Debye-Ang):
   XX=            -77.1371   YY=            -94.4977   ZZ=            -96.9784
   XY=              3.6441   XZ=             -4.6928   YZ=              1.8395

 Normal termination of Gaussian 16 at Thu May  6 09:34:01 2021.
