 Gaussian 16, Revision A.03,
 Gaussian 16:  EM64L-G16RevA.03 25-Dec-2016

 -------------
 #p 6-31g* mp2
 -------------

 ------------------------------------------------------
 Input file generated by CHIRIPA (05-May-2021 14:57:26)
 ------------------------------------------------------
 Symbolic Z-matrix:
 Charge =  0 Multiplicity = 1

                         Standard orientation:
 ---------------------------------------------------------------------
 Center     Atomic      Atomic             Coordinates (Angstroms)
 Number     Number       Type             X           Y           Z
 ---------------------------------------------------------------------
      1          6           0       -1.228906    0.661934    2.077716
      2          6           0       -1.405893   -0.697703    1.800978
      3          6           0       -2.309212   -1.110263    0.816927
      4          6           0       -3.022233   -0.131900    0.125770
      5          6           0       -2.868079    1.230326    0.378488
      6          6           0       -1.959277    1.619920    1.366842
      7          1           0       -0.525056    0.973500    2.843822
      8          1           0       -0.840034   -1.443898    2.351470
      9          1           0       -2.465803   -2.156154    0.582388
     10          1           0       -3.446448    1.950880   -0.186940
     11          1           0       -1.823878    2.676534    1.579633
     12          7           0       -3.981439   -0.556502   -0.918278
     13          8           0       -4.597545    0.325099   -1.513115
     14          8           0       -4.098997   -1.762867   -1.121998
     15          6           0        1.936132    2.380707   -0.655535
     16          6           0        3.318373    2.186064   -0.565843
     17          6           0        3.843716    0.905706   -0.367745
     18          6           0        2.953861   -0.162251   -0.263261
     19          6           0        1.571877   -0.000545   -0.348464
     20          6           0        1.068824    1.288707   -0.546751
     21          1           0        1.536690    3.378775   -0.809496
     22          1           0        3.994315    3.032274   -0.649965
     23          1           0        4.909545    0.726588   -0.294638
     24          1           0        0.923144   -0.863609   -0.260805
     25          1           0       -0.005088    1.436889   -0.616022
     26          7           0        3.498219   -1.522417   -0.053443
     27          8           0        2.693081   -2.446806    0.035398
     28          8           0        4.719719   -1.638369    0.018198
 ---------------------------------------------------------------------

 SCF Done:  E(RHF) =  -868.336397794     A.U. after   16 cycles
 E2 =    -0.2603985648D+01 EUMP2 =    -0.87094038344131D+03

 The electronic state is 1-A.
 Alpha  occ. eigenvalues --  -20.61417 -20.61399 -20.61125 -20.61105 -15.86474
 Alpha  occ. eigenvalues --  -15.86163 -11.32068 -11.31467 -11.28670 -11.28583
 Alpha  occ. eigenvalues --  -11.28304 -11.28005 -11.27927 -11.27737 -11.27654
 Alpha  occ. eigenvalues --  -11.27535 -11.27055 -11.26850  -1.60486  -1.60192
 Alpha  occ. eigenvalues --   -1.40031  -1.39748  -1.20275  -1.19620  -1.09585
 Alpha  occ. eigenvalues --   -1.09038  -1.05675  -1.04993  -0.96371  -0.95885
 Alpha  occ. eigenvalues --   -0.87027  -0.86395  -0.83185  -0.82707  -0.78218
 Alpha  occ. eigenvalues --   -0.77768  -0.72674  -0.72382  -0.71824  -0.71518
 Alpha  occ. eigenvalues --   -0.71249  -0.70750  -0.65854  -0.65588  -0.65262
 Alpha  occ. eigenvalues --   -0.65025  -0.62956  -0.62414  -0.56057  -0.55599
 Alpha  occ. eigenvalues --   -0.54144  -0.53677  -0.53303  -0.52880  -0.49456
 Alpha  occ. eigenvalues --   -0.49423  -0.49144  -0.49127  -0.45388  -0.45165
 Alpha  occ. eigenvalues --   -0.38506  -0.37694  -0.37219  -0.36275
 Alpha virt. eigenvalues --    0.04165   0.04805   0.09848   0.11506   0.15531
 Alpha virt. eigenvalues --    0.16340   0.20579   0.21578   0.26350   0.27364
 Alpha virt. eigenvalues --    0.27713   0.28234   0.30241   0.31097   0.31861

 Mulliken charges:
               1
     1  C   -0.164670
     2  C   -0.225400
     3  C   -0.174766
     4  C    0.159714
     5  C   -0.178978
     6  C   -0.229463
     7  H    0.231598
     8  H    0.235180
     9  H    0.282772
    10  H    0.277495
    11  H    0.224434
    12  N    0.488143
    13  O   -0.459567
    14  O   -0.455567
    15  C   -0.176815
    16  C   -0.218185
    17  C   -0.172540
    18  C    0.158286
    19  C   -0.176265
    20  C   -0.221521
    21  H    0.223482
    22  H    0.223417
    23  H    0.275540
    24  H    0.274583
    25  H    0.232959
    26  N    0.488007
    27  O   -0.462728
    28  O   -0.459145
 Sum of Mulliken charges =  -0.00000

 Dipole moment (field-independent basis, Debye):
    X=              1.2283    Y=              6.1355    Z=              3.0844  Tot=              6.9762
 Quadrupole moment (field-independent basis, Debye-Ang):
   XX=           -132.6228   YY=           -102.0988   ZZ=           -104.4289
   XY=             10.5618   XZ=            -12.3512   YZ=             -2.4981

 Normal termination of Gaussian 16 at Fri May  7 09:41:42 2021.
