 Gaussian 16, Revision A.03,
 Gaussian 16:  EM64L-G16RevA.03 25-Dec-2016

 -------------
 #p 6-31g* mp2
 -------------

 ------------------------------------------------------
 Input file generated by CHIRIPA (05-May-2021 14:55:22)
 ------------------------------------------------------
 Symbolic Z-matrix:
 Charge =  0 Multiplicity = 1

                         Standard orientation:
 ---------------------------------------------------------------------
 Center     Atomic      Atomic             Coordinates (Angstroms)
 Number     Number       Type             X           Y           Z
 ---------------------------------------------------------------------
      1          6           0        5.297815   -0.029979    1.049626
      2          6           0        5.058093   -1.110901    0.194838
      3          6           0        3.823087   -1.249345   -0.445586
      4          6           0        2.845959   -0.284056   -0.207410
      5          6           0        3.054441    0.804093    0.638614
      6          6           0        4.296988    0.922389    1.268400
      7          1           0        6.260126    0.069742    1.542991
      8          1           0        5.833496   -1.852042    0.023067
      9          1           0        3.610715   -2.076276   -1.112295
     10          1           0        2.261970    1.526896    0.790152
     11          1           0        4.480352    1.762883    1.931719
     12          7           0        1.534522   -0.419956   -0.879767
     13          8           0        0.690144    0.443976   -0.653308
     14          8           0        1.375829   -1.387832   -1.620489
     15          6           0       -4.243577   -0.140458    0.626050
     16          6           0       -5.227251   -1.120596   -0.014029
     17          6           0       -5.867414   -2.065043    1.003816
     18          1           0       -3.459248   -0.706025    1.147499
     19          1           0       -4.768059    0.446337    1.392851
     20          1           0       -4.701398   -1.704409   -0.780355
     21          1           0       -6.009224   -0.552632   -0.534176
     22          1           0       -6.416598   -1.498509    1.762787
     23          1           0       -5.101342   -2.656830    1.515209
     24          1           0       -6.567037   -2.757059    0.524753
     25          6           0       -3.595399    0.810304   -0.378761
     26          6           0       -2.611724    1.790441    0.261317
     27          6           0       -1.971563    2.734888   -0.756526
     28          1           0       -3.070917    0.223508   -1.145561
     29          1           0       -4.379728    1.375870   -0.900210
     30          1           0       -1.829753    1.222476    0.781465
     31          1           0       -3.137578    2.374255    1.027644
     32          1           0       -2.737634    3.326676   -1.267920
     33          1           0       -1.422379    2.168353   -1.515498
     34          1           0       -1.271939    3.426904   -0.277464
 ---------------------------------------------------------------------

 SCF Done:  E(RHF) =  -669.536180041     A.U. after   15 cycles
 E2 =    -0.2091449325D+01 EUMP2 =    -0.67162762936592D+03

 The electronic state is 1-A.
 Alpha  occ. eigenvalues --  -20.61024 -20.61018 -15.86049 -11.31337 -11.27897
 Alpha  occ. eigenvalues --  -11.27892 -11.27630 -11.26897 -11.26887 -11.20734
 Alpha  occ. eigenvalues --  -11.20378 -11.20366 -11.20190 -11.20074 -11.19552
 Alpha  occ. eigenvalues --   -1.60085  -1.39641  -1.19504  -1.08916  -1.07286
 Alpha  occ. eigenvalues --   -1.04894  -1.02382  -0.95766  -0.94849  -0.86296
 Alpha  occ. eigenvalues --   -0.85876  -0.82597  -0.78495  -0.77654  -0.77078
 Alpha  occ. eigenvalues --   -0.72295  -0.71394  -0.70612  -0.65166  -0.64898
 Alpha  occ. eigenvalues --   -0.63885  -0.62241  -0.59727  -0.58272  -0.56474
 Alpha  occ. eigenvalues --   -0.55401  -0.54104  -0.53229  -0.52984  -0.51590
 Alpha  occ. eigenvalues --   -0.51289  -0.49068  -0.49033  -0.48725  -0.46805
 Alpha  occ. eigenvalues --   -0.45579  -0.45040  -0.44622  -0.44430  -0.42660
 Alpha  occ. eigenvalues --   -0.37481  -0.36494
 Alpha virt. eigenvalues --    0.04852   0.11162   0.16341   0.21224   0.23968
 Alpha virt. eigenvalues --    0.25273   0.27183   0.27668   0.28226   0.28674
 Alpha virt. eigenvalues --    0.29167   0.30901   0.32121   0.32704   0.32855

 Mulliken charges:
               1
     1  C   -0.170476
     2  C   -0.218614
     3  C   -0.170500
     4  C    0.157300
     5  C   -0.170720
     6  C   -0.218553
     7  H    0.226183
     8  H    0.223947
     9  H    0.275866
    10  H    0.276201
    11  H    0.224100
    12  N    0.493787
    13  O   -0.464846
    14  O   -0.459094
    15  C   -0.297515
    16  C   -0.299383
    17  C   -0.475037
    18  H    0.149995
    19  H    0.144979
    20  H    0.154354
    21  H    0.149769
    22  H    0.152893
    23  H    0.154317
    24  H    0.157909
    25  C   -0.299885
    26  C   -0.297550
    27  C   -0.475763
    28  H    0.160300
    29  H    0.144018
    30  H    0.160596
    31  H    0.141638
    32  H    0.145414
    33  H    0.175121
    34  H    0.149251
 Sum of Mulliken charges =  -0.00000

 Dipole moment (field-independent basis, Debye):
    X=              4.9996    Y=              0.3343    Z=              2.2563  Tot=              5.4953
 Quadrupole moment (field-independent basis, Debye-Ang):
   XX=            -69.4804   YY=            -92.6851   ZZ=            -95.8110
   XY=             -2.0183   XZ=              5.7793   YZ=              2.0222

 Normal termination of Gaussian 16 at Thu May  6 19:12:44 2021.
