 Gaussian 16, Revision A.03,
 Gaussian 16:  EM64L-G16RevA.03 25-Dec-2016

 -------------
 #p 6-31g* mp2
 -------------

 ------------------------------------------------------
 Input file generated by CHIRIPA (05-May-2021 14:57:27)
 ------------------------------------------------------
 Symbolic Z-matrix:
 Charge =  0 Multiplicity = 1

                         Standard orientation:
 ---------------------------------------------------------------------
 Center     Atomic      Atomic             Coordinates (Angstroms)
 Number     Number       Type             X           Y           Z
 ---------------------------------------------------------------------
      1          6           0        4.297256   -0.987280   -0.535478
      2          6           0        3.623201   -0.229608   -1.498859
      3          6           0        2.598353    0.644741   -1.125028
      4          6           0        2.271991    0.736974    0.227108
      5          6           0        2.924959   -0.004566    1.210490
      6          6           0        3.946602   -0.872544    0.813743
      7          1           0        5.092138   -1.664021   -0.834780
      8          1           0        3.893396   -0.316671   -2.547410
      9          1           0        2.060101    1.243083   -1.850072
     10          1           0        2.633197    0.103743    2.248065
     11          1           0        4.468361   -1.459728    1.564095
     12          7           0        1.188727    1.659235    0.634996
     13          8           0        0.920129    1.722325    1.832708
     14          8           0        0.628774    2.301551   -0.250735
     15          6           0       -4.559081    0.800349   -0.188202
     16          6           0       -4.358802   -0.149123    0.819226
     17          6           0       -3.194295   -0.922310    0.844822
     18          6           0       -2.246680   -0.718902   -0.157145
     19          6           0       -2.417239    0.219149   -1.174130
     20          6           0       -3.589370    0.981136   -1.179917
     21          1           0       -5.466658    1.396629   -0.200392
     22          1           0       -5.110178   -0.291679    1.590690
     23          1           0       -3.013672   -1.664358    1.613040
     24          1           0       -1.650170    0.338562   -1.929620
     25          1           0       -3.742229    1.717775   -1.963525
     26          7           0       -1.009833   -1.531512   -0.140533
     27          8           0       -0.190228   -1.333151   -1.034703
     28          8           0       -0.883416   -2.351410    0.766341
 ---------------------------------------------------------------------

 SCF Done:  E(RHF) =  -868.339391682     A.U. after   16 cycles
 E2 =    -0.2601298408D+01 EUMP2 =    -0.87094069008971D+03

 The electronic state is 1-A.
 Alpha  occ. eigenvalues --  -20.60547 -20.60540 -20.60246 -20.60217 -15.85557
 Alpha  occ. eigenvalues --  -15.85249 -11.30564 -11.30131 -11.27154 -11.27109
 Alpha  occ. eigenvalues --  -11.26855 -11.26739 -11.26732 -11.26460 -11.26103
 Alpha  occ. eigenvalues --  -11.26047 -11.25679 -11.25668  -1.59616  -1.59304
 Alpha  occ. eigenvalues --   -1.39181  -1.38872  -1.18726  -1.18300  -1.08205
 Alpha  occ. eigenvalues --   -1.07812  -1.04085  -1.03679  -0.95099  -0.94722
 Alpha  occ. eigenvalues --   -0.85517  -0.85127  -0.81952  -0.81601  -0.77032
 Alpha  occ. eigenvalues --   -0.76672  -0.71828  -0.71510  -0.71143  -0.70384
 Alpha  occ. eigenvalues --   -0.69877  -0.69511  -0.64406  -0.64123  -0.64012
 Alpha  occ. eigenvalues --   -0.63753  -0.61458  -0.61084  -0.54650  -0.54274
 Alpha  occ. eigenvalues --   -0.52441  -0.52211  -0.51934  -0.51835  -0.48577
 Alpha  occ. eigenvalues --   -0.48512  -0.48271  -0.48213  -0.44733  -0.44315
 Alpha  occ. eigenvalues --   -0.36737  -0.36184  -0.35623  -0.35182
 Alpha virt. eigenvalues --    0.05417   0.05895   0.12010   0.12441   0.17047
 Alpha virt. eigenvalues --    0.17439   0.21924   0.22382   0.27641   0.28228
 Alpha virt. eigenvalues --    0.28689   0.29392   0.31253   0.31961   0.32718

 Mulliken charges:
               1
     1  C   -0.167451
     2  C   -0.215830
     3  C   -0.154238
     4  C    0.163745
     5  C   -0.166554
     6  C   -0.216223
     7  H    0.222361
     8  H    0.219166
     9  H    0.267898
    10  H    0.272341
    11  H    0.220360
    12  N    0.485477
    13  O   -0.462890
    14  O   -0.468932
    15  C   -0.168824
    16  C   -0.218286
    17  C   -0.168138
    18  C    0.156555
    19  C   -0.158639
    20  C   -0.216429
    21  H    0.224263
    22  H    0.221450
    23  H    0.273180
    24  H    0.273592
    25  H    0.223067
    26  N    0.487393
    27  O   -0.467066
    28  O   -0.461347
 Sum of Mulliken charges =  -0.00000

 Dipole moment (field-independent basis, Debye):
    X=             -0.6008    Y=             -0.4376    Z=             -1.5444  Tot=              1.7139
 Quadrupole moment (field-independent basis, Debye-Ang):
   XX=            -68.6411   YY=           -114.0195   ZZ=            -97.9109
   XY=             -8.0909   XZ=             -2.4737   YZ=             -6.0138

 Normal termination of Gaussian 16 at Thu May  6 13:12:55 2021.
