 Gaussian 16, Revision A.03,
 Gaussian 16:  EM64L-G16RevA.03 25-Dec-2016

 -------------
 #p 6-31g* mp2
 -------------

 ------------------------------------------------------
 Input file generated by CHIRIPA (05-May-2021 14:57:23)
 ------------------------------------------------------
 Symbolic Z-matrix:
 Charge =  0 Multiplicity = 1

                         Standard orientation:
 ---------------------------------------------------------------------
 Center     Atomic      Atomic             Coordinates (Angstroms)
 Number     Number       Type             X           Y           Z
 ---------------------------------------------------------------------
      1          6           0       -3.131662   -2.119009   -0.118082
      2          6           0       -2.902275   -1.579588    1.151929
      3          6           0       -2.630262   -0.216938    1.306017
      4          6           0       -2.595117    0.580840    0.163386
      5          6           0       -2.819421    0.073089   -1.115350
      6          6           0       -3.089577   -1.292406   -1.245680
      7          1           0       -3.342247   -3.178653   -0.228554
      8          1           0       -2.934331   -2.219154    2.029410
      9          1           0       -2.448937    0.226859    2.277399
     10          1           0       -2.780854    0.735771   -1.971378
     11          1           0       -3.267331   -1.708582   -2.233226
     12          7           0       -2.308132    2.024922    0.313937
     13          8           0       -2.282751    2.706548   -0.708501
     14          8           0       -2.114009    2.447824    1.451525
     15          6           0        4.866502    0.778625    0.263526
     16          6           0        4.094857    1.132663   -0.848113
     17          6           0        2.860992    0.517869   -1.080821
     18          6           0        2.427399   -0.451256   -0.177447
     19          6           0        3.173249   -0.825664    0.939162
     20          6           0        4.404050   -0.197688    1.152050
     21          1           0        5.823808    1.261333    0.436602
     22          1           0        4.451491    1.890548   -1.539827
     23          1           0        2.243353    0.772831   -1.933425
     24          1           0        2.791271   -1.584669    1.611042
     25          1           0        5.001197   -0.474642    2.016201
     26          7           0        1.122783   -1.109089   -0.413314
     27          8           0        0.763133   -1.959929    0.397465
     28          8           0        0.484578   -0.761405   -1.404498
 ---------------------------------------------------------------------

 SCF Done:  E(RHF) =  -868.338690137     A.U. after   16 cycles
 E2 =    -0.2601127534D+01 EUMP2 =    -0.87093981767077D+03

 The electronic state is 1-A.
 Alpha  occ. eigenvalues --  -20.60981 -20.60970 -20.59778 -20.59770 -15.86009
 Alpha  occ. eigenvalues --  -15.84813 -11.31193 -11.29713 -11.27768 -11.27721
 Alpha  occ. eigenvalues --  -11.27459 -11.26738 -11.26697 -11.26312 -11.26247
 Alpha  occ. eigenvalues --  -11.25949 -11.25235 -11.25162  -1.60040  -1.58862
 Alpha  occ. eigenvalues --   -1.39603  -1.38428  -1.19350  -1.17848  -1.08781
 Alpha  occ. eigenvalues --   -1.07346  -1.04728  -1.03213  -0.95649  -0.94265
 Alpha  occ. eigenvalues --   -0.86138  -0.84669  -0.82493  -0.81137  -0.77558
 Alpha  occ. eigenvalues --   -0.76228  -0.72256  -0.71367  -0.71058  -0.70466
 Alpha  occ. eigenvalues --   -0.70166  -0.69046  -0.65012  -0.64736  -0.63549
 Alpha  occ. eigenvalues --   -0.63293  -0.62082  -0.60634  -0.55250  -0.53796
 Alpha  occ. eigenvalues --   -0.53070  -0.52824  -0.51624  -0.51379  -0.49004
 Alpha  occ. eigenvalues --   -0.48805  -0.47825  -0.47768  -0.45077  -0.43935
 Alpha  occ. eigenvalues --   -0.37319  -0.36317  -0.35761  -0.34655
 Alpha virt. eigenvalues --    0.04932   0.06327   0.11339   0.12909   0.16512
 Alpha virt. eigenvalues --    0.17920   0.21472   0.22767   0.27387   0.28346
 Alpha virt. eigenvalues --    0.28641   0.29610   0.31030   0.32259   0.32558

 Mulliken charges:
               1
     1  C   -0.162512
     2  C   -0.207825
     3  C   -0.172906
     4  C    0.154132
     5  C   -0.155025
     6  C   -0.207942
     7  H    0.220907
     8  H    0.217653
     9  H    0.268370
    10  H    0.269783
    11  H    0.218344
    12  N    0.487495
    13  O   -0.465108
    14  O   -0.467125
    15  C   -0.169816
    16  C   -0.217790
    17  C   -0.168903
    18  C    0.158340
    19  C   -0.170454
    20  C   -0.218211
    21  H    0.226323
    22  H    0.225089
    23  H    0.276760
    24  H    0.273333
    25  H    0.223225
    26  N    0.488541
    27  O   -0.463163
    28  O   -0.461516
 Sum of Mulliken charges =  -0.00000

 Dipole moment (field-independent basis, Debye):
    X=              3.8191    Y=             -2.9566    Z=              0.1213  Tot=              4.8313
 Quadrupole moment (field-independent basis, Debye-Ang):
   XX=            -78.7737   YY=           -112.7904   ZZ=            -97.4083
   XY=             16.7653   XZ=              3.8645   YZ=             -5.3304

 Normal termination of Gaussian 16 at Thu May  6 21:09:58 2021.
