 Gaussian 16, Revision A.03,
 Gaussian 16:  EM64L-G16RevA.03 25-Dec-2016

 -------------
 #p 6-31g* mp2
 -------------

 ------------------------------------------------------
 Input file generated by CHIRIPA (05-May-2021 14:55:20)
 ------------------------------------------------------
 Symbolic Z-matrix:
 Charge =  0 Multiplicity = 1

                         Standard orientation:
 ---------------------------------------------------------------------
 Center     Atomic      Atomic             Coordinates (Angstroms)
 Number     Number       Type             X           Y           Z
 ---------------------------------------------------------------------
      1          6           0        4.629535    1.322847   -0.922041
      2          6           0        3.496570    0.988761   -1.671239
      3          6           0        2.463422    0.239573   -1.100387
      4          6           0        2.596806   -0.160797    0.228222
      5          6           0        3.713129    0.156258    1.000615
      6          6           0        4.734014    0.906263    0.409148
      7          1           0        5.427346    1.905151   -1.373499
      8          1           0        3.412721    1.310927   -2.705271
      9          1           0        1.575308   -0.033009   -1.657496
     10          1           0        3.768170   -0.179202    2.029135
     11          1           0        5.612736    1.164257    0.993385
     12          7           0        1.509550   -0.954362    0.843469
     13          8           0        1.651160   -1.295008    2.015879
     14          8           0        0.536336   -1.220685    0.141641
     15          6           0       -3.241696   -0.463268   -0.646756
     16          6           0       -3.160803   -1.881799   -0.081768
     17          6           0       -2.535173   -2.873974   -1.062569
     18          1           0       -3.825500   -0.478777   -1.577281
     19          1           0       -2.231601   -0.125586   -0.917080
     20          1           0       -4.170581   -2.216183    0.188696
     21          1           0       -2.577285   -1.862879    0.847621
     22          1           0       -1.517374   -2.567100   -1.324321
     23          1           0       -3.119723   -2.922411   -1.986991
     24          1           0       -2.487153   -3.881735   -0.638340
     25          6           0       -3.864862    0.540089    0.322092
     26          6           0       -3.945755    1.958621   -0.242896
     27          6           0       -4.571386    2.950795    0.737905
     28          1           0       -4.874956    0.202408    0.592416
     29          1           0       -3.281058    0.555599    1.252617
     30          1           0       -4.529273    1.939701   -1.172286
     31          1           0       -2.935977    2.293004   -0.513360
     32          1           0       -3.986835    2.999231    1.662327
     33          1           0       -5.589184    2.643921    0.999657
     34          1           0       -4.619405    3.958556    0.313676
 ---------------------------------------------------------------------

 SCF Done:  E(RHF) =  -669.536365437     A.U. after   15 cycles
 E2 =    -0.2091618041D+01 EUMP2 =    -0.67162798347790D+03

 The electronic state is 1-A.
 Alpha  occ. eigenvalues --  -20.61062 -20.61055 -15.86088 -11.31365 -11.27925
 Alpha  occ. eigenvalues --  -11.27919 -11.27651 -11.26920 -11.26911 -11.20964
 Alpha  occ. eigenvalues --  -11.20558 -11.20458 -11.20203 -11.20110 -11.19566
 Alpha  occ. eigenvalues --   -1.60115  -1.39674  -1.19529  -1.08941  -1.07389
 Alpha  occ. eigenvalues --   -1.04919  -1.02468  -0.95792  -0.94943  -0.86322
 Alpha  occ. eigenvalues --   -0.85974  -0.82629  -0.78602  -0.77692  -0.77149
 Alpha  occ. eigenvalues --   -0.72328  -0.71424  -0.70638  -0.65193  -0.64922
 Alpha  occ. eigenvalues --   -0.63988  -0.62268  -0.59818  -0.58377  -0.56550
 Alpha  occ. eigenvalues --   -0.55424  -0.54212  -0.53252  -0.53010  -0.51678
 Alpha  occ. eigenvalues --   -0.51382  -0.49076  -0.49065  -0.48877  -0.46906
 Alpha  occ. eigenvalues --   -0.45637  -0.45079  -0.44696  -0.44539  -0.42741
 Alpha  occ. eigenvalues --   -0.37505  -0.36518
 Alpha virt. eigenvalues --    0.04821   0.11137   0.16313   0.21121   0.23776
 Alpha virt. eigenvalues --    0.25176   0.26795   0.27448   0.28225   0.28746
 Alpha virt. eigenvalues --    0.29081   0.30798   0.31868   0.32627   0.32787

 Mulliken charges:
               1
     1  C   -0.170459
     2  C   -0.218492
     3  C   -0.170622
     4  C    0.157373
     5  C   -0.170568
     6  C   -0.218555
     7  H    0.226318
     8  H    0.224256
     9  H    0.275463
    10  H    0.275988
    11  H    0.224085
    12  N    0.495154
    13  O   -0.458189
    14  O   -0.467156
    15  C   -0.299242
    16  C   -0.296885
    17  C   -0.478888
    18  H    0.142220
    19  H    0.155115
    20  H    0.143352
    21  H    0.166454
    22  H    0.170188
    23  H    0.144099
    24  H    0.156476
    25  C   -0.298392
    26  C   -0.298289
    27  C   -0.475069
    28  H    0.146776
    29  H    0.152956
    30  H    0.149402
    31  H    0.148674
    32  H    0.155104
    33  H    0.154616
    34  H    0.156736
 Sum of Mulliken charges =  -0.00000

 Dipole moment (field-independent basis, Debye):
    X=              4.2228    Y=              2.7539    Z=             -2.0420  Tot=              5.4393
 Quadrupole moment (field-independent basis, Debye-Ang):
   XX=            -74.5027   YY=            -97.6687   ZZ=            -92.5506
   XY=              7.3142   XZ=             -2.1357   YZ=              0.0571

 Normal termination of Gaussian 16 at Wed May  5 20:32:09 2021.
