 Gaussian 16, Revision A.03,
 Gaussian 16:  EM64L-G16RevA.03 25-Dec-2016

 -------------
 #p 6-31g* mp2
 -------------

 ------------------------------------------------------
 Input file generated by CHIRIPA (05-May-2021 14:51:10)
 ------------------------------------------------------
 Symbolic Z-matrix:
 Charge =  0 Multiplicity = 1

                         Standard orientation:
 ---------------------------------------------------------------------
 Center     Atomic      Atomic             Coordinates (Angstroms)
 Number     Number       Type             X           Y           Z
 ---------------------------------------------------------------------
      1          6           0        3.910584    0.223201   -0.116148
      2          6           0        3.785413    1.738885   -0.274320
      3          6           0        5.027848    2.372454   -0.901010
      4          1           0        4.790522   -0.003188    0.501430
      5          1           0        4.095785   -0.227191   -1.101157
      6          1           0        3.599127    2.186149    0.710498
      7          1           0        2.905561    1.961699   -0.891434
      8          1           0        5.214015    1.953618   -1.895253
      9          1           0        5.911521    2.179344   -0.284219
     10          1           0        4.916840    3.456319   -1.004811
     11          6           0        2.676385   -0.424641    0.508976
     12          6           0        2.801556   -1.940326    0.667148
     13          6           0        1.559121   -2.573895    1.293838
     14          1           0        2.491184    0.025751    1.493985
     15          1           0        1.796447   -0.198253   -0.108602
     16          1           0        3.681408   -2.163140    1.284262
     17          1           0        2.987842   -2.387590   -0.317671
     18          1           0        0.675448   -2.380784    0.677046
     19          1           0        1.372954   -2.155059    2.288081
     20          1           0        1.670129   -3.657759    1.397639
     21          6           0       -2.754303   -0.382960   -0.438838
     22          6           0       -3.274214   -1.801199   -0.676065
     23          6           0       -2.183829   -2.757183   -1.160780
     24          1           0       -2.315924    0.000622   -1.370306
     25          1           0       -1.940611   -0.416810    0.298829
     26          1           0       -4.087613   -1.764515   -1.412035
     27          1           0       -3.711579   -2.181377    0.256026
     28          1           0       -1.375038   -2.823442   -0.425886
     29          1           0       -1.753209   -2.404210   -2.103424
     30          1           0       -2.577329   -3.765335   -1.324019
     31          6           0       -3.832665    0.584400    0.046011
     32          6           0       -3.312756    2.002640    0.283237
     33          6           0       -4.403141    2.958624    0.767952
     34          1           0       -4.646358    0.618251   -0.691657
     35          1           0       -4.271046    0.200819    0.977478
     36          1           0       -2.875389    2.382817   -0.648853
     37          1           0       -2.499356    1.965954    1.019207
     38          1           0       -4.833761    2.605650    1.710596
     39          1           0       -5.211931    3.024882    0.033059
     40          1           0       -4.009640    3.966776    0.931191
 ---------------------------------------------------------------------

 SCF Done:  E(RHF) =  -470.733380974     A.U. after   11 cycles
 E2 =    -0.1582597797D+01 EUMP2 =    -0.47231597877137D+03

 The electronic state is 1-A.
 Alpha  occ. eigenvalues --  -11.21604 -11.21601 -11.21596 -11.21592 -11.21410
 Alpha  occ. eigenvalues --  -11.21396 -11.21350 -11.21337 -11.21080 -11.21067
 Alpha  occ. eigenvalues --  -11.21067 -11.21064  -1.08435  -1.08421  -1.03545
 Alpha  occ. eigenvalues --   -1.03515  -0.96007  -0.95957  -0.87037  -0.86962
 Alpha  occ. eigenvalues --   -0.79640  -0.79548  -0.78268  -0.78213  -0.65097
 Alpha  occ. eigenvalues --   -0.65023  -0.61037  -0.60835  -0.59365  -0.59330
 Alpha  occ. eigenvalues --   -0.57656  -0.57537  -0.55436  -0.55124  -0.52682
 Alpha  occ. eigenvalues --   -0.52668  -0.52510  -0.52311  -0.50104  -0.49751
 Alpha  occ. eigenvalues --   -0.48030  -0.47804  -0.46750  -0.46485  -0.45885
 Alpha  occ. eigenvalues --   -0.45754  -0.45720  -0.45552  -0.43786  -0.43781
 Alpha virt. eigenvalues --    0.21225   0.23140   0.23497   0.24826   0.25842
 Alpha virt. eigenvalues --    0.26808   0.27137   0.27315   0.28127   0.28944
 Alpha virt. eigenvalues --    0.30382   0.31693   0.31769   0.31904   0.31993

 Mulliken charges:
               1
     1  C   -0.298314
     2  C   -0.299683
     3  C   -0.475710
     4  H    0.149592
     5  H    0.149602
     6  H    0.151853
     7  H    0.152163
     8  H    0.155171
     9  H    0.155140
    10  H    0.160228
    11  C   -0.298999
    12  C   -0.299005
    13  C   -0.483953
    14  H    0.149187
    15  H    0.150685
    16  H    0.151946
    17  H    0.152327
    18  H    0.162209
    19  H    0.154919
    20  H    0.160624
    21  C   -0.299643
    22  C   -0.299132
    23  C   -0.483439
    24  H    0.149138
    25  H    0.150604
    26  H    0.151943
    27  H    0.152212
    28  H    0.162652
    29  H    0.154589
    30  H    0.160725
    31  C   -0.298272
    32  C   -0.299729
    33  C   -0.475723
    34  H    0.149570
    35  H    0.149823
    36  H    0.151770
    37  H    0.152325
    38  H    0.155208
    39  H    0.155128
    40  H    0.160269
 Sum of Mulliken charges =  -0.00000

 Dipole moment (field-independent basis, Debye):
    X=             -0.0013    Y=             -0.0038    Z=              0.0024  Tot=              0.0047
 Quadrupole moment (field-independent basis, Debye-Ang):
   XX=            -85.7284   YY=            -85.7341   ZZ=            -83.2988
   XY=              0.0511   XZ=              1.1582   YZ=             -0.1372

 Normal termination of Gaussian 16 at Wed May  5 15:11:18 2021.
