 Gaussian 16, Revision A.03,
 Gaussian 16:  EM64L-G16RevA.03 25-Dec-2016

 -------------
 #p 6-31g* mp2
 -------------

 ------------------------------------------------------
 Input file generated by CHIRIPA (05-May-2021 14:55:23)
 ------------------------------------------------------
 Symbolic Z-matrix:
 Charge =  0 Multiplicity = 1

                         Standard orientation:
 ---------------------------------------------------------------------
 Center     Atomic      Atomic             Coordinates (Angstroms)
 Number     Number       Type             X           Y           Z
 ---------------------------------------------------------------------
      1          6           0       -3.078059    2.681403    0.520002
      2          6           0       -1.973393    2.296839   -0.247033
      3          6           0       -1.802146    0.962061   -0.625965
      4          6           0       -2.759203    0.033942   -0.218623
      5          6           0       -3.870444    0.386019    0.545886
      6          6           0       -4.021396    1.726449    0.913320
      7          1           0       -3.203205    3.720487    0.809899
      8          1           0       -1.239195    3.036312   -0.553920
      9          1           0       -0.956334    0.636926   -1.219520
     10          1           0       -4.585579   -0.373856    0.836730
     11          1           0       -4.880279    2.022233    1.509037
     12          7           0       -2.588654   -1.382120   -0.613695
     13          8           0       -3.445963   -2.180603   -0.242097
     14          8           0       -1.600899   -1.666734   -1.287469
     15          6           0        3.041309   -0.850555   -0.022219
     16          6           0        2.645159   -1.827755    1.085089
     17          6           0        1.591148   -2.838591    0.632247
     18          1           0        2.145712   -0.317699   -0.369948
     19          1           0        3.421698   -1.417500   -0.883191
     20          1           0        2.266923   -1.259061    1.944242
     21          1           0        3.541833   -2.358209    1.430355
     22          1           0        1.962493   -3.431123   -0.210137
     23          1           0        0.680338   -2.325730    0.306669
     24          1           0        1.322613   -3.527384    1.439286
     25          6           0        4.094208    0.166201    0.415205
     26          6           0        4.490358    1.143401   -0.692103
     27          6           0        5.544368    2.154237   -0.239260
     28          1           0        3.713819    0.733146    1.276177
     29          1           0        4.989804   -0.366655    0.762934
     30          1           0        3.593683    1.673855   -1.037369
     31          1           0        4.868593    0.574707   -1.551255
     32          1           0        6.455178    1.641376    0.086317
     33          1           0        5.173024    2.746769    0.603123
     34          1           0        5.812903    2.843030   -1.046300
 ---------------------------------------------------------------------

 SCF Done:  E(RHF) =  -669.536134129     A.U. after   15 cycles
 E2 =    -0.2091332733D+01 EUMP2 =    -0.67162746686133D+03

 The electronic state is 1-A.
 Alpha  occ. eigenvalues --  -20.60954 -20.60949 -15.85971 -11.31299 -11.27865
 Alpha  occ. eigenvalues --  -11.27858 -11.27598 -11.26872 -11.26862 -11.21629
 Alpha  occ. eigenvalues --  -11.21270 -11.21138 -11.21120 -11.21060 -11.20071
 Alpha  occ. eigenvalues --   -1.60006  -1.39564  -1.19468  -1.08871  -1.08204
 Alpha  occ. eigenvalues --   -1.04865  -1.03215  -0.95716  -0.95630  -0.86643
 Alpha  occ. eigenvalues --   -0.86265  -0.82545  -0.79305  -0.77988  -0.77595
 Alpha  occ. eigenvalues --   -0.72194  -0.71317  -0.70576  -0.65124  -0.64880
 Alpha  occ. eigenvalues --   -0.64837  -0.62213  -0.60619  -0.59063  -0.57239
 Alpha  occ. eigenvalues --   -0.55368  -0.54920  -0.53196  -0.52957  -0.52321
 Alpha  occ. eigenvalues --   -0.52037  -0.49587  -0.48963  -0.48946  -0.47601
 Alpha  occ. eigenvalues --   -0.46388  -0.45577  -0.45468  -0.44800  -0.43488
 Alpha  occ. eigenvalues --   -0.37445  -0.36466
 Alpha virt. eigenvalues --    0.04890   0.11168   0.16360   0.20828   0.22915
 Alpha virt. eigenvalues --    0.24402   0.25743   0.27275   0.27612   0.28451
 Alpha virt. eigenvalues --    0.28931   0.30595   0.31621   0.31931   0.32277

 Mulliken charges:
               1
     1  C   -0.170598
     2  C   -0.218571
     3  C   -0.172674
     4  C    0.158453
     5  C   -0.170721
     6  C   -0.218516
     7  H    0.226059
     8  H    0.223911
     9  H    0.276960
    10  H    0.275923
    11  H    0.223893
    12  N    0.487728
    13  O   -0.458103
    14  O   -0.458552
    15  C   -0.295867
    16  C   -0.300294
    17  C   -0.481424
    18  H    0.144417
    19  H    0.151723
    20  H    0.147565
    21  H    0.149705
    22  H    0.155807
    23  H    0.170858
    24  H    0.157449
    25  C   -0.298080
    26  C   -0.298124
    27  C   -0.475432
    28  H    0.147022
    29  H    0.150458
    30  H    0.146261
    31  H    0.153599
    32  H    0.156384
    33  H    0.153495
    34  H    0.159288
 Sum of Mulliken charges =  -0.00000

 Dipole moment (field-independent basis, Debye):
    X=             -0.7872    Y=              4.9203    Z=              1.3392  Tot=              5.1597
 Quadrupole moment (field-independent basis, Debye-Ang):
   XX=            -88.1653   YY=            -94.8635   ZZ=            -94.9797
   XY=            -13.9764   XZ=             -6.6962   YZ=             -1.4101

 Normal termination of Gaussian 16 at Thu May  6 14:18:04 2021.
