 Gaussian 16, Revision A.03,
 Gaussian 16:  EM64L-G16RevA.03 25-Dec-2016

 -------------
 #p 6-31g* mp2
 -------------

 ------------------------------------------------------
 Input file generated by CHIRIPA (05-May-2021 14:53:14)
 ------------------------------------------------------
 Symbolic Z-matrix:
 Charge =  0 Multiplicity = 1

                         Standard orientation:
 ---------------------------------------------------------------------
 Center     Atomic      Atomic             Coordinates (Angstroms)
 Number     Number       Type             X           Y           Z
 ---------------------------------------------------------------------
      1          6           0        4.495249    0.164286   -0.040112
      2          6           0        4.458700   -1.325330    0.302950
      3          6           0        5.832583   -1.988849    0.203040
      4          1           0        4.891790    0.290258   -1.056887
      5          1           0        5.198467    0.671695    0.634733
      6          1           0        3.754721   -1.829544   -0.371437
      7          1           0        4.062020   -1.447783    1.318955
      8          1           0        6.541295   -1.512251    0.888009
      9          1           0        6.232250   -1.896181   -0.811988
     10          1           0        5.783381   -3.053394    0.452403
     11          6           0        3.129281    0.841610    0.055241
     12          6           0        3.165830    2.331227   -0.287821
     13          6           0        1.791947    2.994745   -0.187910
     14          1           0        2.426063    0.334201   -0.619604
     15          1           0        2.732740    0.715638    1.072016
     16          1           0        3.562510    2.453679   -1.303826
     17          1           0        3.869809    2.835440    0.386566
     18          1           0        1.392280    2.902077    0.827117
     19          1           0        1.083235    2.518147   -0.872880
     20          1           0        1.841148    4.059291   -0.437274
     21          6           0       -0.761822   -1.576767   -0.232922
     22          6           0       -1.955003   -2.300187   -0.330410
     23          6           0       -3.188868   -1.654662   -0.206215
     24          6           0       -3.192617   -0.278479    0.016037
     25          6           0       -2.020938    0.469909    0.117904
     26          6           0       -0.798533   -0.196461   -0.009471
     27          1           0        0.192222   -2.086323   -0.330634
     28          1           0       -1.929530   -3.372238   -0.503910
     29          1           0       -4.127694   -2.190332   -0.277506
     30          1           0       -2.078325    1.537657    0.291226
     31          1           0        0.126524    0.367911    0.066677
     32          7           0       -4.492788    0.415942    0.149199
     33          8           0       -4.469079    1.629144    0.344692
     34          8           0       -5.510952   -0.266119    0.055556
 ---------------------------------------------------------------------

 SCF Done:  E(RHF) =  -669.535293491     A.U. after   15 cycles
 E2 =    -0.2092432179D+01 EUMP2 =    -0.67162772566951D+03

 The electronic state is 1-A.
 Alpha  occ. eigenvalues --  -20.60668 -20.60662 -15.85718 -11.31058 -11.27632
 Alpha  occ. eigenvalues --  -11.27593 -11.27344 -11.26647 -11.26504 -11.22651
 Alpha  occ. eigenvalues --  -11.22589 -11.22584 -11.22359 -11.22138 -11.21849
 Alpha  occ. eigenvalues --   -1.59744  -1.39298  -1.19221  -1.09500  -1.08620
 Alpha  occ. eigenvalues --   -1.04635  -1.04506  -0.96978  -0.95463  -0.87992
 Alpha  occ. eigenvalues --   -0.86024  -0.82301  -0.80598  -0.79375  -0.77331
 Alpha  occ. eigenvalues --   -0.71937  -0.71066  -0.70333  -0.66130  -0.64869
 Alpha  occ. eigenvalues --   -0.64625  -0.62063  -0.61837  -0.60313  -0.58602
 Alpha  occ. eigenvalues --   -0.56265  -0.55117  -0.53626  -0.53425  -0.52954
 Alpha  occ. eigenvalues --   -0.52732  -0.50914  -0.48905  -0.48695  -0.48667
 Alpha  occ. eigenvalues --   -0.47614  -0.46805  -0.46780  -0.44790  -0.44709
 Alpha  occ. eigenvalues --   -0.37206  -0.36218
 Alpha virt. eigenvalues --    0.05172   0.11379   0.16633   0.19727   0.22171
 Alpha virt. eigenvalues --    0.22958   0.24996   0.25903   0.26089   0.28810
 Alpha virt. eigenvalues --    0.29633   0.29996   0.30749   0.31125   0.31532

 Mulliken charges:
               1
     1  C   -0.297527
     2  C   -0.300550
     3  C   -0.476208
     4  H    0.153000
     5  H    0.153975
     6  H    0.146154
     7  H    0.152839
     8  H    0.158004
     9  H    0.157135
    10  H    0.161769
    11  C   -0.307219
    12  C   -0.298537
    13  C   -0.484439
    14  H    0.143275
    15  H    0.150415
    16  H    0.156122
    17  H    0.156916
    18  H    0.155245
    19  H    0.153022
    20  H    0.169116
    21  C   -0.175279
    22  C   -0.218385
    23  C   -0.171628
    24  C    0.159104
    25  C   -0.174845
    26  C   -0.229849
    27  H    0.225912
    28  H    0.222719
    29  H    0.275034
    30  H    0.275988
    31  H    0.242277
    32  N    0.487998
    33  O   -0.460567
    34  O   -0.460988
 Sum of Mulliken charges =  -0.00000

 Dipole moment (field-independent basis, Debye):
    X=              4.9276    Y=             -2.3129    Z=             -0.4574  Tot=              5.4626
 Quadrupole moment (field-independent basis, Debye-Ang):
   XX=           -123.0113   YY=            -89.5754   ZZ=            -94.5880
   XY=              9.8555   XZ=              2.1684   YZ=              0.9007

 Normal termination of Gaussian 16 at Thu May  6 13:47:37 2021.
