 Gaussian 16, Revision A.03,
 Gaussian 16:  EM64L-G16RevA.03 25-Dec-2016

 -------------
 #p 6-31g* mp2
 -------------

 ------------------------------------------------------
 Input file generated by CHIRIPA (05-May-2021 14:51:11)
 ------------------------------------------------------
 Symbolic Z-matrix:
 Charge =  0 Multiplicity = 1

                         Standard orientation:
 ---------------------------------------------------------------------
 Center     Atomic      Atomic             Coordinates (Angstroms)
 Number     Number       Type             X           Y           Z
 ---------------------------------------------------------------------
      1          6           0        4.234900   -0.018038    0.345850
      2          6           0        5.112478    0.385955   -0.839322
      3          6           0        6.577642    0.583954   -0.449600
      4          1           0        4.307354    0.751400    1.126658
      5          1           0        4.627325   -0.946083    0.784177
      6          1           0        4.717700    1.312214   -1.276139
      7          1           0        5.037776   -0.384441   -1.617478
      8          1           0        6.993764   -0.339283   -0.033575
      9          1           0        6.671869    1.367013    0.309703
     10          1           0        7.186961    0.872366   -1.311813
     11          6           0        2.767457   -0.219683   -0.027886
     12          6           0        1.889880   -0.623676    1.157286
     13          6           0        0.424715   -0.821676    0.767564
     14          1           0        2.375033    0.708361   -0.466214
     15          1           0        2.695004   -0.989121   -0.808694
     16          1           0        1.964581    0.146720    1.935441
     17          1           0        2.284657   -1.549936    1.594103
     18          1           0        0.330489   -1.604734    0.008261
     19          1           0        0.008594    0.101561    0.351538
     20          1           0       -0.184603   -1.110087    1.629777
     21          6           0       -3.107617   -0.533576   -0.105436
     22          6           0       -3.939404   -1.772562   -0.438646
     23          6           0       -3.138185   -3.070017   -0.327048
     24          1           0       -2.240618   -0.489866   -0.778747
     25          1           0       -2.707619   -0.632134    0.913231
     26          1           0       -4.338854   -1.671067   -1.455875
     27          1           0       -4.804626   -1.813224    0.235411
     28          1           0       -2.752237   -3.198234    0.689418
     29          1           0       -2.283819   -3.055269   -1.011476
     30          1           0       -3.752072   -3.943071   -0.569493
     31          6           0       -3.894741    0.771297   -0.212529
     32          6           0       -3.062954    2.010283    0.120683
     33          6           0       -3.864173    3.307738    0.009085
     34          1           0       -4.294739    0.869854   -1.231196
     35          1           0       -4.761739    0.727587    0.460783
     36          1           0       -2.197732    2.050945   -0.553374
     37          1           0       -2.663504    1.908788    1.137911
     38          1           0       -4.718539    3.292991    0.693513
     39          1           0       -4.250120    3.435955   -1.007383
     40          1           0       -3.250286    4.180792    0.251529
 ---------------------------------------------------------------------

 SCF Done:  E(RHF) =  -470.732499804     A.U. after   11 cycles
 E2 =    -0.1583588962D+01 EUMP2 =    -0.47231608876607D+03

 The electronic state is 1-A.
 Alpha  occ. eigenvalues --  -11.21595 -11.21589 -11.21524 -11.21519 -11.21381
 Alpha  occ. eigenvalues --  -11.21322 -11.21322 -11.21198 -11.21067 -11.21062
 Alpha  occ. eigenvalues --  -11.21014 -11.20955  -1.08413  -1.08351  -1.03510
 Alpha  occ. eigenvalues --   -1.03465  -0.95983  -0.95888  -0.87018  -0.86897
 Alpha  occ. eigenvalues --   -0.79665  -0.79493  -0.78295  -0.78039  -0.65030
 Alpha  occ. eigenvalues --   -0.65004  -0.60907  -0.60872  -0.59374  -0.59240
 Alpha  occ. eigenvalues --   -0.57595  -0.57515  -0.55236  -0.55201  -0.52765
 Alpha  occ. eigenvalues --   -0.52608  -0.52421  -0.52242  -0.49890  -0.49861
 Alpha  occ. eigenvalues --   -0.47974  -0.47818  -0.46627  -0.46559  -0.45939
 Alpha  occ. eigenvalues --   -0.45700  -0.45633  -0.45377  -0.43737  -0.43669
 Alpha virt. eigenvalues --    0.21651   0.23071   0.23659   0.24333   0.25520
 Alpha virt. eigenvalues --    0.26107   0.26672   0.27740   0.27749   0.29881
 Alpha virt. eigenvalues --    0.30234   0.30626   0.31742   0.32274   0.32359

 Mulliken charges:
               1
     1  C   -0.298148
     2  C   -0.299595
     3  C   -0.475680
     4  H    0.149605
     5  H    0.149529
     6  H    0.151804
     7  H    0.151838
     8  H    0.155180
     9  H    0.155160
    10  H    0.160176
    11  C   -0.298341
    12  C   -0.301366
    13  C   -0.475630
    14  H    0.149124
    15  H    0.149266
    16  H    0.151421
    17  H    0.151364
    18  H    0.155257
    19  H    0.158694
    20  H    0.159563
    21  C   -0.301039
    22  C   -0.299635
    23  C   -0.475759
    24  H    0.153730
    25  H    0.152842
    26  H    0.151188
    27  H    0.151177
    28  H    0.155339
    29  H    0.155179
    30  H    0.159697
    31  C   -0.297944
    32  C   -0.300611
    33  C   -0.475598
    34  H    0.148919
    35  H    0.149066
    36  H    0.151471
    37  H    0.152280
    38  H    0.155307
    39  H    0.155217
    40  H    0.159953
 Sum of Mulliken charges =  -0.00000

 Dipole moment (field-independent basis, Debye):
    X=             -0.0091    Y=             -0.0012    Z=              0.0035  Tot=              0.0098
 Quadrupole moment (field-independent basis, Debye-Ang):
   XX=            -86.3298   YY=            -84.9639   ZZ=            -83.8075
   XY=              0.0805   XZ=             -0.5159   YZ=              0.1331

 Normal termination of Gaussian 16 at Wed May  5 19:51:14 2021.
