 Gaussian 16, Revision A.03,
 Gaussian 16:  EM64L-G16RevA.03 25-Dec-2016

 -------------
 #p 6-31g* mp2
 -------------

 ------------------------------------------------------
 Input file generated by CHIRIPA (05-May-2021 14:53:16)
 ------------------------------------------------------
 Symbolic Z-matrix:
 Charge =  0 Multiplicity = 1

                         Standard orientation:
 ---------------------------------------------------------------------
 Center     Atomic      Atomic             Coordinates (Angstroms)
 Number     Number       Type             X           Y           Z
 ---------------------------------------------------------------------
      1          6           0       -3.937082    0.613763    0.640579
      2          6           0       -2.577541    1.204275    0.265176
      3          6           0       -2.122675    2.300521    1.229092
      4          1           0       -4.685359    1.417827    0.663108
      5          1           0       -3.883752    0.207754    1.660239
      6          1           0       -2.633025    1.607812   -0.753989
      7          1           0       -1.832453    0.398681    0.243350
      8          1           0       -2.039217    1.907662    2.247570
      9          1           0       -2.844338    3.123664    1.244565
     10          1           0       -1.148584    2.708693    0.942031
     11          6           0       -4.405370   -0.483415   -0.313694
     12          6           0       -5.764911   -1.073927    0.061710
     13          6           0       -6.219777   -2.170173   -0.902207
     14          1           0       -4.458700   -0.077406   -1.333354
     15          1           0       -3.657093   -1.287479   -0.336223
     16          1           0       -6.509999   -0.268333    0.083535
     17          1           0       -5.709427   -1.477464    1.080874
     18          1           0       -5.498114   -2.993316   -0.917679
     19          1           0       -6.303235   -1.777314   -1.920685
     20          1           0       -7.193868   -2.578345   -0.615146
     21          6           0        4.853823   -1.777914    0.788396
     22          6           0        5.005046   -1.310220   -0.521152
     23          6           0        4.127135   -0.353430   -1.039199
     24          6           0        3.104566    0.116042   -0.216253
     25          6           0        2.927862   -0.330319    1.092497
     26          6           0        3.817541   -1.287335    1.589628
     27          1           0        5.540376   -2.521260    1.182704
     28          1           0        5.808920   -1.689424   -1.145680
     29          1           0        4.221232    0.025949   -2.049464
     30          1           0        2.116867    0.066502    1.691026
     31          1           0        3.697691   -1.648739    2.607011
     32          7           0        2.168932    1.129073   -0.753615
     33          8           0        1.276199    1.526797   -0.008311
     34          8           0        2.346032    1.506180   -1.909930
 ---------------------------------------------------------------------

 SCF Done:  E(RHF) =  -669.536130352     A.U. after   15 cycles
 E2 =    -0.2090982875D+01 EUMP2 =    -0.67162711322724D+03

 The electronic state is 1-A.
 Alpha  occ. eigenvalues --  -20.60944 -20.60939 -15.85979 -11.31296 -11.27858
 Alpha  occ. eigenvalues --  -11.27855 -11.27597 -11.26866 -11.26857 -11.21117
 Alpha  occ. eigenvalues --  -11.20742 -11.20685 -11.20544 -11.20389 -11.19674
 Alpha  occ. eigenvalues --   -1.60004  -1.39560  -1.19464  -1.08869  -1.07659
 Alpha  occ. eigenvalues --   -1.04860  -1.02674  -0.95716  -0.95131  -0.86262
 Alpha  occ. eigenvalues --   -0.86165  -0.82546  -0.78782  -0.77600  -0.77421
 Alpha  occ. eigenvalues --   -0.72213  -0.71315  -0.70573  -0.65122  -0.64863
 Alpha  occ. eigenvalues --   -0.64307  -0.62207  -0.60093  -0.58528  -0.56680
 Alpha  occ. eigenvalues --   -0.55364  -0.54463  -0.53192  -0.52952  -0.51784
 Alpha  occ. eigenvalues --   -0.51562  -0.49137  -0.48958  -0.48936  -0.47070
 Alpha  occ. eigenvalues --   -0.45855  -0.45078  -0.44934  -0.44807  -0.42920
 Alpha  occ. eigenvalues --   -0.37443  -0.36462
 Alpha virt. eigenvalues --    0.04922   0.11193   0.16412   0.21285   0.23542
 Alpha virt. eigenvalues --    0.25101   0.27196   0.27382   0.27988   0.28331
 Alpha virt. eigenvalues --    0.28973   0.30896   0.32064   0.32350   0.32619

 Mulliken charges:
               1
     1  C   -0.297949
     2  C   -0.295262
     3  C   -0.482827
     4  H    0.147547
     5  H    0.144997
     6  H    0.153968
     7  H    0.152709
     8  H    0.144785
     9  H    0.147939
    10  H    0.185661
    11  C   -0.297192
    12  C   -0.298822
    13  C   -0.475156
    14  H    0.150052
    15  H    0.147308
    16  H    0.151449
    17  H    0.149930
    18  H    0.153709
    19  H    0.155245
    20  H    0.158386
    21  C   -0.170602
    22  C   -0.218598
    23  C   -0.170519
    24  C    0.157557
    25  C   -0.170983
    26  C   -0.218546
    27  H    0.226000
    28  H    0.223824
    29  H    0.275885
    30  H    0.275981
    31  H    0.223848
    32  N    0.494031
    33  O   -0.465481
    34  O   -0.458874
 Sum of Mulliken charges =  -0.00000

 Dipole moment (field-independent basis, Debye):
    X=              3.6241    Y=             -3.4963    Z=              1.8005  Tot=              5.3479
 Quadrupole moment (field-independent basis, Debye-Ang):
   XX=            -74.6801   YY=            -96.5147   ZZ=            -92.1785
   XY=            -11.8285   XZ=              3.0627   YZ=             -0.1267

 Normal termination of Gaussian 16 at Thu May  6 07:32:42 2021.
