 Gaussian 16, Revision A.03,
 Gaussian 16:  EM64L-G16RevA.03 25-Dec-2016

 -------------
 #p 6-31g* mp2
 -------------

 ------------------------------------------------------
 Input file generated by CHIRIPA (05-May-2021 14:55:22)
 ------------------------------------------------------
 Symbolic Z-matrix:
 Charge =  0 Multiplicity = 1

                         Standard orientation:
 ---------------------------------------------------------------------
 Center     Atomic      Atomic             Coordinates (Angstroms)
 Number     Number       Type             X           Y           Z
 ---------------------------------------------------------------------
      1          6           0        3.285690    1.936627    1.060281
      2          6           0        1.947796    1.886266    0.655283
      3          6           0        1.441810    0.750660    0.015810
      4          6           0        2.305592   -0.321243   -0.203728
      5          6           0        3.643306   -0.301338    0.187954
      6          6           0        4.127691    0.844590    0.825737
      7          1           0        3.670362    2.822803    1.556383
      8          1           0        1.291586    2.732865    0.836124
      9          1           0        0.410237    0.684960   -0.308163
     10          1           0        4.273205   -1.160982   -0.006102
     11          1           0        5.167155    0.880902    1.139170
     12          7           0        1.781361   -1.528922   -0.879815
     13          8           0        2.562821   -2.460004   -1.061591
     14          8           0        0.598936   -1.521550   -1.215155
     15          6           0       -2.734620   -0.522164    0.244415
     16          6           0       -3.684847   -1.547519    0.863850
     17          6           0       -3.015830   -2.900064    1.110489
     18          1           0       -2.345047   -0.918394   -0.703309
     19          1           0       -1.868268   -0.388366    0.906931
     20          1           0       -4.549819   -1.678314    0.201030
     21          1           0       -4.072351   -1.148722    1.810114
     22          1           0       -2.164223   -2.790460    1.789719
     23          1           0       -2.644404   -3.323062    0.171492
     24          1           0       -3.713040   -3.617954    1.553651
     25          6           0       -3.388878    0.835002   -0.008125
     26          6           0       -2.438651    1.860358   -0.627560
     27          6           0       -3.107668    3.212903   -0.874200
     28          1           0       -4.255229    0.701206   -0.670642
     29          1           0       -3.778450    1.231232    0.939599
     30          1           0       -2.051147    1.461561   -1.573826
     31          1           0       -1.573678    1.991154    0.035259
     32          1           0       -3.479094    3.635901    0.064798
     33          1           0       -3.959275    3.103299   -1.553430
     34          1           0       -2.410458    3.930793   -1.317362
 ---------------------------------------------------------------------

 SCF Done:  E(RHF) =  -669.535520082     A.U. after   15 cycles
 E2 =    -0.2093051877D+01 EUMP2 =    -0.67162857195835D+03

 The electronic state is 1-A.
 Alpha  occ. eigenvalues --  -20.60775 -20.60769 -15.85817 -11.31128 -11.27719
 Alpha  occ. eigenvalues --  -11.27625 -11.27464 -11.26730 -11.26706 -11.22027
 Alpha  occ. eigenvalues --  -11.21417 -11.21368 -11.21171 -11.20931 -11.20411
 Alpha  occ. eigenvalues --   -1.59842  -1.39397  -1.19310  -1.08720  -1.08328
 Alpha  occ. eigenvalues --   -1.04709  -1.03425  -0.95828  -0.95558  -0.86852
 Alpha  occ. eigenvalues --   -0.86110  -0.82397  -0.79600  -0.78135  -0.77351
 Alpha  occ. eigenvalues --   -0.72039  -0.71159  -0.70427  -0.65040  -0.64907
 Alpha  occ. eigenvalues --   -0.64704  -0.62074  -0.60815  -0.59261  -0.57433
 Alpha  occ. eigenvalues --   -0.55226  -0.55093  -0.53044  -0.52850  -0.52544
 Alpha  occ. eigenvalues --   -0.52229  -0.49772  -0.48804  -0.48796  -0.47844
 Alpha  occ. eigenvalues --   -0.46630  -0.45601  -0.45422  -0.44762  -0.43649
 Alpha  occ. eigenvalues --   -0.37302  -0.36308
 Alpha virt. eigenvalues --    0.05065   0.11300   0.16563   0.20215   0.23177
 Alpha virt. eigenvalues --    0.24287   0.25345   0.26232   0.27682   0.28246
 Alpha virt. eigenvalues --    0.29289   0.31044   0.31687   0.31836   0.32081

 Mulliken charges:
               1
     1  C   -0.170334
     2  C   -0.223605
     3  C   -0.180228
     4  C    0.157215
     5  C   -0.170064
     6  C   -0.219273
     7  H    0.225370
     8  H    0.223949
     9  H    0.291466
    10  H    0.275290
    11  H    0.223232
    12  N    0.490053
    13  O   -0.460357
    14  O   -0.463234
    15  C   -0.304330
    16  C   -0.300137
    17  C   -0.475448
    18  H    0.170784
    19  H    0.143378
    20  H    0.151077
    21  H    0.147738
    22  H    0.154020
    23  H    0.165623
    24  H    0.156854
    25  C   -0.297230
    26  C   -0.306189
    27  C   -0.474768
    28  H    0.151792
    29  H    0.147563
    30  H    0.159609
    31  H    0.137921
    32  H    0.155110
    33  H    0.159396
    34  H    0.157758
 Sum of Mulliken charges =  -0.00000

 Dipole moment (field-independent basis, Debye):
    X=              1.7765    Y=              4.0975    Z=              2.2245  Tot=              4.9894
 Quadrupole moment (field-independent basis, Debye-Ang):
   XX=            -82.2477   YY=            -98.1111   ZZ=            -95.7810
   XY=              7.6940   XZ=              6.2853   YZ=             -1.1225

 Normal termination of Gaussian 16 at Wed May  5 17:30:29 2021.
