 Gaussian 16, Revision A.03,
 Gaussian 16:  EM64L-G16RevA.03 25-Dec-2016

 -------------
 #p 6-31g* mp2
 -------------

 ------------------------------------------------------
 Input file generated by CHIRIPA (05-May-2021 14:57:26)
 ------------------------------------------------------
 Symbolic Z-matrix:
 Charge =  0 Multiplicity = 1

                         Standard orientation:
 ---------------------------------------------------------------------
 Center     Atomic      Atomic             Coordinates (Angstroms)
 Number     Number       Type             X           Y           Z
 ---------------------------------------------------------------------
      1          6           0        3.024259    2.207479    0.323572
      2          6           0        2.460884    1.572732    1.435429
      3          6           0        2.085152    0.227688    1.370395
      4          6           0        2.287985   -0.455471    0.172295
      5          6           0        2.846849    0.149055   -0.952653
      6          6           0        3.215107    1.494871   -0.864826
      7          1           0        3.313234    3.252641    0.382945
      8          1           0        2.311495    2.123672    2.359655
      9          1           0        1.646851   -0.288318    2.216000
     10          1           0        2.983402   -0.426296   -1.860256
     11          1           0        3.652406    1.985244   -1.729897
     12          7           0        1.894170   -1.879818    0.091382
     13          8           0        2.083306   -2.459607   -0.975721
     14          8           0        1.403820   -2.389461    1.096597
     15          6           0       -2.588307   -2.285840   -0.019348
     16          6           0       -3.386426   -1.453733    0.772564
     17          6           0       -3.264541   -0.063530    0.688734
     18          6           0       -2.330131    0.463047   -0.201707
     19          6           0       -1.520564   -0.339617   -1.003967
     20          6           0       -1.659561   -1.727111   -0.903527
     21          1           0       -2.689636   -3.364730    0.052225
     22          1           0       -4.108543   -1.884866    1.460108
     23          1           0       -3.869729    0.603939    1.290107
     24          1           0       -0.809568    0.119490   -1.680076
     25          1           0       -1.038400   -2.370896   -1.519763
     26          7           0       -2.192040    1.933359   -0.299245
     27          8           0       -1.361354    2.372510   -1.091550
     28          8           0       -2.917103    2.618798    0.418454
 ---------------------------------------------------------------------

 SCF Done:  E(RHF) =  -868.340486592     A.U. after   16 cycles
 E2 =    -0.2601102582D+01 EUMP2 =    -0.87094158917390D+03

 The electronic state is 1-A.
 Alpha  occ. eigenvalues --  -20.61253 -20.61199 -20.60635 -20.60630 -15.86235
 Alpha  occ. eigenvalues --  -15.85676 -11.31258 -11.30784 -11.27794 -11.27753
 Alpha  occ. eigenvalues --  -11.27384 -11.27331 -11.27268 -11.26891 -11.26688
 Alpha  occ. eigenvalues --  -11.26664 -11.26272 -11.26091  -1.60298  -1.59717
 Alpha  occ. eigenvalues --   -1.39860  -1.39276  -1.19376  -1.18903  -1.08824
 Alpha  occ. eigenvalues --   -1.08319  -1.04726  -1.04266  -0.95726  -0.95214
 Alpha  occ. eigenvalues --   -0.86138  -0.85651  -0.82579  -0.82062  -0.77679
 Alpha  occ. eigenvalues --   -0.77162  -0.72476  -0.71904  -0.71623  -0.71034
 Alpha  occ. eigenvalues --   -0.70461  -0.69971  -0.65028  -0.64719  -0.64540
 Alpha  occ. eigenvalues --   -0.64215  -0.62090  -0.61604  -0.55204  -0.54708
 Alpha  occ. eigenvalues --   -0.53091  -0.52813  -0.52589  -0.52292  -0.49254
 Alpha  occ. eigenvalues --   -0.49205  -0.48672  -0.48632  -0.45340  -0.44739
 Alpha  occ. eigenvalues --   -0.37355  -0.36768  -0.36299  -0.35840
 Alpha virt. eigenvalues --    0.04723   0.05414   0.11315   0.11806   0.16405
 Alpha virt. eigenvalues --    0.16924   0.21512   0.22091   0.27394   0.27827
 Alpha virt. eigenvalues --    0.28490   0.28832   0.31163   0.31715   0.32524

 Mulliken charges:
               1
     1  C   -0.164311
     2  C   -0.216369
     3  C   -0.171389
     4  C    0.157187
     5  C   -0.175661
     6  C   -0.214302
     7  H    0.229406
     8  H    0.225904
     9  H    0.274544
    10  H    0.272672
    11  H    0.225251
    12  N    0.488179
    13  O   -0.468990
    14  O   -0.459041
    15  C   -0.164923
    16  C   -0.218730
    17  C   -0.173350
    18  C    0.157998
    19  C   -0.180023
    20  C   -0.220370
    21  H    0.229741
    22  H    0.222115
    23  H    0.272486
    24  H    0.272295
    25  H    0.239025
    26  N    0.488012
    27  O   -0.463949
    28  O   -0.463410
 Sum of Mulliken charges =  -0.00000

 Dipole moment (field-independent basis, Debye):
    X=              1.0469    Y=             -0.1747    Z=              0.7087  Tot=              1.2763
 Quadrupole moment (field-independent basis, Debye-Ang):
   XX=            -94.2923   YY=           -114.7808   ZZ=            -98.4554
   XY=             23.7455   XZ=             -4.2205   YZ=              2.6473

 Normal termination of Gaussian 16 at Fri May  7 06:39:08 2021.
