 Gaussian 16, Revision A.03,
 Gaussian 16:  EM64L-G16RevA.03 25-Dec-2016

 -------------
 #p 6-31g* mp2
 -------------

 ------------------------------------------------------
 Input file generated by CHIRIPA (05-May-2021 14:57:25)
 ------------------------------------------------------
 Symbolic Z-matrix:
 Charge =  0 Multiplicity = 1

                         Standard orientation:
 ---------------------------------------------------------------------
 Center     Atomic      Atomic             Coordinates (Angstroms)
 Number     Number       Type             X           Y           Z
 ---------------------------------------------------------------------
      1          6           0        3.343702    2.732416   -0.158707
      2          6           0        4.545938    2.032522   -0.012767
      3          6           0        4.551959    0.635615    0.043472
      4          6           0        3.331982   -0.032412   -0.049717
      5          6           0        2.117672    0.636510   -0.195609
      6          6           0        2.135536    2.033408   -0.249502
      7          1           0        3.348303    3.817563   -0.201483
      8          1           0        5.485719    2.572753    0.057998
      9          1           0        5.468138    0.068722    0.156023
     10          1           0        1.196690    0.070293   -0.263493
     11          1           0        1.200338    2.574328   -0.362886
     12          7           0        3.325713   -1.511250    0.008579
     13          8           0        2.237539   -2.076407   -0.075766
     14          8           0        4.409091   -2.077205    0.137511
     15          6           0       -5.485549    1.091416   -0.128837
     16          6           0       -4.972603    0.422053   -1.244794
     17          6           0       -3.780751   -0.302824   -1.152112
     18          6           0       -3.124916   -0.337261    0.077516
     19          6           0       -3.610579    0.319146    1.207361
     20          6           0       -4.804102    1.037920    1.091528
     21          1           0       -6.412057    1.652146   -0.209826
     22          1           0       -5.499687    0.461854   -2.193817
     23          1           0       -3.361236   -0.830283   -2.000176
     24          1           0       -3.062636    0.261090    2.139994
     25          1           0       -5.200114    1.556786    1.959858
     26          7           0       -1.862271   -1.101426    0.187889
     27          8           0       -1.303493   -1.116247    1.282505
     28          8           0       -1.455298   -1.671087   -0.822307
 ---------------------------------------------------------------------

 SCF Done:  E(RHF) =  -868.336512181     A.U. after   15 cycles
 E2 =    -0.2600505380D+01 EUMP2 =    -0.87093701756077D+03

 The electronic state is 1-A.
 Alpha  occ. eigenvalues --  -20.60909 -20.60883 -20.59533 -20.59413 -15.85940
 Alpha  occ. eigenvalues --  -15.84530 -11.31408 -11.30179 -11.27985 -11.27971
 Alpha  occ. eigenvalues --  -11.27731 -11.27007 -11.26993 -11.26868 -11.26702
 Alpha  occ. eigenvalues --  -11.26692 -11.25945 -11.25906  -1.59973  -1.58562
 Alpha  occ. eigenvalues --   -1.39516  -1.38094  -1.19586  -1.18413  -1.08959
 Alpha  occ. eigenvalues --   -1.07773  -1.04994  -1.03860  -0.95768  -0.94544
 Alpha  occ. eigenvalues --   -0.86385  -0.85245  -0.82592  -0.81368  -0.77635
 Alpha  occ. eigenvalues --   -0.76342  -0.72101  -0.71361  -0.70734  -0.70675
 Alpha  occ. eigenvalues --   -0.69902  -0.69520  -0.65225  -0.64983  -0.64062
 Alpha  occ. eigenvalues --   -0.63885  -0.62332  -0.61181  -0.55480  -0.54396
 Alpha  occ. eigenvalues --   -0.53332  -0.53076  -0.52185  -0.51961  -0.48871
 Alpha  occ. eigenvalues --   -0.48858  -0.47563  -0.47451  -0.44899  -0.43437
 Alpha  occ. eigenvalues --   -0.37579  -0.36606  -0.36446  -0.35475
 Alpha virt. eigenvalues --    0.04835   0.06185   0.11046   0.12176   0.16319
 Alpha virt. eigenvalues --    0.17592   0.21206   0.22199   0.27130   0.27909
 Alpha virt. eigenvalues --    0.28185   0.29119   0.30770   0.31737   0.32359

 Mulliken charges:
               1
     1  C   -0.171520
     2  C   -0.219708
     3  C   -0.171257
     4  C    0.155406
     5  C   -0.171130
     6  C   -0.220622
     7  H    0.220795
     8  H    0.219559
     9  H    0.273490
    10  H    0.290174
    11  H    0.217693
    12  N    0.485348
    13  O   -0.443390
    14  O   -0.468944
    15  C   -0.171066
    16  C   -0.218744
    17  C   -0.171958
    18  C    0.156970
    19  C   -0.172508
    20  C   -0.218824
    21  H    0.226115
    22  H    0.224279
    23  H    0.277184
    24  H    0.276169
    25  H    0.223839
    26  N    0.482448
    27  O   -0.457098
    28  O   -0.452701
 Sum of Mulliken charges =  -0.00000

 Dipole moment (field-independent basis, Debye):
    X=             -4.7907    Y=              7.5869    Z=             -0.6000  Tot=              8.9929
 Quadrupole moment (field-independent basis, Debye-Ang):
   XX=            -73.8189   YY=           -108.3306   ZZ=           -101.0216
   XY=             10.1606   XZ=              1.2412   YZ=              1.6037

 Normal termination of Gaussian 16 at Fri May  7 08:07:46 2021.
