 Gaussian 16, Revision A.03,
 Gaussian 16:  EM64L-G16RevA.03 25-Dec-2016

 -------------
 #p 6-31g* mp2
 -------------

 ------------------------------------------------------
 Input file generated by CHIRIPA (05-May-2021 14:57:23)
 ------------------------------------------------------
 Symbolic Z-matrix:
 Charge =  0 Multiplicity = 1

                         Standard orientation:
 ---------------------------------------------------------------------
 Center     Atomic      Atomic             Coordinates (Angstroms)
 Number     Number       Type             X           Y           Z
 ---------------------------------------------------------------------
      1          6           0        3.913083   -2.192367    0.327376
      2          6           0        4.775893   -1.302899   -0.321413
      3          6           0        4.445763    0.050836   -0.435268
      4          6           0        3.239407    0.482851    0.113692
      5          6           0        2.358811   -0.378752    0.765981
      6          6           0        2.709417   -1.728273    0.868049
      7          1           0        4.177489   -3.242344    0.411244
      8          1           0        5.711334   -1.660512   -0.742257
      9          1           0        5.095230    0.761134   -0.932347
     10          1           0        1.433251    0.007334    1.175486
     11          1           0        2.037409   -2.416770    1.372451
     12          7           0        2.879074    1.913759   -0.000602
     13          8           0        1.810419    2.269373    0.491487
     14          8           0        3.672124    2.652595   -0.580110
     15          6           0       -1.597124   -2.065414   -0.537107
     16          6           0       -2.928876   -2.399763   -0.270341
     17          6           0       -3.880266   -1.400530   -0.044639
     18          6           0       -3.463305   -0.071224   -0.093417
     19          6           0       -2.143942    0.293779   -0.356744
     20          6           0       -1.209589   -0.722079   -0.579383
     21          1           0       -0.864679   -2.848099   -0.711249
     22          1           0       -3.232694   -3.442174   -0.236893
     23          1           0       -4.917878   -1.631240    0.164054
     24          1           0       -1.871147    1.341767   -0.383599
     25          1           0       -0.176026   -0.459469   -0.786331
     26          7           0       -4.461480    0.995419    0.143903
     27          8           0       -4.068754    2.159057    0.095452
     28          8           0       -5.617675    0.647617    0.373871
 ---------------------------------------------------------------------

 SCF Done:  E(RHF) =  -868.337487097     A.U. after   16 cycles
 E2 =    -0.2600898233D+01 EUMP2 =    -0.87093838532954D+03

 The electronic state is 1-A.
 Alpha  occ. eigenvalues --  -20.61549 -20.61518 -20.60625 -20.60600 -15.86589
 Alpha  occ. eigenvalues --  -15.85671 -11.32063 -11.31150 -11.28632 -11.28582
 Alpha  occ. eigenvalues --  -11.28355 -11.27786 -11.27691 -11.27664 -11.27608
 Alpha  occ. eigenvalues --  -11.27605 -11.26846 -11.26742  -1.60607  -1.59690
 Alpha  occ. eigenvalues --   -1.40159  -1.39238  -1.20239  -1.19360  -1.09602
 Alpha  occ. eigenvalues --   -1.08756  -1.05651  -1.04764  -0.96420  -0.95556
 Alpha  occ. eigenvalues --   -0.87040  -0.86170  -0.83241  -0.82374  -0.78294
 Alpha  occ. eigenvalues --   -0.77375  -0.72791  -0.71943  -0.71887  -0.71319
 Alpha  occ. eigenvalues --   -0.71017  -0.70490  -0.65874  -0.65652  -0.65009
 Alpha  occ. eigenvalues --   -0.64785  -0.62989  -0.62048  -0.56114  -0.55335
 Alpha  occ. eigenvalues --   -0.54011  -0.53731  -0.53108  -0.52783  -0.49560
 Alpha  occ. eigenvalues --   -0.49548  -0.48663  -0.48629  -0.45538  -0.44617
 Alpha  occ. eigenvalues --   -0.38213  -0.37468  -0.37205  -0.36358
 Alpha virt. eigenvalues --    0.04204   0.05123   0.10249   0.11226   0.15692
 Alpha virt. eigenvalues --    0.16503   0.20317   0.21718   0.26278   0.26949
 Alpha virt. eigenvalues --    0.27971   0.28184   0.30083   0.31052   0.32042

 Mulliken charges:
               1
     1  C   -0.170795
     2  C   -0.217638
     3  C   -0.170019
     4  C    0.159007
     5  C   -0.182631
     6  C   -0.222991
     7  H    0.227674
     8  H    0.226765
     9  H    0.278627
    10  H    0.279331
    11  H    0.224329
    12  N    0.488284
    13  O   -0.462051
    14  O   -0.455417
    15  C   -0.175217
    16  C   -0.218731
    17  C   -0.170617
    18  C    0.158542
    19  C   -0.171750
    20  C   -0.228758
    21  H    0.220688
    22  H    0.221896
    23  H    0.275764
    24  H    0.287222
    25  H    0.228438
    26  N    0.487711
    27  O   -0.455864
    28  O   -0.461797
 Sum of Mulliken charges =  -0.00000

 Dipole moment (field-independent basis, Debye):
    X=              4.9932    Y=             -8.5959    Z=             -0.4482  Tot=              9.9510
 Quadrupole moment (field-independent basis, Debye-Ang):
   XX=           -114.0060   YY=           -107.4331   ZZ=           -104.7652
   XY=              0.2929   XZ=              1.0408   YZ=             -1.0679

 Normal termination of Gaussian 16 at Thu May  6 09:45:15 2021.
