 Gaussian 16, Revision A.03,
 Gaussian 16:  EM64L-G16RevA.03 25-Dec-2016

 -------------
 #p 6-31g* mp2
 -------------

 ------------------------------------------------------
 Input file generated by CHIRIPA (05-May-2021 14:57:24)
 ------------------------------------------------------
 Symbolic Z-matrix:
 Charge =  0 Multiplicity = 1

                         Standard orientation:
 ---------------------------------------------------------------------
 Center     Atomic      Atomic             Coordinates (Angstroms)
 Number     Number       Type             X           Y           Z
 ---------------------------------------------------------------------
      1          6           0        3.733737    2.484826    0.244787
      2          6           0        3.231202    2.020938   -0.975373
      3          6           0        2.875909    0.677934   -1.132386
      4          6           0        3.036919   -0.177435   -0.043483
      5          6           0        3.534879    0.254549    1.184815
      6          6           0        3.883707    1.601708    1.319092
      7          1           0        4.007226    3.529718    0.357927
      8          1           0        3.113661    2.704513   -1.811408
      9          1           0        2.484458    0.292161   -2.065854
     10          1           0        3.640754   -0.450753    2.000141
     11          1           0        4.273730    1.959176    2.267851
     12          7           0        2.664208   -1.601413   -0.197671
     13          8           0        2.815595   -2.334833    0.776913
     14          8           0        2.227748   -1.957144   -1.290189
     15          6           0       -4.760220    1.840380    0.073615
     16          6           0       -5.173101    0.539161    0.378375
     17          6           0       -4.260941   -0.519967    0.350772
     18          6           0       -2.937682   -0.240710    0.012701
     19          6           0       -2.495723    1.044872   -0.295914
     20          6           0       -3.425203    2.088645   -0.261966
     21          1           0       -5.475535    2.657172    0.097522
     22          1           0       -6.209259    0.343404    0.639335
     23          1           0       -4.553582   -1.536906    0.582317
     24          1           0       -1.456151    1.208918   -0.552425
     25          1           0       -3.101724    3.098185   -0.499107
     26          7           0       -1.962852   -1.353833   -0.019880
     27          8           0       -0.802697   -1.081556   -0.320785
     28          8           0       -2.377393   -2.477499    0.256105
 ---------------------------------------------------------------------

 SCF Done:  E(RHF) =  -868.336043249     A.U. after   16 cycles
 E2 =    -0.2601004868D+01 EUMP2 =    -0.87093704811630D+03

 The electronic state is 1-A.
 Alpha  occ. eigenvalues --  -20.60343 -20.60332 -20.59528 -20.59445 -15.85411
 Alpha  occ. eigenvalues --  -15.84561 -11.31005 -11.30410 -11.27629 -11.27581
 Alpha  occ. eigenvalues --  -11.27389 -11.27043 -11.27040 -11.26922 -11.26693
 Alpha  occ. eigenvalues --  -11.26649 -11.26215 -11.26187  -1.59402  -1.58518
 Alpha  occ. eigenvalues --   -1.38958  -1.38076  -1.19200  -1.18637  -1.08549
 Alpha  occ. eigenvalues --   -1.07943  -1.04642  -1.04127  -0.95345  -0.94699
 Alpha  occ. eigenvalues --   -0.86028  -0.85498  -0.82186  -0.81549  -0.77198
 Alpha  occ. eigenvalues --   -0.76492  -0.71686  -0.70809  -0.70736  -0.70316
 Alpha  occ. eigenvalues --   -0.69763  -0.69730  -0.64849  -0.64649  -0.64291
 Alpha  occ. eigenvalues --   -0.64150  -0.61991  -0.61469  -0.55132  -0.54634
 Alpha  occ. eigenvalues --   -0.52954  -0.52742  -0.52421  -0.52234  -0.48373
 Alpha  occ. eigenvalues --   -0.48355  -0.47573  -0.47511  -0.44323  -0.43346
 Alpha  occ. eigenvalues --   -0.37192  -0.36642  -0.36256  -0.35761
 Alpha virt. eigenvalues --    0.05332   0.06116   0.11396   0.11885   0.16799
 Alpha virt. eigenvalues --    0.17482   0.21478   0.21927   0.27350   0.27787
 Alpha virt. eigenvalues --    0.28371   0.28895   0.30968   0.31440   0.32565

 Mulliken charges:
               1
     1  C   -0.173410
     2  C   -0.221610
     3  C   -0.170442
     4  C    0.165254
     5  C   -0.171477
     6  C   -0.219173
     7  H    0.221149
     8  H    0.218569
     9  H    0.276325
    10  H    0.275354
    11  H    0.220368
    12  N    0.494160
    13  O   -0.463169
    14  O   -0.451593
    15  C   -0.171495
    16  C   -0.218426
    17  C   -0.170848
    18  C    0.159389
    19  C   -0.171247
    20  C   -0.218404
    21  H    0.224346
    22  H    0.223125
    23  H    0.276674
    24  H    0.272633
    25  H    0.220553
    26  N    0.489378
    27  O   -0.459766
    28  O   -0.456219
 Sum of Mulliken charges =  -0.00000

 Dipole moment (field-independent basis, Debye):
    X=             -2.2647    Y=              8.5456    Z=              0.6067  Tot=              8.8614
 Quadrupole moment (field-independent basis, Debye-Ang):
   XX=            -75.7252   YY=           -107.6426   ZZ=           -101.0174
   XY=              6.2950   XZ=              1.4472   YZ=             -2.0877

 Normal termination of Gaussian 16 at Fri May  7 03:23:56 2021.
