 Gaussian 16, Revision A.03,
 Gaussian 16:  EM64L-G16RevA.03 25-Dec-2016

 -------------
 #p 6-31g* mp2
 -------------

 ------------------------------------------------------
 Input file generated by CHIRIPA (05-May-2021 14:57:23)
 ------------------------------------------------------
 Symbolic Z-matrix:
 Charge =  0 Multiplicity = 1

                         Standard orientation:
 ---------------------------------------------------------------------
 Center     Atomic      Atomic             Coordinates (Angstroms)
 Number     Number       Type             X           Y           Z
 ---------------------------------------------------------------------
      1          6           0       -3.955652    2.069114    1.101066
      2          6           0       -4.148299    1.849654   -0.266869
      3          6           0       -3.655538    0.692065   -0.876560
      4          6           0       -2.971692   -0.229150   -0.084722
      5          6           0       -2.763646   -0.039026    1.280510
      6          6           0       -3.265158    1.125736    1.869036
      7          1           0       -4.341840    2.971143    1.566467
      8          1           0       -4.684166    2.580564   -0.865753
      9          1           0       -3.790466    0.496994   -1.933517
     10          1           0       -2.225461   -0.785853    1.851496
     11          1           0       -3.114056    1.293533    2.931607
     12          7           0       -2.445395   -1.458435   -0.718971
     13          8           0       -1.846308   -2.254645    0.000599
     14          8           0       -2.641937   -1.602462   -1.923655
     15          6           0        3.931153    2.295406   -0.695512
     16          6           0        4.611743    1.541634    0.266335
     17          6           0        4.137324    0.283263    0.648405
     18          6           0        2.974060   -0.192795    0.045514
     19          6           0        2.273605    0.534332   -0.915702
     20          6           0        2.766310    1.790239   -1.282425
     21          1           0        4.306795    3.271981   -0.986351
     22          1           0        5.516625    1.931432    0.723817
     23          1           0        4.644477   -0.321348    1.390469
     24          1           0        1.374206    0.119204   -1.354072
     25          1           0        2.235687    2.373420   -2.029676
     26          7           0        2.462134   -1.523673    0.441871
     27          8           0        1.435075   -1.920658   -0.104194
     28          8           0        3.097641   -2.144628    1.291096
 ---------------------------------------------------------------------

 SCF Done:  E(RHF) =  -868.335601635     A.U. after   16 cycles
 E2 =    -0.2600635226D+01 EUMP2 =    -0.87093623686181D+03

 The electronic state is 1-A.
 Alpha  occ. eigenvalues --  -20.60195 -20.60193 -20.60094 -20.60032 -15.85191
 Alpha  occ. eigenvalues --  -15.85160 -11.30869 -11.30849 -11.27505 -11.27462
 Alpha  occ. eigenvalues --  -11.27433 -11.27425 -11.27284 -11.27257 -11.26584
 Alpha  occ. eigenvalues --  -11.26538 -11.26535 -11.26524  -1.59229  -1.59181
 Alpha  occ. eigenvalues --   -1.38775  -1.38715  -1.19075  -1.19053  -1.08411
 Alpha  occ. eigenvalues --   -1.08395  -1.04520  -1.04494  -0.95203  -0.95157
 Alpha  occ. eigenvalues --   -0.85900  -0.85879  -0.82044  -0.81960  -0.77029
 Alpha  occ. eigenvalues --   -0.76973  -0.71512  -0.71267  -0.70611  -0.70458
 Alpha  occ. eigenvalues --   -0.70171  -0.70151  -0.64720  -0.64681  -0.64520
 Alpha  occ. eigenvalues --   -0.64499  -0.61853  -0.61834  -0.55012  -0.54992
 Alpha  occ. eigenvalues --   -0.52849  -0.52813  -0.52608  -0.52587  -0.48234
 Alpha  occ. eigenvalues --   -0.48154  -0.48129  -0.48107  -0.44282  -0.43842
 Alpha  occ. eigenvalues --   -0.37090  -0.37051  -0.36147  -0.36113
 Alpha virt. eigenvalues --    0.05429   0.05630   0.11494   0.11544   0.16862
 Alpha virt. eigenvalues --    0.17066   0.21610   0.21659   0.27521   0.27528
 Alpha virt. eigenvalues --    0.28489   0.28606   0.31027   0.31271   0.32749

 Mulliken charges:
               1
     1  C   -0.172260
     2  C   -0.219187
     3  C   -0.173761
     4  C    0.157270
     5  C   -0.171560
     6  C   -0.219090
     7  H    0.223678
     8  H    0.221185
     9  H    0.274055
    10  H    0.280701
    11  H    0.222958
    12  N    0.486160
    13  O   -0.442533
    14  O   -0.467104
    15  C   -0.171946
    16  C   -0.218727
    17  C   -0.171867
    18  C    0.158263
    19  C   -0.172252
    20  C   -0.218765
    21  H    0.223655
    22  H    0.221896
    23  H    0.275033
    24  H    0.278114
    25  H    0.221968
    26  N    0.486221
    27  O   -0.447286
    28  O   -0.464818
 Sum of Mulliken charges =  -0.00000

 Dipole moment (field-independent basis, Debye):
    X=             -0.0592    Y=              8.7057    Z=              0.8939  Tot=              8.7517
 Quadrupole moment (field-independent basis, Debye-Ang):
   XX=            -81.8418   YY=           -109.3077   ZZ=           -100.2508
   XY=              0.2984   XZ=             -6.3160   YZ=             -2.3498

 Normal termination of Gaussian 16 at Thu May  6 08:10:17 2021.
