 Gaussian 16, Revision A.03,
 Gaussian 16:  EM64L-G16RevA.03 25-Dec-2016

 -------------
 #p 6-31g* mp2
 -------------

 ------------------------------------------------------
 Input file generated by CHIRIPA (05-May-2021 14:57:23)
 ------------------------------------------------------
 Symbolic Z-matrix:
 Charge =  0 Multiplicity = 1

                         Standard orientation:
 ---------------------------------------------------------------------
 Center     Atomic      Atomic             Coordinates (Angstroms)
 Number     Number       Type             X           Y           Z
 ---------------------------------------------------------------------
      1          6           0       -5.262172   -0.254259   -1.433772
      2          6           0       -4.151734    0.499381   -1.828076
      3          6           0       -3.045573    0.629418   -0.983064
      4          6           0       -3.083767   -0.010454    0.254836
      5          6           0       -4.175341   -0.768220    0.676198
      6          6           0       -5.270417   -0.884543   -0.185095
      7          1           0       -6.117159   -0.349948   -2.096522
      8          1           0       -4.142559    0.989969   -2.797243
      9          1           0       -2.172866    1.206777   -1.263166
     10          1           0       -4.155272   -1.245660    1.648343
     11          1           0       -6.131431   -1.470467    0.123763
     12          7           0       -1.918591    0.119951    1.158030
     13          8           0       -1.976906   -0.453572    2.243529
     14          8           0       -0.969075    0.793216    0.763354
     15          6           0        2.585142    2.416860    0.342465
     16          6           0        3.205344    2.083155   -0.866052
     17          6           0        3.592275    0.764961   -1.125270
     18          6           0        3.342572   -0.198618   -0.149332
     19          6           0        2.726609    0.102533    1.064417
     20          6           0        2.348172    1.427229    1.302150
     21          1           0        2.287864    3.443390    0.535488
     22          1           0        3.390636    2.849643   -1.613185
     23          1           0        4.074144    0.478977   -2.052326
     24          1           0        2.555158   -0.683385    1.789920
     25          1           0        1.866696    1.683490    2.241595
     26          7           0        3.747702   -1.597573   -0.412383
     27          8           0        3.516521   -2.428043    0.463694
     28          8           0        4.288754   -1.837113   -1.489657
 ---------------------------------------------------------------------

 SCF Done:  E(RHF) =  -868.338881600     A.U. after   16 cycles
 E2 =    -0.2599488954D+01 EUMP2 =    -0.87093837055334D+03

 The electronic state is 1-A.
 Alpha  occ. eigenvalues --  -20.61267 -20.61257 -20.59884 -20.59865 -15.86290
 Alpha  occ. eigenvalues --  -15.84918 -11.31496 -11.30035 -11.28059 -11.28036
 Alpha  occ. eigenvalues --  -11.27761 -11.27034 -11.27015 -11.26626 -11.26436
 Alpha  occ. eigenvalues --  -11.26257 -11.25668 -11.25400  -1.60338  -1.58957
 Alpha  occ. eigenvalues --   -1.39893  -1.38517  -1.19655  -1.18165  -1.09083
 Alpha  occ. eigenvalues --   -1.07623  -1.05036  -1.03518  -0.95946  -0.94503
 Alpha  occ. eigenvalues --   -0.86441  -0.84951  -0.82782  -0.81336  -0.77849
 Alpha  occ. eigenvalues --   -0.76411  -0.72531  -0.71639  -0.71148  -0.70764
 Alpha  occ. eigenvalues --   -0.70275  -0.69314  -0.65313  -0.65040  -0.63828
 Alpha  occ. eigenvalues --   -0.63542  -0.62387  -0.60886  -0.55545  -0.54083
 Alpha  occ. eigenvalues --   -0.53371  -0.53129  -0.51878  -0.51631  -0.49290
 Alpha  occ. eigenvalues --   -0.49264  -0.47912  -0.47881  -0.45330  -0.43977
 Alpha  occ. eigenvalues --   -0.37625  -0.36630  -0.36145  -0.35025
 Alpha virt. eigenvalues --    0.04670   0.06106   0.11028   0.12572   0.16201
 Alpha virt. eigenvalues --    0.17676   0.21179   0.22568   0.27089   0.28059
 Alpha virt. eigenvalues --    0.28541   0.29393   0.30750   0.32085   0.32264

 Mulliken charges:
               1
     1  C   -0.170049
     2  C   -0.218327
     3  C   -0.170492
     4  C    0.158186
     5  C   -0.170090
     6  C   -0.218430
     7  H    0.226852
     8  H    0.223965
     9  H    0.274518
    10  H    0.276347
    11  H    0.224780
    12  N    0.490412
    13  O   -0.460649
    14  O   -0.465909
    15  C   -0.172314
    16  C   -0.219877
    17  C   -0.174822
    18  C    0.156378
    19  C   -0.167960
    20  C   -0.196448
    21  H    0.221153
    22  H    0.216751
    23  H    0.269912
    24  H    0.276375
    25  H    0.228718
    26  N    0.487894
    27  O   -0.461227
    28  O   -0.465647
 Sum of Mulliken charges =  -0.00000

 Dipole moment (field-independent basis, Debye):
    X=             -5.9409    Y=              4.4706    Z=             -2.0184  Tot=              7.7042
 Quadrupole moment (field-independent basis, Debye-Ang):
   XX=            -89.3380   YY=           -106.3014   ZZ=           -100.8669
   XY=             20.5810   XZ=              9.5124   YZ=             -4.4874

 Normal termination of Gaussian 16 at Thu May  6 11:17:14 2021.
