 Gaussian 16, Revision A.03,
 Gaussian 16:  EM64L-G16RevA.03 25-Dec-2016

 -------------
 #p 6-31g* mp2
 -------------

 ------------------------------------------------------
 Input file generated by CHIRIPA (05-May-2021 14:53:12)
 ------------------------------------------------------
 Symbolic Z-matrix:
 Charge =  0 Multiplicity = 1

                         Standard orientation:
 ---------------------------------------------------------------------
 Center     Atomic      Atomic             Coordinates (Angstroms)
 Number     Number       Type             X           Y           Z
 ---------------------------------------------------------------------
      1          6           0        4.492136   -0.403837   -0.129594
      2          6           0        3.906109   -1.813383   -0.217552
      3          6           0        4.979577   -2.902034   -0.200233
      4          1           0        5.186533   -0.249416   -0.966799
      5          1           0        5.087420   -0.318497    0.790053
      6          1           0        3.310973   -1.895609   -1.136066
      7          1           0        3.212881   -1.964399    0.619851
      8          1           0        5.567524   -2.848674    0.721760
      9          1           0        5.666174   -2.779493   -1.044134
     10          1           0        4.538618   -3.901706   -0.264030
     11          6           0        3.431373    0.695366   -0.145790
     12          6           0        4.017400    2.104912   -0.057831
     13          6           0        2.943932    3.193563   -0.075150
     14          1           0        2.836089    0.610026   -1.065436
     15          1           0        2.736976    0.540945    0.691415
     16          1           0        4.710628    2.255928   -0.895235
     17          1           0        4.612536    2.187138    0.860683
     18          1           0        2.257335    3.071022    0.768751
     19          1           0        2.355984    3.140202   -0.997143
     20          1           0        3.384891    4.193235   -0.011353
     21          6           0       -0.651126    0.018331    0.720219
     22          6           0       -1.365812    1.186722    0.436304
     23          6           0       -2.720356    1.125408    0.095716
     24          6           0       -3.331397   -0.126660    0.048343
     25          6           0       -2.646377   -1.308617    0.325860
     26          6           0       -1.292559   -1.223419    0.664190
     27          1           0        0.400834    0.075238    0.983918
     28          1           0       -0.870260    2.152459    0.479035
     29          1           0       -3.297500    2.014179   -0.128807
     30          1           0       -3.167688   -2.256809    0.275028
     31          1           0       -0.740026   -2.132459    0.884186
     32          7           0       -4.765007   -0.204212   -0.311027
     33          8           0       -5.280270   -1.319530   -0.345809
     34          8           0       -5.346264    0.851788   -0.551113
 ---------------------------------------------------------------------

 SCF Done:  E(RHF) =  -669.535657135     A.U. after   15 cycles
 E2 =    -0.2091491730D+01 EUMP2 =    -0.67162714886495D+03

 The electronic state is 1-A.
 Alpha  occ. eigenvalues --  -20.60693 -20.60687 -15.85746 -11.31088 -11.27661
 Alpha  occ. eigenvalues --  -11.27656 -11.27344 -11.26659 -11.26643 -11.22634
 Alpha  occ. eigenvalues --  -11.22575 -11.22566 -11.22339 -11.22157 -11.21832
 Alpha  occ. eigenvalues --   -1.59769  -1.39323  -1.19258  -1.09472  -1.08650
 Alpha  occ. eigenvalues --   -1.04660  -1.04504  -0.96960  -0.95492  -0.87972
 Alpha  occ. eigenvalues --   -0.86054  -0.82330  -0.80578  -0.79319  -0.77380
 Alpha  occ. eigenvalues --   -0.71964  -0.71092  -0.70368  -0.66094  -0.64906
 Alpha  occ. eigenvalues --   -0.64659  -0.62014  -0.61888  -0.60323  -0.58584
 Alpha  occ. eigenvalues --   -0.56268  -0.55168  -0.53614  -0.53371  -0.52989
 Alpha  occ. eigenvalues --   -0.52743  -0.50893  -0.48890  -0.48721  -0.48720
 Alpha  occ. eigenvalues --   -0.47609  -0.46831  -0.46735  -0.44777  -0.44734
 Alpha  occ. eigenvalues --   -0.37224  -0.36270
 Alpha virt. eigenvalues --    0.05152   0.11381   0.16636   0.19008   0.22485
 Alpha virt. eigenvalues --    0.23046   0.24719   0.25859   0.26167   0.27982
 Alpha virt. eigenvalues --    0.30037   0.30373   0.30774   0.30961   0.31495

 Mulliken charges:
               1
     1  C   -0.298114
     2  C   -0.300262
     3  C   -0.476117
     4  H    0.154062
     5  H    0.151879
     6  H    0.154024
     7  H    0.144747
     8  H    0.156802
     9  H    0.158077
    10  H    0.161879
    11  C   -0.304368
    12  C   -0.299451
    13  C   -0.478006
    14  H    0.153203
    15  H    0.141420
    16  H    0.156833
    17  H    0.154803
    18  H    0.148250
    19  H    0.156866
    20  H    0.166001
    21  C   -0.175095
    22  C   -0.223317
    23  C   -0.170982
    24  C    0.158186
    25  C   -0.170913
    26  C   -0.221341
    27  H    0.235274
    28  H    0.225163
    29  H    0.275298
    30  H    0.275144
    31  H    0.223551
    32  N    0.488007
    33  O   -0.460775
    34  O   -0.460732
 Sum of Mulliken charges =  -0.00000

 Dipole moment (field-independent basis, Debye):
    X=              5.3747    Y=              0.2992    Z=              1.1664  Tot=              5.5080
 Quadrupole moment (field-independent basis, Debye-Ang):
   XX=           -128.3534   YY=            -90.2882   ZZ=            -94.4145
   XY=             -1.0465   XZ=             -4.3395   YZ=             -0.7796

 Normal termination of Gaussian 16 at Wed May  5 23:21:13 2021.
