 Gaussian 16, Revision A.03,
 Gaussian 16:  EM64L-G16RevA.03 25-Dec-2016

 -------------
 #p 6-31g* mp2
 -------------

 ------------------------------------------------------
 Input file generated by CHIRIPA (05-May-2021 14:51:10)
 ------------------------------------------------------
 Symbolic Z-matrix:
 Charge =  0 Multiplicity = 1

                         Standard orientation:
 ---------------------------------------------------------------------
 Center     Atomic      Atomic             Coordinates (Angstroms)
 Number     Number       Type             X           Y           Z
 ---------------------------------------------------------------------
      1          6           0        3.688279   -0.390270    0.523894
      2          6           0        2.560573    0.636240    0.411914
      3          6           0        1.297068    0.210363    1.160231
      4          1           0        3.337091   -1.355368    0.133768
      5          1           0        3.925557   -0.549688    1.584874
      6          1           0        2.326436    0.794704   -0.648598
      7          1           0        2.914548    1.599056    0.802175
      8          1           0        1.508649    0.071063    2.225327
      9          1           0        0.917195   -0.737859    0.766311
     10          1           0        0.503798    0.958616    1.066952
     11          6           0        4.958086    0.021280   -0.219035
     12          6           0        6.085793   -1.005230   -0.107055
     13          6           0        7.349298   -0.579353   -0.855372
     14          1           0        4.720808    0.180698   -1.280016
     15          1           0        5.309274    0.986378    0.171091
     16          1           0        5.731817   -1.968046   -0.497316
     17          1           0        6.319930   -1.163694    0.953456
     18          1           0        7.729170    0.368869   -0.461453
     19          1           0        7.137716   -0.440053   -1.920468
     20          1           0        8.142567   -1.327606   -0.762093
     21          6           0       -4.953606   -0.159314   -0.412802
     22          6           0       -5.242373   -1.495583    0.272021
     23          6           0       -6.506734   -2.171256   -0.259631
     24          1           0       -5.814143    0.509587   -0.274990
     25          1           0       -4.855430   -0.323446   -1.494845
     26          1           0       -5.338603   -1.329193    1.352609
     27          1           0       -4.380970   -2.161314    0.132726
     28          1           0       -6.417075   -2.366019   -1.333236
     29          1           0       -7.380149   -1.529171   -0.106423
     30          1           0       -6.694242   -3.124876    0.243666
     31          6           0       -3.692759    0.528304    0.107944
     32          6           0       -3.403992    1.864573   -0.576880
     33          6           0       -2.139632    2.540246   -0.045228
     34          1           0       -3.790935    0.692436    1.189986
     35          1           0       -2.832223   -0.140597   -0.029869
     36          1           0       -4.265395    2.530304   -0.437585
     37          1           0       -3.307762    1.698183   -1.657468
     38          1           0       -1.266216    1.898161   -0.198436
     39          1           0       -2.229290    2.735009    1.028378
     40          1           0       -1.952123    3.493867   -0.548525
 ---------------------------------------------------------------------

 SCF Done:  E(RHF) =  -470.733282474     A.U. after   11 cycles
 E2 =    -0.1582272104D+01 EUMP2 =    -0.47231555457804D+03

 The electronic state is 1-A.
 Alpha  occ. eigenvalues --  -11.21600 -11.21595 -11.21588 -11.21584 -11.21393
 Alpha  occ. eigenvalues --  -11.21389 -11.21334 -11.21329 -11.21070 -11.21066
 Alpha  occ. eigenvalues --  -11.21062 -11.21015  -1.08423  -1.08413  -1.03538
 Alpha  occ. eigenvalues --   -1.03502  -0.96006  -0.95936  -0.87040  -0.86937
 Alpha  occ. eigenvalues --   -0.79626  -0.79542  -0.78235  -0.78224  -0.65061
 Alpha  occ. eigenvalues --   -0.65038  -0.60959  -0.60893  -0.59426  -0.59278
 Alpha  occ. eigenvalues --   -0.57719  -0.57453  -0.55290  -0.55226  -0.52805
 Alpha  occ. eigenvalues --   -0.52667  -0.52455  -0.52199  -0.49928  -0.49882
 Alpha  occ. eigenvalues --   -0.48005  -0.47780  -0.46631  -0.46594  -0.45775
 Alpha  occ. eigenvalues --   -0.45767  -0.45703  -0.45688  -0.43780  -0.43733
 Alpha virt. eigenvalues --    0.21962   0.23038   0.23487   0.24859   0.26418
 Alpha virt. eigenvalues --    0.26713   0.26904   0.27380   0.27825   0.28891
 Alpha virt. eigenvalues --    0.30831   0.31386   0.31667   0.31823   0.32014

 Mulliken charges:
               1
     1  C   -0.298204
     2  C   -0.299446
     3  C   -0.483029
     4  H    0.149432
     5  H    0.149604
     6  H    0.151501
     7  H    0.152196
     8  H    0.155270
     9  H    0.154126
    10  H    0.168016
    11  C   -0.298250
    12  C   -0.299637
    13  C   -0.475695
    14  H    0.149435
    15  H    0.149696
    16  H    0.151869
    17  H    0.151937
    18  H    0.155197
    19  H    0.155146
    20  H    0.160221
    21  C   -0.298311
    22  C   -0.299623
    23  C   -0.475704
    24  H    0.149597
    25  H    0.149389
    26  H    0.152025
    27  H    0.151985
    28  H    0.155106
    29  H    0.155151
    30  H    0.160237
    31  C   -0.298587
    32  C   -0.299364
    33  C   -0.481707
    34  H    0.149642
    35  H    0.150352
    36  H    0.151939
    37  H    0.151788
    38  H    0.161065
    39  H    0.155212
    40  H    0.160424
 Sum of Mulliken charges =  -0.00000

 Dipole moment (field-independent basis, Debye):
    X=             -0.0107    Y=              0.0121    Z=              0.0057  Tot=              0.0171
 Quadrupole moment (field-independent basis, Debye-Ang):
   XX=            -86.1871   YY=            -84.7522   ZZ=            -83.8756
   XY=             -0.7984   XZ=              0.1238   YZ=              0.6851

 Normal termination of Gaussian 16 at Thu May  6 05:22:26 2021.
