 Gaussian 16, Revision A.03,
 Gaussian 16:  EM64L-G16RevA.03 25-Dec-2016

 -------------
 #p 6-31g* mp2
 -------------

 ------------------------------------------------------
 Input file generated by CHIRIPA (05-May-2021 14:57:21)
 ------------------------------------------------------
 Symbolic Z-matrix:
 Charge =  0 Multiplicity = 1

                         Standard orientation:
 ---------------------------------------------------------------------
 Center     Atomic      Atomic             Coordinates (Angstroms)
 Number     Number       Type             X           Y           Z
 ---------------------------------------------------------------------
      1          6           0       -0.332901    2.220008   -0.451276
      2          6           0       -1.158200    2.171335    0.677013
      3          6           0       -2.206519    1.249298    0.750644
      4          6           0       -2.401873    0.386920   -0.327054
      5          6           0       -1.596763    0.410944   -1.464819
      6          6           0       -0.554427    1.341207   -1.516712
      7          1           0        0.479135    2.939464   -0.500030
      8          1           0       -0.988506    2.852603    1.505941
      9          1           0       -2.860575    1.190024    1.612105
     10          1           0       -1.790635   -0.281037   -2.275371
     11          1           0        0.084924    1.376744   -2.394216
     12          7           0       -3.508515   -0.593554   -0.260611
     13          8           0       -3.659759   -1.342453   -1.223373
     14          8           0       -4.203703   -0.594584    0.752972
     15          6           0        0.110804   -1.255366    1.529537
     16          6           0        0.928046   -0.263632    2.081897
     17          6           0        2.098735    0.135908    1.430436
     18          6           0        2.423345   -0.480178    0.222812
     19          6           0        1.629711   -1.471111   -0.352937
     20          6           0        0.463623   -1.854883    0.316022
     21          1           0       -0.796828   -1.559613    2.042404
     22          1           0        0.656532    0.203698    3.024196
     23          1           0        2.749597    0.901166    1.835625
     24          1           0        1.926598   -1.918673   -1.293662
     25          1           0       -0.169152   -2.625340   -0.115299
     26          7           0        3.660266   -0.065550   -0.476124
     27          8           0        3.924103   -0.623768   -1.538865
     28          8           0        4.342505    0.809804    0.052026
 ---------------------------------------------------------------------

 SCF Done:  E(RHF) =  -868.334502576     A.U. after   16 cycles
 E2 =    -0.2608794979D+01 EUMP2 =    -0.87094329755476D+03

 The electronic state is 1-A.
 Alpha  occ. eigenvalues --  -20.61509 -20.61501 -20.61254 -20.61245 -15.86539
 Alpha  occ. eigenvalues --  -15.86298 -11.31634 -11.31471 -11.28231 -11.28223
 Alpha  occ. eigenvalues --  -11.28047 -11.28004 -11.27922 -11.27717 -11.27222
 Alpha  occ. eigenvalues --  -11.27179 -11.27066 -11.26978  -1.60595  -1.60340
 Alpha  occ. eigenvalues --   -1.40151  -1.39896  -1.19940  -1.19583  -1.09291
 Alpha  occ. eigenvalues --   -1.09090  -1.05314  -1.04994  -0.96172  -0.95933
 Alpha  occ. eigenvalues --   -0.86663  -0.86468  -0.83006  -0.82786  -0.78096
 Alpha  occ. eigenvalues --   -0.77857  -0.72760  -0.72519  -0.71966  -0.71682
 Alpha  occ. eigenvalues --   -0.70993  -0.70732  -0.65519  -0.65344  -0.65233
 Alpha  occ. eigenvalues --   -0.65069  -0.62643  -0.62391  -0.55724  -0.55535
 Alpha  occ. eigenvalues --   -0.55079  -0.53343  -0.53157  -0.51860  -0.49537
 Alpha  occ. eigenvalues --   -0.49496  -0.49286  -0.49258  -0.45604  -0.45343
 Alpha  occ. eigenvalues --   -0.38690  -0.38368  -0.36508  -0.35245
 Alpha virt. eigenvalues --    0.04356   0.04586   0.10264   0.11157   0.15914
 Alpha virt. eigenvalues --    0.16707   0.20340   0.21698   0.25982   0.27176
 Alpha virt. eigenvalues --    0.28028   0.28279   0.30039   0.30719   0.32267

 Mulliken charges:
               1
     1  C   -0.167553
     2  C   -0.214270
     3  C   -0.177864
     4  C    0.159123
     5  C   -0.170561
     6  C   -0.215567
     7  H    0.231020
     8  H    0.221038
     9  H    0.271731
    10  H    0.274018
    11  H    0.229237
    12  N    0.485266
    13  O   -0.460958
    14  O   -0.462723
    15  C   -0.169729
    16  C   -0.212179
    17  C   -0.176285
    18  C    0.158383
    19  C   -0.173854
    20  C   -0.218293
    21  H    0.231698
    22  H    0.219582
    23  H    0.271609
    24  H    0.274069
    25  H    0.230462
    26  N    0.486428
    27  O   -0.461047
    28  O   -0.462779
 Sum of Mulliken charges =  -0.00000

 Dipole moment (field-independent basis, Debye):
    X=             -0.4852    Y=              2.0140    Z=              2.1452  Tot=              2.9823
 Quadrupole moment (field-independent basis, Debye-Ang):
   XX=           -146.9071   YY=            -98.7241   ZZ=            -97.2334
   XY=             -7.9498   XZ=              3.7986   YZ=              1.5545

 Normal termination of Gaussian 16 at Thu May  6 16:08:10 2021.
