 Gaussian 16, Revision A.03,
 Gaussian 16:  EM64L-G16RevA.03 25-Dec-2016

 -------------
 #p 6-31g* mp2
 -------------

 ------------------------------------------------------
 Input file generated by CHIRIPA (05-May-2021 14:57:25)
 ------------------------------------------------------
 Symbolic Z-matrix:
 Charge =  0 Multiplicity = 1

                         Standard orientation:
 ---------------------------------------------------------------------
 Center     Atomic      Atomic             Coordinates (Angstroms)
 Number     Number       Type             X           Y           Z
 ---------------------------------------------------------------------
      1          6           0       -3.532251    1.722509    0.310722
      2          6           0       -3.444862    0.703292    1.264704
      3          6           0       -2.696432   -0.448911    1.006191
      4          6           0       -2.045251   -0.549277   -0.222296
      5          6           0       -2.113118    0.448893   -1.193038
      6          6           0       -2.867272    1.592286   -0.912947
      7          1           0       -4.115873    2.614146    0.519923
      8          1           0       -3.960244    0.801707    2.215883
      9          1           0       -2.611837   -1.253221    1.726848
     10          1           0       -1.588295    0.322156   -2.132143
     11          1           0       -2.933363    2.382223   -1.655696
     12          7           0       -1.249891   -1.764399   -0.507394
     13          8           0       -0.685542   -1.828650   -1.597357
     14          8           0       -1.205898   -2.629553    0.364507
     15          6           0        2.057846    2.851540   -0.123402
     16          6           0        2.304844    2.025973   -1.225197
     17          6           0        2.372619    0.638058   -1.071425
     18          6           0        2.187791    0.107075    0.204187
     19          6           0        1.940127    0.903195    1.321391
     20          6           0        1.876595    2.288509    1.144141
     21          1           0        2.006846    3.928696   -0.251975
     22          1           0        2.445998    2.460458   -2.210764
     23          1           0        2.562448   -0.024373   -1.907228
     24          1           0        1.803553    0.440863    2.291449
     25          1           0        1.684628    2.927212    2.001610
     26          7           0        2.257294   -1.360872    0.379405
     27          8           0        2.090969   -1.804002    1.513693
     28          8           0        2.476782   -2.040522   -0.620864
 ---------------------------------------------------------------------

 SCF Done:  E(RHF) =  -868.334866480     A.U. after   16 cycles
 E2 =    -0.2604026333D+01 EUMP2 =    -0.87093889281279D+03

 The electronic state is 1-A.
 Alpha  occ. eigenvalues --  -20.60379 -20.60324 -20.59871 -20.59779 -15.85397
 Alpha  occ. eigenvalues --  -15.84884 -11.31065 -11.30743 -11.27700 -11.27643
 Alpha  occ. eigenvalues --  -11.27485 -11.27413 -11.27336 -11.27248 -11.26774
 Alpha  occ. eigenvalues --  -11.26735 -11.26518 -11.26492  -1.59433  -1.58882
 Alpha  occ. eigenvalues --   -1.38971  -1.38421  -1.19271  -1.18977  -1.08616
 Alpha  occ. eigenvalues --   -1.08287  -1.04716  -1.04444  -0.95395  -0.95031
 Alpha  occ. eigenvalues --   -0.86102  -0.85818  -0.82223  -0.81861  -0.77225
 Alpha  occ. eigenvalues --   -0.76809  -0.71602  -0.71185  -0.71103  -0.70381
 Alpha  occ. eigenvalues --   -0.70077  -0.69848  -0.64917  -0.64725  -0.64612
 Alpha  occ. eigenvalues --   -0.64453  -0.62060  -0.61773  -0.55217  -0.54949
 Alpha  occ. eigenvalues --   -0.53137  -0.52819  -0.52654  -0.52539  -0.48379
 Alpha  occ. eigenvalues --   -0.48347  -0.47890  -0.47829  -0.44592  -0.43365
 Alpha  occ. eigenvalues --   -0.37356  -0.36924  -0.36355  -0.36037
 Alpha virt. eigenvalues --    0.05152   0.05859   0.11260   0.11630   0.16685
 Alpha virt. eigenvalues --    0.17167   0.21383   0.21666   0.27259   0.27551
 Alpha virt. eigenvalues --    0.28277   0.28647   0.30861   0.31202   0.32506

 Mulliken charges:
               1
     1  C   -0.172246
     2  C   -0.219432
     3  C   -0.171429
     4  C    0.157916
     5  C   -0.169372
     6  C   -0.218577
     7  H    0.223442
     8  H    0.222625
     9  H    0.278658
    10  H    0.273192
    11  H    0.220244
    12  N    0.481530
    13  O   -0.457968
    14  O   -0.448398
    15  C   -0.172430
    16  C   -0.221817
    17  C   -0.167979
    18  C    0.153919
    19  C   -0.172184
    20  C   -0.218073
    21  H    0.221624
    22  H    0.220707
    23  H    0.281010
    24  H    0.274785
    25  H    0.219934
    26  N    0.486596
    27  O   -0.460383
    28  O   -0.445891
 Sum of Mulliken charges =  -0.00000

 Dipole moment (field-independent basis, Debye):
    X=             -2.9791    Y=              8.9860    Z=              0.3353  Tot=              9.4729
 Quadrupole moment (field-independent basis, Debye-Ang):
   XX=            -95.7918   YY=           -108.8766   ZZ=            -96.9204
   XY=              4.1374   XZ=             -5.4876   YZ=             -1.7486

 Normal termination of Gaussian 16 at Fri May  7 09:40:20 2021.
