 Gaussian 16, Revision A.03,
 Gaussian 16:  EM64L-G16RevA.03 25-Dec-2016

 -------------
 #p 6-31g* mp2
 -------------

 ------------------------------------------------------
 Input file generated by CHIRIPA (05-May-2021 14:53:17)
 ------------------------------------------------------
 Symbolic Z-matrix:
 Charge =  0 Multiplicity = 1

                         Standard orientation:
 ---------------------------------------------------------------------
 Center     Atomic      Atomic             Coordinates (Angstroms)
 Number     Number       Type             X           Y           Z
 ---------------------------------------------------------------------
      1          6           0       -3.208861    0.558225   -0.121814
      2          6           0       -3.453388    2.027273    0.224722
      3          6           0       -2.176284    2.866588    0.176216
      4          1           0       -2.468252    0.142124    0.574823
      5          1           0       -2.764881    0.494333   -1.124907
      6          1           0       -3.898053    2.088293    1.226304
      7          1           0       -4.193643    2.439873   -0.472701
      8          1           0       -1.732620    2.835478   -0.824182
      9          1           0       -1.435351    2.481901    0.884477
     10          1           0       -2.374048    3.913364    0.427234
     11          6           0       -4.476144   -0.293696   -0.077625
     12          6           0       -4.231618   -1.762745   -0.424161
     13          6           0       -5.508721   -2.602059   -0.375655
     14          1           0       -4.920124   -0.229805    0.925468
     15          1           0       -5.216753    0.122404   -0.774262
     16          1           0       -3.491362   -2.175344    0.273262
     17          1           0       -3.786953   -1.823765   -1.425743
     18          1           0       -6.249655   -2.217372   -1.083915
     19          1           0       -5.952385   -2.570949    0.624743
     20          1           0       -5.310958   -3.648835   -0.626673
     21          6           0        5.358841   -0.800962   -0.491591
     22          6           0        4.709301   -1.364360    0.611678
     23          6           0        3.403428   -0.985315    0.936594
     24          6           0        2.774100   -0.035887    0.132963
     25          6           0        3.394639    0.543584   -0.972676
     26          6           0        4.700598    0.149536   -1.278857
     27          1           0        6.373307   -1.101240   -0.736716
     28          1           0        5.218050   -2.102754    1.224861
     29          1           0        2.877093   -1.405470    1.785038
     30          1           0        2.861671    1.277290   -1.565159
     31          1           0        5.202578    0.588757   -2.136265
     32          7           0        1.391586    0.373332    0.467020
     33          8           0        0.858948    1.211773   -0.256825
     34          8           0        0.866788   -0.152110    1.446375
 ---------------------------------------------------------------------

 SCF Done:  E(RHF) =  -669.536150528     A.U. after   15 cycles
 E2 =    -0.2091798255D+01 EUMP2 =    -0.67162794878253D+03

 The electronic state is 1-A.
 Alpha  occ. eigenvalues --  -20.61031 -20.61023 -15.86040 -11.31341 -11.27899
 Alpha  occ. eigenvalues --  -11.27895 -11.27632 -11.26900 -11.26890 -11.20625
 Alpha  occ. eigenvalues --  -11.20308 -11.20186 -11.20011 -11.19725 -11.18997
 Alpha  occ. eigenvalues --   -1.60077  -1.39634  -1.19505  -1.08915  -1.07079
 Alpha  occ. eigenvalues --   -1.04897  -1.02169  -0.95762  -0.94594  -0.86299
 Alpha  occ. eigenvalues --   -0.85606  -0.82594  -0.78293  -0.77650  -0.76801
 Alpha  occ. eigenvalues --   -0.72251  -0.71384  -0.70613  -0.65160  -0.64900
 Alpha  occ. eigenvalues --   -0.63724  -0.62244  -0.59580  -0.58053  -0.56197
 Alpha  occ. eigenvalues --   -0.55400  -0.53878  -0.53229  -0.52988  -0.51353
 Alpha  occ. eigenvalues --   -0.51019  -0.49085  -0.49024  -0.48475  -0.46494
 Alpha  occ. eigenvalues --   -0.45345  -0.45047  -0.44327  -0.44180  -0.42426
 Alpha  occ. eigenvalues --   -0.37482  -0.36496
 Alpha virt. eigenvalues --    0.04867   0.11160   0.16373   0.21294   0.24107
 Alpha virt. eigenvalues --    0.25720   0.27217   0.27964   0.28153   0.28835
 Alpha virt. eigenvalues --    0.29449   0.30889   0.32400   0.32730   0.32853

 Mulliken charges:
               1
     1  C   -0.299908
     2  C   -0.299878
     3  C   -0.472797
     4  H    0.165375
     5  H    0.147515
     6  H    0.146324
     7  H    0.143408
     8  H    0.155875
     9  H    0.174216
    10  H    0.146089
    11  C   -0.297381
    12  C   -0.298739
    13  C   -0.474769
    14  H    0.146823
    15  H    0.144970
    16  H    0.153624
    17  H    0.149411
    18  H    0.153148
    19  H    0.153977
    20  H    0.156614
    21  C   -0.170475
    22  C   -0.218593
    23  C   -0.170560
    24  C    0.158242
    25  C   -0.170714
    26  C   -0.218566
    27  H    0.226167
    28  H    0.223959
    29  H    0.275817
    30  H    0.275948
    31  H    0.224005
    32  N    0.489668
    33  O   -0.457689
    34  O   -0.461104
 Sum of Mulliken charges =  -0.00000

 Dipole moment (field-independent basis, Debye):
    X=              5.3604    Y=             -1.4822    Z=             -1.1225  Tot=              5.6737
 Quadrupole moment (field-independent basis, Debye-Ang):
   XX=            -70.7792   YY=            -94.5935   ZZ=            -91.4108
   XY=             -4.7484   XZ=             -2.7825   YZ=             -3.3263

 Normal termination of Gaussian 16 at Wed May  5 22:01:00 2021.
