 Gaussian 16, Revision A.03,
 Gaussian 16:  EM64L-G16RevA.03 25-Dec-2016

 -------------
 #p 6-31g* mp2
 -------------

 ------------------------------------------------------
 Input file generated by CHIRIPA (05-May-2021 14:55:19)
 ------------------------------------------------------
 Symbolic Z-matrix:
 Charge =  0 Multiplicity = 1

                         Standard orientation:
 ---------------------------------------------------------------------
 Center     Atomic      Atomic             Coordinates (Angstroms)
 Number     Number       Type             X           Y           Z
 ---------------------------------------------------------------------
      1          6           0       -2.629757    2.252509    0.318503
      2          6           0       -1.859377    1.378559    1.092614
      3          6           0       -2.025264   -0.004935    0.978706
      4          6           0       -2.974911   -0.482207    0.076669
      5          6           0       -3.757656    0.362909   -0.708429
      6          6           0       -3.574772    1.742794   -0.577967
      7          1           0       -2.494290    3.325839    0.413419
      8          1           0       -1.124717    1.771584    1.789644
      9          1           0       -1.442272   -0.704125    1.565792
     10          1           0       -4.482103   -0.058669   -1.394626
     11          1           0       -4.174464    2.419145   -1.180431
     12          7           0       -3.159525   -1.944939   -0.052683
     13          8           0       -4.002834   -2.340265   -0.854671
     14          8           0       -2.457421   -2.668407    0.650369
     15          6           0        4.494709    0.076027   -0.176201
     16          6           0        4.665944   -1.427951    0.039926
     17          6           0        6.123424   -1.878055   -0.064728
     18          1           0        4.893262    0.345822   -1.163780
     19          1           0        5.100556    0.617067    0.563812
     20          1           0        4.058871   -1.965988   -0.699394
     21          1           0        4.266762   -1.694226    1.027025
     22          1           0        6.738922   -1.367500    0.683001
     23          1           0        6.529849   -1.640806   -1.053230
     24          1           0        6.222862   -2.956514    0.093061
     25          6           0        3.043170    0.541268   -0.074646
     26          6           0        2.871935    2.045247   -0.290773
     27          6           0        1.414455    2.495350   -0.186119
     28          1           0        2.437323    0.000229   -0.814660
     29          1           0        2.644617    0.271474    0.912933
     30          1           0        3.271118    2.311522   -1.277873
     31          1           0        3.479008    2.583285    0.448547
     32          1           0        1.008031    2.258103    0.802382
     33          1           0        0.798958    1.984796   -0.933848
     34          1           0        1.315017    3.573809   -0.343908
 ---------------------------------------------------------------------

 SCF Done:  E(RHF) =  -669.534803853     A.U. after   15 cycles
 E2 =    -0.2091819830D+01 EUMP2 =    -0.67162662368390D+03

 The electronic state is 1-A.
 Alpha  occ. eigenvalues --  -20.60736 -20.60731 -15.85789 -11.31146 -11.27703
 Alpha  occ. eigenvalues --  -11.27690 -11.27435 -11.26730 -11.26701 -11.22062
 Alpha  occ. eigenvalues --  -11.21737 -11.21728 -11.21695 -11.21581 -11.21127
 Alpha  occ. eigenvalues --   -1.59812  -1.39366  -1.19314  -1.08738  -1.08698
 Alpha  occ. eigenvalues --   -1.04721  -1.03841  -0.96315  -0.95544  -0.87350
 Alpha  occ. eigenvalues --   -0.86108  -0.82382  -0.79919  -0.78512  -0.77430
 Alpha  occ. eigenvalues --   -0.72007  -0.71135  -0.70411  -0.65369  -0.64964
 Alpha  occ. eigenvalues --   -0.64743  -0.62105  -0.61220  -0.59693  -0.57912
 Alpha  occ. eigenvalues --   -0.55628  -0.55197  -0.53265  -0.52985  -0.52882
 Alpha  occ. eigenvalues --   -0.52486  -0.50244  -0.48768  -0.48763  -0.48208
 Alpha  occ. eigenvalues --   -0.46933  -0.46062  -0.45962  -0.44773  -0.44094
 Alpha  occ. eigenvalues --   -0.37269  -0.36282
 Alpha virt. eigenvalues --    0.05097   0.11295   0.16562   0.20616   0.22703
 Alpha virt. eigenvalues --    0.24044   0.25632   0.26730   0.27293   0.28278
 Alpha virt. eigenvalues --    0.28692   0.29886   0.31322   0.31790   0.32129

 Mulliken charges:
               1
     1  C   -0.171444
     2  C   -0.212579
     3  C   -0.172830
     4  C    0.158358
     5  C   -0.171495
     6  C   -0.218822
     7  H    0.226014
     8  H    0.223999
     9  H    0.275294
    10  H    0.275282
    11  H    0.223204
    12  N    0.488056
    13  O   -0.460663
    14  O   -0.460486
    15  C   -0.298591
    16  C   -0.300209
    17  C   -0.476011
    18  H    0.150403
    19  H    0.149116
    20  H    0.154571
    21  H    0.152333
    22  H    0.154615
    23  H    0.155297
    24  H    0.162008
    25  C   -0.298157
    26  C   -0.299932
    27  C   -0.475998
    28  H    0.152796
    29  H    0.146267
    30  H    0.154048
    31  H    0.151829
    32  H    0.144691
    33  H    0.161565
    34  H    0.157473
 Sum of Mulliken charges =  -0.00000

 Dipole moment (field-independent basis, Debye):
    X=              0.7246    Y=              5.1205    Z=              0.3926  Tot=              5.1864
 Quadrupole moment (field-independent basis, Debye-Ang):
   XX=            -97.3757   YY=           -100.5858   ZZ=            -91.7597
   XY=            -16.1673   XZ=              1.5570   YZ=             -0.3564

 Normal termination of Gaussian 16 at Thu May  6 01:20:35 2021.
