 Gaussian 16, Revision A.03,
 Gaussian 16:  EM64L-G16RevA.03 25-Dec-2016

 -------------
 #p 6-31g* mp2
 -------------

 ------------------------------------------------------
 Input file generated by CHIRIPA (05-May-2021 14:55:20)
 ------------------------------------------------------
 Symbolic Z-matrix:
 Charge =  0 Multiplicity = 1

                         Standard orientation:
 ---------------------------------------------------------------------
 Center     Atomic      Atomic             Coordinates (Angstroms)
 Number     Number       Type             X           Y           Z
 ---------------------------------------------------------------------
      1          6           0        1.170855   -0.393465    1.901087
      2          6           0        0.885524    0.275904    0.706494
      3          6           0        1.879212    0.458656   -0.259805
      4          6           0        3.153049   -0.043143    0.002543
      5          6           0        3.468385   -0.714342    1.182943
      6          6           0        2.459104   -0.885584    2.135086
      7          1           0        0.392878   -0.530961    2.646233
      8          1           0       -0.114052    0.659152    0.522066
      9          1           0        1.685717    0.973073   -1.193268
     10          1           0        4.474242   -1.085187    1.338325
     11          1           0        2.683568   -1.405822    3.061916
     12          7           0        4.213276    0.144236   -1.012942
     13          8           0        5.327567   -0.307301   -0.757781
     14          8           0        3.909915    0.739093   -2.044811
     15          6           0       -3.665681   -0.542653   -0.612027
     16          6           0       -4.443019   -1.759448   -0.108896
     17          6           0       -4.139156   -3.026936   -0.908230
     18          1           0       -3.903929   -0.375701   -1.671419
     19          1           0       -2.589319   -0.758361   -0.563945
     20          1           0       -5.517551   -1.540997   -0.156612
     21          1           0       -4.203039   -1.923408    0.949472
     22          1           0       -3.073732   -3.272298   -0.851038
     23          1           0       -4.395712   -2.887716   -1.963407
     24          1           0       -4.705471   -3.884465   -0.531677
     25          6           0       -3.958796    0.732158    0.177066
     26          6           0       -3.181457    1.948952   -0.326065
     27          6           0       -3.485320    3.216441    0.473269
     28          1           0       -5.035157    0.947866    0.128984
     29          1           0       -3.720548    0.565206    1.236458
     30          1           0       -3.421437    2.112912   -1.384433
     31          1           0       -2.106926    1.730502   -0.278349
     32          1           0       -3.228764    3.077221    1.528445
     33          1           0       -4.550744    3.461803    0.416076
     34          1           0       -2.919006    4.073970    0.096715
 ---------------------------------------------------------------------

 SCF Done:  E(RHF) =  -669.535466460     A.U. after   15 cycles
 E2 =    -0.2091337381D+01 EUMP2 =    -0.67162680384116D+03

 The electronic state is 1-A.
 Alpha  occ. eigenvalues --  -20.60757 -20.60751 -15.85810 -11.31183 -11.27758
 Alpha  occ. eigenvalues --  -11.27750 -11.27507 -11.26774 -11.26752 -11.22594
 Alpha  occ. eigenvalues --  -11.22264 -11.22247 -11.22146 -11.21854 -11.21580
 Alpha  occ. eigenvalues --   -1.59832  -1.39385  -1.19359  -1.09248  -1.08754
 Alpha  occ. eigenvalues --   -1.04764  -1.04284  -0.96704  -0.95586  -0.87718
 Alpha  occ. eigenvalues --   -0.86165  -0.82421  -0.80363  -0.79054  -0.77463
 Alpha  occ. eigenvalues --   -0.72029  -0.71155  -0.70470  -0.65953  -0.65012
 Alpha  occ. eigenvalues --   -0.64743  -0.62155  -0.61645  -0.60075  -0.58316
 Alpha  occ. eigenvalues --   -0.55991  -0.55271  -0.53390  -0.53123  -0.53087
 Alpha  occ. eigenvalues --   -0.52871  -0.50649  -0.48802  -0.48783  -0.48648
 Alpha  occ. eigenvalues --   -0.47413  -0.46570  -0.46513  -0.44789  -0.44544
 Alpha  occ. eigenvalues --   -0.37343  -0.36365
 Alpha virt. eigenvalues --    0.05073   0.11247   0.16543   0.18715   0.22817
 Alpha virt. eigenvalues --    0.23581   0.24860   0.26293   0.27246   0.28277
 Alpha virt. eigenvalues --    0.29080   0.30208   0.31085   0.31225   0.32065

 Mulliken charges:
               1
     1  C   -0.173192
     2  C   -0.228404
     3  C   -0.173744
     4  C    0.158728
     5  C   -0.171026
     6  C   -0.218461
     7  H    0.225951
     8  H    0.237396
     9  H    0.275950
    10  H    0.275643
    11  H    0.223365
    12  N    0.488130
    13  O   -0.460568
    14  O   -0.460263
    15  C   -0.299750
    16  C   -0.299660
    17  C   -0.476338
    18  H    0.153535
    19  H    0.145046
    20  H    0.154184
    21  H    0.149886
    22  H    0.155772
    23  H    0.157332
    24  H    0.161956
    25  C   -0.298631
    26  C   -0.305057
    27  C   -0.475666
    28  H    0.154117
    29  H    0.145911
    30  H    0.157892
    31  H    0.143703
    32  H    0.153761
    33  H    0.159075
    34  H    0.163429
 Sum of Mulliken charges =  -0.00000

 Dipole moment (field-independent basis, Debye):
    X=             -3.9337    Y=             -0.6493    Z=              3.5216  Tot=              5.3195
 Quadrupole moment (field-independent basis, Debye-Ang):
   XX=           -115.0988   YY=            -94.7880   ZZ=            -93.2069
   XY=             -3.9554   XZ=             14.3640   YZ=             -2.4730

 Normal termination of Gaussian 16 at Wed May  5 17:23:06 2021.
