 Gaussian 16, Revision A.03,
 Gaussian 16:  EM64L-G16RevA.03 25-Dec-2016

 -------------
 #p 6-31g* mp2
 -------------

 ------------------------------------------------------
 Input file generated by CHIRIPA (05-May-2021 14:51:09)
 ------------------------------------------------------
 Symbolic Z-matrix:
 Charge =  0 Multiplicity = 1

                         Standard orientation:
 ---------------------------------------------------------------------
 Center     Atomic      Atomic             Coordinates (Angstroms)
 Number     Number       Type             X           Y           Z
 ---------------------------------------------------------------------
      1          6           0       -3.539792    0.041916    0.225946
      2          6           0       -2.970068    0.900701    1.355498
      3          6           0       -1.458263    1.099233    1.242259
      4          1           0       -3.038894   -0.935856    0.228923
      5          1           0       -3.301985    0.512002   -0.738348
      6          1           0       -3.210076    0.429853    2.317431
      7          1           0       -3.472516    1.876473    1.349952
      8          1           0       -1.203894    1.590133    0.297318
      9          1           0       -0.939963    0.135293    1.270294
     10          1           0       -1.072002    1.716014    2.059722
     11          6           0       -5.050021   -0.165579    0.325357
     12          6           0       -5.619744   -1.024364   -0.804195
     13          6           0       -7.131550   -1.222896   -0.690957
     14          1           0       -5.287827   -0.635665    1.289650
     15          1           0       -5.550918    0.812193    0.322380
     16          1           0       -5.117297   -2.000136   -0.798649
     17          1           0       -5.379736   -0.553516   -1.766128
     18          1           0       -7.649849   -0.258956   -0.718991
     19          1           0       -7.385919   -1.713796    0.253985
     20          1           0       -7.517811   -1.839677   -1.508419
     21          6           0        3.540069    0.156642   -0.343941
     22          6           0        3.147099    1.541175   -0.860299
     23          6           0        1.633773    1.715554   -0.991554
     24          1           0        3.138902   -0.608332   -1.022782
     25          1           0        3.064628   -0.011477    0.632322
     26          1           0        3.624254    1.707185   -1.834660
     27          1           0        3.549410    2.302949   -0.180253
     28          1           0        1.144440    1.576460   -0.022117
     29          1           0        1.219709    0.977311   -1.685925
     30          1           0        1.375160    2.712347   -1.362206
     31          6           0        5.049744   -0.032978   -0.207362
     32          6           0        5.442713   -1.417513    0.308996
     33          6           0        6.956041   -1.591890    0.440251
     34          1           0        5.525184    0.135140   -1.183624
     35          1           0        5.450910    0.731994    0.471480
     36          1           0        5.040402   -2.179286   -0.371050
     37          1           0        4.965558   -1.583522    1.283358
     38          1           0        7.370104   -0.853648    1.134622
     39          1           0        7.445372   -1.452797   -0.529185
     40          1           0        7.214653   -2.588684    0.810903
 ---------------------------------------------------------------------

 SCF Done:  E(RHF) =  -470.732721300     A.U. after   11 cycles
 E2 =    -0.1582556006D+01 EUMP2 =    -0.47231527730558D+03

 The electronic state is 1-A.
 Alpha  occ. eigenvalues --  -11.21586 -11.21576 -11.21564 -11.21523 -11.21381
 Alpha  occ. eigenvalues --  -11.21361 -11.21321 -11.21300 -11.21059 -11.21051
 Alpha  occ. eigenvalues --  -11.21007 -11.20913  -1.08408  -1.08378  -1.03526
 Alpha  occ. eigenvalues --   -1.03455  -0.96017  -0.95872  -0.87085  -0.86847
 Alpha  occ. eigenvalues --   -0.79683  -0.79442  -0.78239  -0.78171  -0.65041
 Alpha  occ. eigenvalues --   -0.65007  -0.60945  -0.60839  -0.59328  -0.59293
 Alpha  occ. eigenvalues --   -0.57683  -0.57445  -0.55349  -0.55133  -0.52773
 Alpha  occ. eigenvalues --   -0.52625  -0.52542  -0.52100  -0.50000  -0.49745
 Alpha  occ. eigenvalues --   -0.48078  -0.47647  -0.46648  -0.46501  -0.45827
 Alpha  occ. eigenvalues --   -0.45703  -0.45681  -0.45563  -0.43758  -0.43731
 Alpha virt. eigenvalues --    0.22733   0.22912   0.23828   0.24581   0.26277
 Alpha virt. eigenvalues --    0.26481   0.26969   0.27585   0.27688   0.29124
 Alpha virt. eigenvalues --    0.30488   0.30962   0.31535   0.31816   0.32329

 Mulliken charges:
               1
     1  C   -0.298295
     2  C   -0.300483
     3  C   -0.479668
     4  H    0.149587
     5  H    0.149780
     6  H    0.151458
     7  H    0.151795
     8  H    0.161734
     9  H    0.154928
    10  H    0.159126
    11  C   -0.298263
    12  C   -0.299615
    13  C   -0.475688
    14  H    0.149451
    15  H    0.149602
    16  H    0.151891
    17  H    0.151930
    18  H    0.155161
    19  H    0.155146
    20  H    0.160192
    21  C   -0.298261
    22  C   -0.299847
    23  C   -0.482511
    24  H    0.149413
    25  H    0.149537
    26  H    0.151217
    27  H    0.151526
    28  H    0.166706
    29  H    0.154209
    30  H    0.158626
    31  C   -0.298206
    32  C   -0.299603
    33  C   -0.475670
    34  H    0.149450
    35  H    0.149563
    36  H    0.151830
    37  H    0.151832
    38  H    0.155146
    39  H    0.155147
    40  H    0.160125
 Sum of Mulliken charges =  -0.00000

 Dipole moment (field-independent basis, Debye):
    X=             -0.0202    Y=              0.0075    Z=              0.0076  Tot=              0.0228
 Quadrupole moment (field-independent basis, Debye-Ang):
   XX=            -87.3284   YY=            -84.1096   ZZ=            -83.6423
   XY=             -0.1420   XZ=             -0.0822   YZ=             -0.0816

 Normal termination of Gaussian 16 at Wed May  5 22:58:49 2021.
