 Gaussian 16, Revision A.03,
 Gaussian 16:  EM64L-G16RevA.03 25-Dec-2016

 -------------
 #p 6-31g* mp2
 -------------

 ------------------------------------------------------
 Input file generated by CHIRIPA (05-May-2021 14:53:13)
 ------------------------------------------------------
 Symbolic Z-matrix:
 Charge =  0 Multiplicity = 1

                         Standard orientation:
 ---------------------------------------------------------------------
 Center     Atomic      Atomic             Coordinates (Angstroms)
 Number     Number       Type             X           Y           Z
 ---------------------------------------------------------------------
      1          6           0        4.491746    0.612085   -0.135219
      2          6           0        3.026450    0.202757    0.017564
      3          6           0        2.066590    1.387231   -0.098557
      4          1           0        4.738034    1.361755    0.629164
      5          1           0        4.628689    1.102084   -1.109151
      6          1           0        2.892598   -0.287563    0.990336
      7          1           0        2.783674   -0.546168   -0.747150
      8          1           0        2.170893    1.873417   -1.073926
      9          1           0        2.280435    2.133491    0.673432
     10          1           0        1.024526    1.072013    0.013687
     11          6           0        5.463511   -0.561147   -0.021518
     12          6           0        6.928808   -0.151819   -0.174302
     13          6           0        7.888667   -1.336293   -0.058180
     14          1           0        5.326568   -1.051146    0.952413
     15          1           0        5.217224   -1.310817   -0.785901
     16          1           0        7.171583    0.597106    0.590413
     17          1           0        7.062660    0.338501   -1.147074
     18          1           0        7.674822   -2.082553   -0.830170
     19          1           0        7.784365   -1.822479    0.917189
     20          1           0        8.930732   -1.021075   -0.170424
     21          6           0       -2.221689    1.846358    0.383474
     22          6           0       -1.894557    0.541567    0.766913
     23          6           0       -2.810438   -0.500296    0.593046
     24          6           0       -4.049940   -0.200320    0.030072
     25          6           0       -4.405380    1.089340   -0.362012
     26          6           0       -3.473849    2.115605   -0.178773
     27          1           0       -1.504132    2.649645    0.522180
     28          1           0       -0.922858    0.329533    1.203821
     29          1           0       -2.583222   -1.519542    0.881020
     30          1           0       -5.381868    1.269794   -0.794821
     31          1           0       -3.730633    3.127967   -0.477487
     32          7           0       -5.027826   -1.295038   -0.158954
     33          8           0       -6.113200   -1.004662   -0.657233
     34          8           0       -4.690403   -2.422726    0.194744
 ---------------------------------------------------------------------

 SCF Done:  E(RHF) =  -669.535440364     A.U. after   15 cycles
 E2 =    -0.2091143703D+01 EUMP2 =    -0.67162658406700D+03

 The electronic state is 1-A.
 Alpha  occ. eigenvalues --  -20.60754 -20.60749 -15.85808 -11.31176 -11.27752
 Alpha  occ. eigenvalues --  -11.27747 -11.27479 -11.26753 -11.26737 -11.22393
 Alpha  occ. eigenvalues --  -11.22090 -11.21998 -11.21986 -11.21840 -11.21383
 Alpha  occ. eigenvalues --   -1.59830  -1.39383  -1.19351  -1.09007  -1.08743
 Alpha  occ. eigenvalues --   -1.04758  -1.04143  -0.96609  -0.95575  -0.87635
 Alpha  occ. eigenvalues --   -0.86152  -0.82408  -0.80215  -0.78785  -0.77461
 Alpha  occ. eigenvalues --   -0.72027  -0.71153  -0.70448  -0.65631  -0.65005
 Alpha  occ. eigenvalues --   -0.64803  -0.62148  -0.61529  -0.59981  -0.58199
 Alpha  occ. eigenvalues --   -0.55878  -0.55241  -0.53446  -0.53100  -0.53022
 Alpha  occ. eigenvalues --   -0.52698  -0.50533  -0.48789  -0.48781  -0.48518
 Alpha  occ. eigenvalues --   -0.47229  -0.46335  -0.46235  -0.44788  -0.44392
 Alpha  occ. eigenvalues --   -0.37316  -0.36353
 Alpha virt. eigenvalues --    0.05079   0.11156   0.16569   0.20344   0.22485
 Alpha virt. eigenvalues --    0.23813   0.26086   0.26299   0.26825   0.27856
 Alpha virt. eigenvalues --    0.28690   0.30160   0.30844   0.31489   0.31770

 Mulliken charges:
               1
     1  C   -0.298756
     2  C   -0.299785
     3  C   -0.483061
     4  H    0.149961
     5  H    0.151048
     6  H    0.150670
     7  H    0.155498
     8  H    0.159777
     9  H    0.154514
    10  H    0.154730
    11  C   -0.298879
    12  C   -0.300082
    13  C   -0.476050
    14  H    0.149991
    15  H    0.151103
    16  H    0.152107
    17  H    0.152554
    18  H    0.156059
    19  H    0.155642
    20  H    0.161354
    21  C   -0.170858
    22  C   -0.220792
    23  C   -0.171532
    24  C    0.158358
    25  C   -0.170774
    26  C   -0.218861
    27  H    0.227665
    28  H    0.226255
    29  H    0.275766
    30  H    0.275631
    31  H    0.223525
    32  N    0.488090
    33  O   -0.460452
    34  O   -0.460419
 Sum of Mulliken charges =  -0.00000

 Dipole moment (field-independent basis, Debye):
    X=              3.5966    Y=              3.8515    Z=              0.6245  Tot=              5.3066
 Quadrupole moment (field-independent basis, Debye-Ang):
   XX=           -120.8354   YY=            -95.0825   ZZ=            -93.6783
   XY=            -18.3738   XZ=             -1.2265   YZ=             -1.3297

 Normal termination of Gaussian 16 at Thu May  6 12:02:48 2021.
