 Gaussian 16, Revision A.03,
 Gaussian 16:  EM64L-G16RevA.03 25-Dec-2016

 -------------
 #p 6-31g* mp2
 -------------

 ------------------------------------------------------
 Input file generated by CHIRIPA (05-May-2021 14:57:25)
 ------------------------------------------------------
 Symbolic Z-matrix:
 Charge =  0 Multiplicity = 1

                         Standard orientation:
 ---------------------------------------------------------------------
 Center     Atomic      Atomic             Coordinates (Angstroms)
 Number     Number       Type             X           Y           Z
 ---------------------------------------------------------------------
      1          6           0       -2.059852    2.121051   -0.573541
      2          6           0       -3.413050    2.109941   -0.219628
      3          6           0       -4.083233    0.900361   -0.013918
      4          6           0       -3.366260   -0.284738   -0.171336
      5          6           0       -2.017565   -0.306502   -0.523242
      6          6           0       -1.367649    0.914920   -0.723954
      7          1           0       -1.547110    3.065282   -0.731400
      8          1           0       -3.953150    3.045103   -0.102117
      9          1           0       -5.130418    0.862789    0.260693
     10          1           0       -1.505786   -1.254895   -0.633018
     11          1           0       -0.316695    0.920511   -0.998742
     12          7           0       -4.065025   -1.571535    0.043794
     13          8           0       -3.410896   -2.601950   -0.101109
     14          8           0       -5.253614   -1.525345    0.353243
     15          6           0        1.558296    1.667875    1.184360
     16          6           0        2.116524    1.923304   -0.072485
     17          6           0        3.055356    1.046334   -0.623908
     18          6           0        3.414748   -0.081562    0.112284
     19          6           0        2.876441   -0.363507    1.366884
     20          6           0        1.939365    0.527296    1.898774
     21          1           0        0.829671    2.354499    1.605131
     22          1           0        1.822456    2.808307   -0.629566
     23          1           0        3.503285    1.219853   -1.594819
     24          1           0        3.189343   -1.253998    1.898428
     25          1           0        1.507490    0.326387    2.875076
     26          7           0        4.407719   -1.017292   -0.461143
     27          8           0        4.707661   -2.003983    0.207522
     28          8           0        4.867266   -0.746308   -1.568401
 ---------------------------------------------------------------------

 SCF Done:  E(RHF) =  -868.336013373     A.U. after   16 cycles
 E2 =    -0.2602368856D+01 EUMP2 =    -0.87093838222928D+03

 The electronic state is 1-A.
 Alpha  occ. eigenvalues --  -20.61378 -20.61367 -20.61111 -20.61104 -15.86440
 Alpha  occ. eigenvalues --  -15.86161 -11.32011 -11.31634 -11.28694 -11.28584
 Alpha  occ. eigenvalues --  -11.28407 -11.28179 -11.28121 -11.28016 -11.27731
 Alpha  occ. eigenvalues --  -11.27568 -11.27291 -11.27098  -1.60449  -1.60183
 Alpha  occ. eigenvalues --   -1.39996  -1.39733  -1.20249  -1.19801  -1.09604
 Alpha  occ. eigenvalues --   -1.09199  -1.05676  -1.05190  -0.96379  -0.96020
 Alpha  occ. eigenvalues --   -0.87075  -0.86586  -0.83197  -0.82829  -0.78211
 Alpha  occ. eigenvalues --   -0.77846  -0.72650  -0.72378  -0.71782  -0.71509
 Alpha  occ. eigenvalues --   -0.71323  -0.70954  -0.65889  -0.65694  -0.65441
 Alpha  occ. eigenvalues --   -0.65187  -0.62988  -0.62545  -0.56147  -0.55799
 Alpha  occ. eigenvalues --   -0.54242  -0.53734  -0.53519  -0.53021  -0.49427
 Alpha  occ. eigenvalues --   -0.49392  -0.49144  -0.49128  -0.45356  -0.45114
 Alpha  occ. eigenvalues --   -0.38464  -0.37706  -0.37291  -0.36645
 Alpha virt. eigenvalues --    0.04294   0.04637   0.10196   0.10871   0.15705
 Alpha virt. eigenvalues --    0.16109   0.19505   0.21739   0.25563   0.27032
 Alpha virt. eigenvalues --    0.27472   0.28854   0.30225   0.30726   0.32049

 Mulliken charges:
               1
     1  C   -0.180368
     2  C   -0.217600
     3  C   -0.172281
     4  C    0.159464
     5  C   -0.174635
     6  C   -0.220874
     7  H    0.217975
     8  H    0.223539
     9  H    0.276550
    10  H    0.278490
    11  H    0.234187
    12  N    0.487654
    13  O   -0.458313
    14  O   -0.459626
    15  C   -0.165856
    16  C   -0.235687
    17  C   -0.171228
    18  C    0.157928
    19  C   -0.169176
    20  C   -0.218976
    21  H    0.227867
    22  H    0.220888
    23  H    0.278247
    24  H    0.280368
    25  H    0.229028
    26  N    0.488126
    27  O   -0.456689
    28  O   -0.459002
 Sum of Mulliken charges =  -0.00000

 Dipole moment (field-independent basis, Debye):
    X=             -0.8492    Y=              7.5905    Z=              1.4107  Tot=              7.7671
 Quadrupole moment (field-independent basis, Debye-Ang):
   XX=           -141.9206   YY=           -106.3024   ZZ=           -101.3376
   XY=             -6.6685   XZ=              7.5483   YZ=             -2.3770

 Normal termination of Gaussian 16 at Thu May  6 21:21:07 2021.
