 Gaussian 16, Revision A.03,
 Gaussian 16:  EM64L-G16RevA.03 25-Dec-2016

 -------------
 #p 6-31g* mp2
 -------------

 ------------------------------------------------------
 Input file generated by CHIRIPA (05-May-2021 14:51:08)
 ------------------------------------------------------
 Symbolic Z-matrix:
 Charge =  0 Multiplicity = 1

                         Standard orientation:
 ---------------------------------------------------------------------
 Center     Atomic      Atomic             Coordinates (Angstroms)
 Number     Number       Type             X           Y           Z
 ---------------------------------------------------------------------
      1          6           0       -2.846492    1.068995   -0.125716
      2          6           0       -3.569144    2.372851    0.214461
      3          6           0       -2.664565    3.599435    0.091894
      4          1           0       -1.978705    0.954196    0.538145
      5          1           0       -2.450982    1.133292   -1.148864
      6          1           0       -3.964367    2.305579    1.236170
      7          1           0       -4.435422    2.484465   -0.450159
      8          1           0       -2.280577    3.694456   -0.928951
      9          1           0       -1.806845    3.514554    0.766960
     10          1           0       -3.201368    4.520504    0.339551
     11          6           0       -3.737689   -0.166153   -0.007795
     12          6           0       -3.015037   -1.470008   -0.347972
     13          6           0       -3.919616   -2.696593   -0.225405
     14          1           0       -4.133199   -0.230450    1.015353
     15          1           0       -4.605476   -0.051353   -0.671656
     16          1           0       -2.148759   -1.581623    0.316648
     17          1           0       -2.619814   -1.402737   -1.369681
     18          1           0       -4.777335   -2.611711   -0.900470
     19          1           0       -4.303604   -2.791613    0.795440
     20          1           0       -3.382813   -3.617662   -0.473061
     21          6           0        3.813774   -0.112159   -0.376166
     22          6           0        4.883214    0.641604    0.415114
     23          6           0        5.919723    1.314984   -0.484888
     24          1           0        4.299211   -0.868342   -1.008211
     25          1           0        3.310010    0.587751   -1.057154
     26          1           0        5.383872   -0.059231    1.095400
     27          1           0        4.395159    1.395952    1.045492
     28          1           0        5.438699    2.035584   -1.154182
     29          1           0        6.433030    0.572133   -1.103991
     30          1           0        6.674691    1.848050    0.101391
     31          6           0        2.770407   -0.790684    0.509677
     32          6           0        1.700966   -1.544446   -0.281604
     33          6           0        0.664459   -2.217827    0.618399
     34          1           0        3.274172   -1.490593    1.190664
     35          1           0        2.284969   -0.034501    1.141722
     36          1           0        2.189022   -2.298794   -0.911981
     37          1           0        1.200309   -0.843611   -0.961889
     38          1           0        0.151150   -1.474975    1.237502
     39          1           0        1.145481   -2.938426    1.287693
     40          1           0       -0.090510   -2.750892    0.032119
 ---------------------------------------------------------------------

 SCF Done:  E(RHF) =  -470.732461405     A.U. after   11 cycles
 E2 =    -0.1583252694D+01 EUMP2 =    -0.47231571409943D+03

 The electronic state is 1-A.
 Alpha  occ. eigenvalues --  -11.21610 -11.21603 -11.21602 -11.21443 -11.21409
 Alpha  occ. eigenvalues --  -11.21395 -11.21349 -11.21313 -11.21092 -11.21070
 Alpha  occ. eigenvalues --  -11.21067 -11.21021  -1.08443  -1.08395  -1.03565
 Alpha  occ. eigenvalues --   -1.03473  -0.96010  -0.95944  -0.87047  -0.86945
 Alpha  occ. eigenvalues --   -0.79697  -0.79483  -0.78261  -0.78201  -0.65122
 Alpha  occ. eigenvalues --   -0.64991  -0.61048  -0.60818  -0.59514  -0.59190
 Alpha  occ. eigenvalues --   -0.57686  -0.57472  -0.55315  -0.55228  -0.52743
 Alpha  occ. eigenvalues --   -0.52618  -0.52413  -0.52376  -0.50041  -0.49832
 Alpha  occ. eigenvalues --   -0.47947  -0.47827  -0.46775  -0.46469  -0.45833
 Alpha  occ. eigenvalues --   -0.45744  -0.45721  -0.45543  -0.43796  -0.43690
 Alpha virt. eigenvalues --    0.21405   0.23196   0.23661   0.24488   0.25835
 Alpha virt. eigenvalues --    0.26526   0.26956   0.27458   0.27715   0.29369
 Alpha virt. eigenvalues --    0.30787   0.31301   0.31590   0.31960   0.32153

 Mulliken charges:
               1
     1  C   -0.298592
     2  C   -0.299580
     3  C   -0.475656
     4  H    0.148845
     5  H    0.149254
     6  H    0.151986
     7  H    0.152190
     8  H    0.155066
     9  H    0.154758
    10  H    0.160374
    11  C   -0.297759
    12  C   -0.308485
    13  C   -0.475759
    14  H    0.149090
    15  H    0.149165
    16  H    0.164244
    17  H    0.150273
    18  H    0.154874
    19  H    0.155029
    20  H    0.159487
    21  C   -0.298351
    22  C   -0.299648
    23  C   -0.475718
    24  H    0.149639
    25  H    0.149751
    26  H    0.151879
    27  H    0.151931
    28  H    0.155265
    29  H    0.155157
    30  H    0.160254
    31  C   -0.298571
    32  C   -0.299961
    33  C   -0.479694
    34  H    0.149501
    35  H    0.149509
    36  H    0.151920
    37  H    0.153107
    38  H    0.154906
    39  H    0.155087
    40  H    0.165233
 Sum of Mulliken charges =  -0.00000

 Dipole moment (field-independent basis, Debye):
    X=              0.0312    Y=             -0.0167    Z=              0.0061  Tot=              0.0359
 Quadrupole moment (field-independent basis, Debye-Ang):
   XX=            -85.5427   YY=            -85.3227   ZZ=            -84.1100
   XY=             -1.5255   XZ=              0.6692   YZ=              0.1750

 Normal termination of Gaussian 16 at Wed May  5 16:35:18 2021.
