 Gaussian 16, Revision A.03,
 Gaussian 16:  EM64L-G16RevA.03 25-Dec-2016

 -------------
 #p 6-31g* mp2
 -------------

 ------------------------------------------------------
 Input file generated by CHIRIPA (05-May-2021 14:53:13)
 ------------------------------------------------------
 Symbolic Z-matrix:
 Charge =  0 Multiplicity = 1

                         Standard orientation:
 ---------------------------------------------------------------------
 Center     Atomic      Atomic             Coordinates (Angstroms)
 Number     Number       Type             X           Y           Z
 ---------------------------------------------------------------------
      1          6           0       -2.794350    0.877028    0.243680
      2          6           0       -2.431124    2.061448   -0.652534
      3          6           0       -1.607136    3.123374    0.076266
      4          1           0       -3.353988    1.243036    1.115338
      5          1           0       -1.871878    0.423801    0.632301
      6          1           0       -3.353961    2.511454   -1.040456
      7          1           0       -1.872451    1.692555   -1.522257
      8          1           0       -0.670918    2.695617    0.449255
      9          1           0       -2.160846    3.519168    0.933794
     10          1           0       -1.358554    3.960941   -0.582937
     11          6           0       -3.618095   -0.192963   -0.470667
     12          6           0       -3.981321   -1.377383    0.425547
     13          6           0       -4.805309   -2.439309   -0.303253
     14          1           0       -4.540567    0.260264   -0.859288
     15          1           0       -3.058457   -0.558971   -1.342325
     16          1           0       -4.539994   -1.008490    1.295270
     17          1           0       -3.058484   -1.827388    0.813469
     18          1           0       -4.251600   -2.835103   -1.160781
     19          1           0       -5.741527   -2.011551   -0.676242
     20          1           0       -5.053891   -3.276875    0.355950
     21          6           0        2.358581    2.248804    0.207761
     22          6           0        3.073763    1.637412   -0.827243
     23          6           0        3.161499    0.244183   -0.903161
     24          6           0        2.519003   -0.510452    0.077153
     25          6           0        1.798935    0.069169    1.120624
     26          6           0        1.724568    1.464114    1.176684
     27          1           0        2.295619    3.331765    0.259023
     28          1           0        3.567146    2.244299   -1.581104
     29          1           0        3.708537   -0.255189   -1.693601
     30          1           0        1.317642   -0.562287    1.857537
     31          1           0        1.168453    1.936200    1.981617
     32          7           0        2.604809   -1.986310    0.007295
     33          8           0        2.029873   -2.628789    0.883255
     34          8           0        3.245374   -2.472664   -0.922099
 ---------------------------------------------------------------------

 SCF Done:  E(RHF) =  -669.535033519     A.U. after   15 cycles
 E2 =    -0.2092749143D+01 EUMP2 =    -0.67162778266128D+03

 The electronic state is 1-A.
 Alpha  occ. eigenvalues --  -20.60847 -20.60842 -15.85902 -11.31291 -11.27864
 Alpha  occ. eigenvalues --  -11.27857 -11.27587 -11.26868 -11.26858 -11.21939
 Alpha  occ. eigenvalues --  -11.21637 -11.21572 -11.21568 -11.21449 -11.20964
 Alpha  occ. eigenvalues --   -1.59923  -1.39475  -1.19470  -1.08861  -1.08599
 Alpha  occ. eigenvalues --   -1.04879  -1.03704  -0.96182  -0.95681  -0.87212
 Alpha  occ. eigenvalues --   -0.86266  -0.82514  -0.79792  -0.78402  -0.77560
 Alpha  occ. eigenvalues --   -0.72119  -0.71247  -0.70556  -0.65254  -0.65117
 Alpha  occ. eigenvalues --   -0.64873  -0.62236  -0.61093  -0.59561  -0.57782
 Alpha  occ. eigenvalues --   -0.55509  -0.55354  -0.53240  -0.52982  -0.52869
 Alpha  occ. eigenvalues --   -0.52545  -0.50108  -0.48880  -0.48873  -0.48099
 Alpha  occ. eigenvalues --   -0.46808  -0.45949  -0.45847  -0.44876  -0.43962
 Alpha  occ. eigenvalues --   -0.37393  -0.36435
 Alpha virt. eigenvalues --    0.04947   0.11032   0.16394   0.20857   0.22840
 Alpha virt. eigenvalues --    0.24272   0.26012   0.26803   0.27098   0.28433
 Alpha virt. eigenvalues --    0.28809   0.30705   0.31408   0.31642   0.31930

 Mulliken charges:
               1
     1  C   -0.299054
     2  C   -0.297601
     3  C   -0.483659
     4  H    0.148458
     5  H    0.147403
     6  H    0.153027
     7  H    0.153911
     8  H    0.155296
     9  H    0.153924
    10  H    0.157708
    11  C   -0.298595
    12  C   -0.300729
    13  C   -0.475922
    14  H    0.149325
    15  H    0.151810
    16  H    0.150501
    17  H    0.155409
    18  H    0.157353
    19  H    0.153982
    20  H    0.161638
    21  C   -0.168123
    22  C   -0.218730
    23  C   -0.170673
    24  C    0.158176
    25  C   -0.172884
    26  C   -0.219994
    27  H    0.227714
    28  H    0.224087
    29  H    0.276028
    30  H    0.276249
    31  H    0.226272
    32  N    0.488066
    33  O   -0.460283
    34  O   -0.460089
 Sum of Mulliken charges =  -0.00000

 Dipole moment (field-independent basis, Debye):
    X=             -0.2425    Y=              5.1107    Z=              0.2039  Tot=              5.1205
 Quadrupole moment (field-independent basis, Debye-Ang):
   XX=            -94.7454   YY=           -101.3963   ZZ=            -91.6064
   XY=             13.0803   XZ=             -2.4823   YZ=             -0.3000

 Normal termination of Gaussian 16 at Wed May  5 17:02:14 2021.
