 Gaussian 16, Revision A.03,
 Gaussian 16:  EM64L-G16RevA.03 25-Dec-2016

 -------------
 #p 6-31g* mp2
 -------------

 ------------------------------------------------------
 Input file generated by CHIRIPA (05-May-2021 14:51:12)
 ------------------------------------------------------
 Symbolic Z-matrix:
 Charge =  0 Multiplicity = 1

                         Standard orientation:
 ---------------------------------------------------------------------
 Center     Atomic      Atomic             Coordinates (Angstroms)
 Number     Number       Type             X           Y           Z
 ---------------------------------------------------------------------
      1          6           0       -2.958511   -0.548391    0.011891
      2          6           0       -1.993458   -0.261827    1.162778
      3          6           0       -0.561166   -0.700526    0.856385
      4          1           0       -2.942889   -1.623798   -0.212165
      5          1           0       -2.602441   -0.035521   -0.892306
      6          1           0       -2.351991   -0.773958    2.064882
      7          1           0       -2.011522    0.812994    1.384247
      8          1           0       -0.179781   -0.180225   -0.028168
      9          1           0       -0.522185   -1.776194    0.656334
     10          1           0        0.111859   -0.486331    1.692458
     11          6           0       -4.394283   -0.115434    0.303154
     12          6           0       -5.359336   -0.401998   -0.847732
     13          6           0       -6.791628    0.036701   -0.541339
     14          1           0       -4.750353   -0.628305    1.207352
     15          1           0       -4.409904    0.959972    0.527210
     16          1           0       -5.341272   -1.476820   -1.069201
     17          1           0       -5.000803    0.110132   -1.749836
     18          1           0       -6.830609    1.112369   -0.341289
     19          1           0       -7.173013   -0.483600    0.343214
     20          1           0       -7.464653   -0.177494   -1.377412
     21          6           0        3.668643   -0.427474   -0.075647
     22          6           0        5.012148   -1.085251   -0.392364
     23          6           0        4.980755   -2.604613   -0.223990
     24          1           0        3.378729   -0.677797    0.954029
     25          1           0        2.896083   -0.853984   -0.730350
     26          1           0        5.782203   -0.656636    0.261792
     27          1           0        5.298989   -0.833175   -1.421341
     28          1           0        4.233145   -3.050429   -0.888013
     29          1           0        4.719104   -2.872886    0.804684
     30          1           0        5.951340   -3.054326   -0.455468
     31          6           0        3.684151    1.091299   -0.239399
     32          6           0        2.340646    1.749077    0.077318
     33          6           0        2.372039    3.268438   -0.091056
     34          1           0        4.456710    1.517809    0.415304
     35          1           0        3.974065    1.341623   -1.269075
     36          1           0        2.053805    1.497000    1.106296
     37          1           0        1.570591    1.320462   -0.576837
     38          1           0        2.633690    3.536712   -1.119729
     39          1           0        3.119649    3.714254    0.572967
     40          1           0        1.401454    3.718151    0.140422
 ---------------------------------------------------------------------

 SCF Done:  E(RHF) =  -470.732674945     A.U. after   11 cycles
 E2 =    -0.1583112530D+01 EUMP2 =    -0.47231578747454D+03

 The electronic state is 1-A.
 Alpha  occ. eigenvalues --  -11.21594 -11.21564 -11.21554 -11.21536 -11.21389
 Alpha  occ. eigenvalues --  -11.21358 -11.21330 -11.21297 -11.21066 -11.21051
 Alpha  occ. eigenvalues --  -11.21037 -11.20951  -1.08418  -1.08380  -1.03529
 Alpha  occ. eigenvalues --   -1.03465  -0.95951  -0.95940  -0.87005  -0.86924
 Alpha  occ. eigenvalues --   -0.79669  -0.79472  -0.78268  -0.78139  -0.65070
 Alpha  occ. eigenvalues --   -0.65000  -0.60975  -0.60840  -0.59375  -0.59255
 Alpha  occ. eigenvalues --   -0.57560  -0.57555  -0.55263  -0.55216  -0.52731
 Alpha  occ. eigenvalues --   -0.52565  -0.52387  -0.52356  -0.49985  -0.49845
 Alpha  occ. eigenvalues --   -0.47948  -0.47818  -0.46713  -0.46494  -0.45856
 Alpha  occ. eigenvalues --   -0.45725  -0.45689  -0.45436  -0.43769  -0.43703
 Alpha virt. eigenvalues --    0.21795   0.23053   0.23818   0.24755   0.25099
 Alpha virt. eigenvalues --    0.26098   0.26803   0.27688   0.27946   0.29556
 Alpha virt. eigenvalues --    0.30073   0.31336   0.31802   0.32006   0.32260

 Mulliken charges:
               1
     1  C   -0.298307
     2  C   -0.300237
     3  C   -0.477598
     4  H    0.149594
     5  H    0.149053
     6  H    0.151505
     7  H    0.151616
     8  H    0.159337
     9  H    0.154028
    10  H    0.160504
    11  C   -0.298207
    12  C   -0.299626
    13  C   -0.475690
    14  H    0.149532
    15  H    0.149576
    16  H    0.151907
    17  H    0.151818
    18  H    0.155161
    19  H    0.155183
    20  H    0.160205
    21  C   -0.298813
    22  C   -0.299706
    23  C   -0.475579
    24  H    0.150089
    25  H    0.150758
    26  H    0.151717
    27  H    0.151720
    28  H    0.155247
    29  H    0.155173
    30  H    0.160016
    31  C   -0.298367
    32  C   -0.302134
    33  C   -0.475509
    34  H    0.149135
    35  H    0.149136
    36  H    0.153678
    37  H    0.154623
    38  H    0.154803
    39  H    0.155018
    40  H    0.159642
 Sum of Mulliken charges =  -0.00000

 Dipole moment (field-independent basis, Debye):
    X=              0.0105    Y=             -0.0049    Z=              0.0013  Tot=              0.0117
 Quadrupole moment (field-independent basis, Debye-Ang):
   XX=            -86.0304   YY=            -85.2971   ZZ=            -83.6804
   XY=              0.6105   XZ=              0.2987   YZ=             -0.1895

 Normal termination of Gaussian 16 at Wed May  5 16:47:38 2021.
