 Gaussian 16, Revision A.03,
 Gaussian 16:  EM64L-G16RevA.03 25-Dec-2016

 -------------
 #p 6-31g* mp2
 -------------

 ------------------------------------------------------
 Input file generated by CHIRIPA (05-May-2021 14:51:08)
 ------------------------------------------------------
 Symbolic Z-matrix:
 Charge =  0 Multiplicity = 1

                         Standard orientation:
 ---------------------------------------------------------------------
 Center     Atomic      Atomic             Coordinates (Angstroms)
 Number     Number       Type             X           Y           Z
 ---------------------------------------------------------------------
      1          6           0        2.731393    0.951720   -0.253356
      2          6           0        2.672104    2.316698    0.433160
      3          6           0        1.388179    3.083388    0.114541
      4          1           0        2.645677    1.090762   -1.339756
      5          1           0        1.861252    0.355819    0.055113
      6          1           0        3.542830    2.909337    0.124564
      7          1           0        2.758164    2.174405    1.518039
      8          1           0        0.509954    2.515481    0.438274
      9          1           0        1.299078    3.254588   -0.963119
     10          1           0        1.366689    4.056226    0.615524
     11          6           0        4.009013    0.173245    0.055498
     12          6           0        4.068302   -1.191733   -0.631019
     13          6           0        5.352227   -1.958422   -0.312399
     14          1           0        4.879154    0.769146   -0.252971
     15          1           0        4.094729    0.034203    1.141898
     16          1           0        3.982242   -1.049440   -1.715898
     17          1           0        3.197576   -1.784371   -0.322422
     18          1           0        5.441328   -2.129623    0.765261
     19          1           0        6.230452   -1.390516   -0.636132
     20          1           0        5.373717   -2.931261   -0.813382
     21          6           0       -2.895653   -1.116083    0.326439
     22          6           0       -1.425767   -0.694901    0.321122
     23          6           0       -0.488751   -1.813122    0.778697
     24          1           0       -3.174397   -1.438634    1.338963
     25          1           0       -3.021472   -1.991154   -0.326106
     26          1           0       -1.303006    0.179961    0.972398
     27          1           0       -1.150542   -0.373133   -0.691466
     28          1           0       -0.581832   -2.685728    0.124101
     29          1           0       -0.735163   -2.129491    1.797417
     30          1           0        0.557006   -1.490445    0.767259
     31          6           0       -3.844753   -0.008882   -0.128581
     32          6           0       -5.314639   -0.430064   -0.123263
     33          6           0       -6.251655    0.688157   -0.580839
     34          1           0       -3.718935    0.866189    0.523964
     35          1           0       -3.566009    0.313670   -1.141105
     36          1           0       -5.589865   -0.751833    0.889324
     37          1           0       -5.437399   -1.304927   -0.774540
     38          1           0       -6.005243    1.004526   -1.599560
     39          1           0       -6.158573    1.560763    0.073757
     40          1           0       -7.297413    0.365479   -0.569402
 ---------------------------------------------------------------------

 SCF Done:  E(RHF) =  -470.733230836     A.U. after   11 cycles
 E2 =    -0.1583413939D+01 EUMP2 =    -0.47231664477511D+03

 The electronic state is 1-A.
 Alpha  occ. eigenvalues --  -11.21661 -11.21613 -11.21592 -11.21578 -11.21435
 Alpha  occ. eigenvalues --  -11.21383 -11.21371 -11.21318 -11.21129 -11.21075
 Alpha  occ. eigenvalues --  -11.21058 -11.21033  -1.08468  -1.08410  -1.03570
 Alpha  occ. eigenvalues --   -1.03506  -0.96025  -0.95951  -0.87038  -0.86969
 Alpha  occ. eigenvalues --   -0.79645  -0.79556  -0.78298  -0.78207  -0.65091
 Alpha  occ. eigenvalues --   -0.65076  -0.60976  -0.60893  -0.59408  -0.59318
 Alpha  occ. eigenvalues --   -0.57691  -0.57521  -0.55299  -0.55248  -0.52759
 Alpha  occ. eigenvalues --   -0.52632  -0.52496  -0.52323  -0.49965  -0.49888
 Alpha  occ. eigenvalues --   -0.47989  -0.47848  -0.46667  -0.46602  -0.45843
 Alpha  occ. eigenvalues --   -0.45744  -0.45729  -0.45632  -0.43806  -0.43749
 Alpha virt. eigenvalues --    0.20370   0.22999   0.23527   0.24304   0.26045
 Alpha virt. eigenvalues --    0.26156   0.26910   0.27151   0.28408   0.29232
 Alpha virt. eigenvalues --    0.30124   0.31336   0.31748   0.31878   0.32535

 Mulliken charges:
               1
     1  C   -0.307695
     2  C   -0.298913
     3  C   -0.478034
     4  H    0.149476
     5  H    0.158934
     6  H    0.151853
     7  H    0.151560
     8  H    0.157759
     9  H    0.155043
    10  H    0.159901
    11  C   -0.297765
    12  C   -0.302664
    13  C   -0.475581
    14  H    0.149642
    15  H    0.149313
    16  H    0.151947
    17  H    0.154289
    18  H    0.155243
    19  H    0.155177
    20  H    0.160298
    21  C   -0.298546
    22  C   -0.301512
    23  C   -0.483555
    24  H    0.149723
    25  H    0.149853
    26  H    0.152625
    27  H    0.153751
    28  H    0.155970
    29  H    0.155469
    30  H    0.165885
    31  C   -0.298361
    32  C   -0.299696
    33  C   -0.475733
    34  H    0.149614
    35  H    0.150001
    36  H    0.151925
    37  H    0.151956
    38  H    0.155285
    39  H    0.155287
    40  H    0.160276
 Sum of Mulliken charges =  -0.00000

 Dipole moment (field-independent basis, Debye):
    X=             -0.0297    Y=             -0.0129    Z=             -0.0096  Tot=              0.0338
 Quadrupole moment (field-independent basis, Debye-Ang):
   XX=            -86.0102   YY=            -85.5039   ZZ=            -83.2754
   XY=              1.2960   XZ=             -0.8202   YZ=              0.2788

 Normal termination of Gaussian 16 at Thu May  6 14:50:39 2021.
