 Gaussian 16, Revision A.03,
 Gaussian 16:  EM64L-G16RevA.03 25-Dec-2016

 -------------
 #p 6-31g* mp2
 -------------

 ------------------------------------------------------
 Input file generated by CHIRIPA (05-May-2021 14:57:23)
 ------------------------------------------------------
 Symbolic Z-matrix:
 Charge =  0 Multiplicity = 1

                         Standard orientation:
 ---------------------------------------------------------------------
 Center     Atomic      Atomic             Coordinates (Angstroms)
 Number     Number       Type             X           Y           Z
 ---------------------------------------------------------------------
      1          6           0        5.838212   -0.502803    0.677620
      2          6           0        4.781469   -1.062088    1.403578
      3          6           0        3.456710   -0.830875    1.021347
      4          6           0        3.223928   -0.031866   -0.096994
      5          6           0        4.255299    0.539418   -0.840766
      6          6           0        5.572223    0.294760   -0.440264
      7          1           0        6.864273   -0.687637    0.981643
      8          1           0        4.985059   -1.681891    2.272164
      9          1           0        2.619655   -1.251455    1.565287
     10          1           0        4.020942    1.153001   -1.702166
     11          1           0        6.390916    0.730408   -1.005947
     12          7           0        1.825612    0.220026   -0.511316
     13          8           0        1.647049    0.927555   -1.500333
     14          8           0        0.934652   -0.294841    0.160800
     15          6           0       -4.205862   -2.291007   -0.430505
     16          6           0       -3.102297   -1.763055   -1.108688
     17          6           0       -2.677047   -0.454250   -0.862227
     18          6           0       -3.381737    0.301961    0.073104
     19          6           0       -4.484939   -0.195672    0.764911
     20          6           0       -4.892450   -1.507013    0.502484
     21          1           0       -4.529316   -3.308703   -0.628163
     22          1           0       -2.567175   -2.369612   -1.833794
     23          1           0       -1.825962   -0.020487   -1.373032
     24          1           0       -4.998272    0.433241    1.482111
     25          1           0       -5.749834   -1.914404    1.030662
     26          7           0       -2.940934    1.688877    0.342472
     27          8           0       -3.578738    2.334613    1.171247
     28          8           0       -1.965974    2.103943   -0.280272
 ---------------------------------------------------------------------

 SCF Done:  E(RHF) =  -868.338457021     A.U. after   16 cycles
 E2 =    -0.2599704781D+01 EUMP2 =    -0.87093816180159D+03

 The electronic state is 1-A.
 Alpha  occ. eigenvalues --  -20.60803 -20.60775 -20.59409 -20.59318 -15.85810
 Alpha  occ. eigenvalues --  -15.84418 -11.31163 -11.29824 -11.27735 -11.27717
 Alpha  occ. eigenvalues --  -11.27476 -11.26748 -11.26732 -11.26556 -11.26337
 Alpha  occ. eigenvalues --  -11.26277 -11.25591 -11.25454  -1.59834  -1.58446
 Alpha  occ. eigenvalues --   -1.39392  -1.37988  -1.19332  -1.18056  -1.08732
 Alpha  occ. eigenvalues --   -1.07468  -1.04734  -1.03466  -0.95570  -0.94274
 Alpha  occ. eigenvalues --   -0.86133  -0.84870  -0.82403  -0.81104  -0.77450
 Alpha  occ. eigenvalues --   -0.76104  -0.72031  -0.71142  -0.70646  -0.70443
 Alpha  occ. eigenvalues --   -0.69765  -0.69193  -0.64988  -0.64740  -0.63720
 Alpha  occ. eigenvalues --   -0.63501  -0.62081  -0.60789  -0.55241  -0.54044
 Alpha  occ. eigenvalues --   -0.53063  -0.52828  -0.51812  -0.51577  -0.48789
 Alpha  occ. eigenvalues --   -0.48771  -0.47439  -0.47360  -0.44797  -0.43381
 Alpha  occ. eigenvalues --   -0.37314  -0.36336  -0.36100  -0.35056
 Alpha virt. eigenvalues --    0.05087   0.06423   0.11319   0.12586   0.16579
 Alpha virt. eigenvalues --    0.17854   0.21446   0.22594   0.27358   0.28325
 Alpha virt. eigenvalues --    0.28504   0.29580   0.31002   0.32077   0.32576

 Mulliken charges:
               1
     1  C   -0.170694
     2  C   -0.218572
     3  C   -0.170816
     4  C    0.159010
     5  C   -0.170468
     6  C   -0.218592
     7  H    0.225545
     8  H    0.223149
     9  H    0.275078
    10  H    0.276580
    11  H    0.223712
    12  N    0.489543
    13  O   -0.456188
    14  O   -0.463984
    15  C   -0.171509
    16  C   -0.221567
    17  C   -0.160738
    18  C    0.154334
    19  C   -0.172091
    20  C   -0.220505
    21  H    0.219922
    22  H    0.220345
    23  H    0.291818
    24  H    0.271393
    25  H    0.217691
    26  N    0.487361
    27  O   -0.470008
    28  O   -0.449749
 Sum of Mulliken charges =  -0.00000

 Dipole moment (field-independent basis, Debye):
    X=              3.8549    Y=             -5.6089    Z=              0.3559  Tot=              6.8152
 Quadrupole moment (field-independent basis, Debye-Ang):
   XX=            -62.1542   YY=           -107.8494   ZZ=           -101.0093
   XY=             13.5681   XZ=              3.5149   YZ=             -2.9568

 Normal termination of Gaussian 16 at Thu May  6 14:35:16 2021.
