 Gaussian 16, Revision A.03,
 Gaussian 16:  EM64L-G16RevA.03 25-Dec-2016

 -------------
 #p 6-31g* mp2
 -------------

 ------------------------------------------------------
 Input file generated by CHIRIPA (05-May-2021 14:57:27)
 ------------------------------------------------------
 Symbolic Z-matrix:
 Charge =  0 Multiplicity = 1

                         Standard orientation:
 ---------------------------------------------------------------------
 Center     Atomic      Atomic             Coordinates (Angstroms)
 Number     Number       Type             X           Y           Z
 ---------------------------------------------------------------------
      1          6           0       -4.060187    2.367056   -0.169171
      2          6           0       -3.284644    1.805875   -1.189039
      3          6           0       -2.821685    0.490649   -1.087072
      4          6           0       -3.154589   -0.238032    0.053756
      5          6           0       -3.925401    0.292993    1.086786
      6          6           0       -4.377531    1.610159    0.963489
      7          1           0       -4.415619    3.389508   -0.256666
      8          1           0       -3.036644    2.391339   -2.069819
      9          1           0       -2.219626    0.031413   -1.861698
     10          1           0       -4.156318   -0.315414    1.952774
     11          1           0       -4.979653    2.043381    1.757096
     12          7           0       -2.670207   -1.631430    0.172994
     13          8           0       -2.977259   -2.252471    1.188210
     14          8           0       -1.992669   -2.076149   -0.751021
     15          6           0        4.514340    2.129256    0.445093
     16          6           0        3.213059    2.196720   -0.063470
     17          6           0        2.494499    1.028075   -0.332708
     18          6           0        3.110683   -0.196654   -0.080431
     19          6           0        4.405614   -0.296677    0.425966
     20          6           0        5.105423    0.884966    0.687760
     21          1           0        5.065252    3.042136    0.651352
     22          1           0        2.751495    3.161665   -0.252900
     23          1           0        1.485708    1.051357   -0.726682
     24          1           0        4.839145   -1.273186    0.604564
     25          1           0        6.115870    0.829539    1.082689
     26          7           0        2.359902   -1.440727   -0.361521
     27          8           0        2.925201   -2.507385   -0.130624
     28          8           0        1.220355   -1.325615   -0.807414
 ---------------------------------------------------------------------

 SCF Done:  E(RHF) =  -868.335281464     A.U. after   16 cycles
 E2 =    -0.2600791425D+01 EUMP2 =    -0.87093607288836D+03

 The electronic state is 1-A.
 Alpha  occ. eigenvalues --  -20.60212 -20.60181 -20.59912 -20.59757 -15.85261
 Alpha  occ. eigenvalues --  -15.84886 -11.30939 -11.30686 -11.27581 -11.27520
 Alpha  occ. eigenvalues --  -11.27339 -11.27319 -11.27280 -11.27160 -11.26654
 Alpha  occ. eigenvalues --  -11.26602 -11.26441 -11.26426  -1.59271  -1.58899
 Alpha  occ. eigenvalues --   -1.38820  -1.38436  -1.19140  -1.18908  -1.08475
 Alpha  occ. eigenvalues --   -1.08227  -1.04593  -1.04375  -0.95258  -0.94982
 Alpha  occ. eigenvalues --   -0.85976  -0.85747  -0.82097  -0.81806  -0.77102
 Alpha  occ. eigenvalues --   -0.76769  -0.71511  -0.71059  -0.70624  -0.70265
 Alpha  occ. eigenvalues --   -0.70189  -0.70008  -0.64787  -0.64603  -0.64543
 Alpha  occ. eigenvalues --   -0.64384  -0.61945  -0.61705  -0.55080  -0.54873
 Alpha  occ. eigenvalues --   -0.52900  -0.52712  -0.52672  -0.52468  -0.48245
 Alpha  occ. eigenvalues --   -0.48218  -0.47890  -0.47832  -0.44215  -0.43658
 Alpha  occ. eigenvalues --   -0.37133  -0.36922  -0.36210  -0.36008
 Alpha virt. eigenvalues --    0.05441   0.05773   0.11440   0.11632   0.16879
 Alpha virt. eigenvalues --    0.17177   0.21428   0.21788   0.27206   0.27637
 Alpha virt. eigenvalues --    0.28252   0.28858   0.30850   0.31366   0.32390

 Mulliken charges:
               1
     1  C   -0.172637
     2  C   -0.221012
     3  C   -0.172998
     4  C    0.159662
     5  C   -0.171796
     6  C   -0.218936
     7  H    0.222457
     8  H    0.219947
     9  H    0.280992
    10  H    0.275339
    11  H    0.221347
    12  N    0.486970
    13  O   -0.465866
    14  O   -0.442903
    15  C   -0.171709
    16  C   -0.218165
    17  C   -0.170977
    18  C    0.159764
    19  C   -0.170933
    20  C   -0.218295
    21  H    0.224040
    22  H    0.220060
    23  H    0.271203
    24  H    0.276515
    25  H    0.222903
    26  N    0.487960
    27  O   -0.459364
    28  O   -0.453570
 Sum of Mulliken charges =  -0.00000

 Dipole moment (field-independent basis, Debye):
    X=              1.0301    Y=              8.9474    Z=              0.4750  Tot=              9.0190
 Quadrupole moment (field-independent basis, Debye-Ang):
   XX=            -75.5055   YY=           -108.7223   ZZ=           -101.6270
   XY=             -4.0077   XZ=              3.4478   YZ=             -1.2830

 Normal termination of Gaussian 16 at Thu May  6 14:50:17 2021.
