 Gaussian 16, Revision A.03,
 Gaussian 16:  EM64L-G16RevA.03 25-Dec-2016

 -------------
 #p 6-31g* mp2
 -------------

 ------------------------------------------------------
 Input file generated by CHIRIPA (05-May-2021 14:55:19)
 ------------------------------------------------------
 Symbolic Z-matrix:
 Charge =  0 Multiplicity = 1

                         Standard orientation:
 ---------------------------------------------------------------------
 Center     Atomic      Atomic             Coordinates (Angstroms)
 Number     Number       Type             X           Y           Z
 ---------------------------------------------------------------------
      1          6           0       -5.361439   -1.317039   -0.811228
      2          6           0       -4.684256   -1.834367    0.297969
      3          6           0       -3.577267   -1.165902    0.829266
      4          6           0       -3.172847    0.022818    0.223728
      5          6           0       -3.826733    0.563643   -0.882270
      6          6           0       -4.931275   -0.121793   -1.396775
      7          1           0       -6.220425   -1.842910   -1.217430
      8          1           0       -5.016093   -2.762414    0.754760
      9          1           0       -3.034655   -1.543990    1.687194
     10          1           0       -3.472394    1.490845   -1.316042
     11          1           0       -5.455260    0.282320   -2.258272
     12          7           0       -2.002222    0.739475    0.777299
     13          8           0       -1.665808    1.784984    0.225599
     14          8           0       -1.443267    0.242112    1.752407
     15          6           0        4.084795    0.850618   -0.220641
     16          6           0        2.573542    1.033023   -0.076315
     17          6           0        2.142060    2.496145   -0.180672
     18          1           0        4.594502    1.440788    0.553209
     19          1           0        4.405798    1.260400   -1.188334
     20          1           0        2.255280    0.621771    0.890224
     21          1           0        2.067367    0.442199   -0.850478
     22          1           0        2.431465    2.914938   -1.149929
     23          1           0        2.620445    3.095531    0.600663
     24          1           0        1.058039    2.603555   -0.074731
     25          6           0        4.531601   -0.606663   -0.118539
     26          6           0        6.042853   -0.789068   -0.262865
     27          6           0        6.474337   -2.252189   -0.158508
     28          1           0        4.210598   -1.016444    0.849154
     29          1           0        4.021893   -1.196832   -0.892389
     30          1           0        6.549029   -0.198243    0.511298
     31          1           0        6.361116   -0.377815   -1.229403
     32          1           0        5.995951   -2.851575   -0.939843
     33          1           0        6.184930   -2.670982    0.810750
     34          1           0        7.558356   -2.359599   -0.264449
 ---------------------------------------------------------------------

 SCF Done:  E(RHF) =  -669.536553922     A.U. after   15 cycles
 E2 =    -0.2091063908D+01 EUMP2 =    -0.67162761783061D+03

 The electronic state is 1-A.
 Alpha  occ. eigenvalues --  -20.61016 -20.61003 -15.86031 -11.31327 -11.27884
 Alpha  occ. eigenvalues --  -11.27881 -11.27618 -11.26885 -11.26876 -11.20979
 Alpha  occ. eigenvalues --  -11.20590 -11.20576 -11.20363 -11.20217 -11.19356
 Alpha  occ. eigenvalues --   -1.60059  -1.39617  -1.19490  -1.08900  -1.07495
 Alpha  occ. eigenvalues --   -1.04882  -1.02502  -0.95747  -0.94950  -0.86284
 Alpha  occ. eigenvalues --   -0.85977  -0.82580  -0.78620  -0.77636  -0.77256
 Alpha  occ. eigenvalues --   -0.72252  -0.71368  -0.70599  -0.65146  -0.64885
 Alpha  occ. eigenvalues --   -0.64141  -0.62229  -0.59918  -0.58370  -0.56517
 Alpha  occ. eigenvalues --   -0.55385  -0.54274  -0.53215  -0.52974  -0.51611
 Alpha  occ. eigenvalues --   -0.51392  -0.49007  -0.48962  -0.48946  -0.46897
 Alpha  occ. eigenvalues --   -0.45688  -0.45037  -0.44801  -0.44697  -0.42722
 Alpha  occ. eigenvalues --   -0.37468  -0.36481
 Alpha virt. eigenvalues --    0.04878   0.11174   0.16374   0.21309   0.23718
 Alpha virt. eigenvalues --    0.25417   0.27231   0.27525   0.28159   0.28404
 Alpha virt. eigenvalues --    0.29108   0.30878   0.32333   0.32397   0.32603

 Mulliken charges:
               1
     1  C   -0.170487
     2  C   -0.218611
     3  C   -0.170495
     4  C    0.157911
     5  C   -0.170714
     6  C   -0.218579
     7  H    0.226119
     8  H    0.223950
     9  H    0.275964
    10  H    0.275945
    11  H    0.223954
    12  N    0.489816
    13  O   -0.460556
    14  O   -0.458601
    15  C   -0.297329
    16  C   -0.298006
    17  C   -0.487560
    18  H    0.148018
    19  H    0.145792
    20  H    0.159780
    21  H    0.145933
    22  H    0.145027
    23  H    0.149406
    24  H    0.189473
    25  C   -0.297330
    26  C   -0.298812
    27  C   -0.475103
    28  H    0.149867
    29  H    0.146986
    30  H    0.151369
    31  H    0.150396
    32  H    0.153606
    33  H    0.154684
    34  H    0.158189
 Sum of Mulliken charges =  -0.00000

 Dipole moment (field-independent basis, Debye):
    X=             -4.5270    Y=             -2.5185    Z=             -1.8497  Tot=              5.5007
 Quadrupole moment (field-independent basis, Debye-Ang):
   XX=            -70.6228   YY=            -93.9678   ZZ=            -92.6218
   XY=              8.1707   XZ=              6.2717   YZ=             -3.2450

 Normal termination of Gaussian 16 at Thu May  6 02:54:59 2021.
