 Gaussian 16, Revision A.03,
 Gaussian 16:  EM64L-G16RevA.03 25-Dec-2016

 -------------
 #p 6-31g* mp2
 -------------

 ------------------------------------------------------
 Input file generated by CHIRIPA (05-May-2021 14:53:16)
 ------------------------------------------------------
 Symbolic Z-matrix:
 Charge =  0 Multiplicity = 1

                         Standard orientation:
 ---------------------------------------------------------------------
 Center     Atomic      Atomic             Coordinates (Angstroms)
 Number     Number       Type             X           Y           Z
 ---------------------------------------------------------------------
      1          6           0       -3.503338   -0.467391    0.216000
      2          6           0       -2.918740   -1.576718   -0.658999
      3          6           0       -3.094858   -2.966875   -0.047247
      4          1           0       -3.024560   -0.497975    1.204322
      5          1           0       -4.571874   -0.664104    0.380101
      6          1           0       -1.851935   -1.377231   -0.822545
      7          1           0       -3.398829   -1.543368   -1.645416
      8          1           0       -4.156227   -3.191149    0.100390
      9          1           0       -2.600544   -3.024068    0.927937
     10          1           0       -2.669830   -3.744771   -0.689189
     11          6           0       -3.335017    0.928164   -0.382185
     12          6           0       -3.919615    2.037491    0.492814
     13          6           0       -3.743497    3.427648   -0.118938
     14          1           0       -2.266481    1.124877   -0.546286
     15          1           0       -3.813795    0.958748   -1.370507
     16          1           0       -3.439526    2.004141    1.479231
     17          1           0       -4.986421    1.838003    0.656360
     18          1           0       -4.237811    3.484841   -1.094122
     19          1           0       -2.682128    3.651922   -0.266575
     20          1           0       -4.168525    4.205544    0.523004
     21          6           0        4.503959    1.510842   -0.319959
     22          6           0        3.936655    0.834264   -1.404823
     23          6           0        2.920585   -0.104656   -1.203377
     24          6           0        2.494052   -0.343453    0.102124
     25          6           0        3.039420    0.314407    1.203525
     26          6           0        4.054323    1.249215    0.978463
     27          1           0        5.292813    2.238621   -0.485619
     28          1           0        4.283863    1.035424   -2.414291
     29          1           0        2.463883   -0.642763   -2.025133
     30          1           0        2.672402    0.092568    2.198263
     31          1           0        4.493063    1.773154    1.822881
     32          7           0        1.419002   -1.335269    0.327886
     33          8           0        1.060873   -1.527656    1.487786
     34          8           0        0.954864   -1.901489   -0.659336
 ---------------------------------------------------------------------

 SCF Done:  E(RHF) =  -669.536430573     A.U. after   15 cycles
 E2 =    -0.2091333399D+01 EUMP2 =    -0.67162776397210D+03

 The electronic state is 1-A.
 Alpha  occ. eigenvalues --  -20.61048 -20.61035 -15.86060 -11.31353 -11.27910
 Alpha  occ. eigenvalues --  -11.27906 -11.27641 -11.26909 -11.26899 -11.21037
 Alpha  occ. eigenvalues --  -11.20690 -11.20629 -11.20283 -11.20078 -11.19551
 Alpha  occ. eigenvalues --   -1.60096  -1.39653  -1.19517  -1.08927  -1.07491
 Alpha  occ. eigenvalues --   -1.04907  -1.02524  -0.95773  -0.95013  -0.86309
 Alpha  occ. eigenvalues --   -0.86040  -0.82607  -0.78663  -0.77665  -0.77225
 Alpha  occ. eigenvalues --   -0.72277  -0.71410  -0.70624  -0.65171  -0.64909
 Alpha  occ. eigenvalues --   -0.64122  -0.62254  -0.59907  -0.58451  -0.56593
 Alpha  occ. eigenvalues --   -0.55412  -0.54308  -0.53241  -0.52997  -0.51719
 Alpha  occ. eigenvalues --   -0.51440  -0.49061  -0.49038  -0.48965  -0.46964
 Alpha  occ. eigenvalues --   -0.45741  -0.45190  -0.44770  -0.44435  -0.42799
 Alpha  occ. eigenvalues --   -0.37492  -0.36506
 Alpha virt. eigenvalues --    0.04823   0.11149   0.16314   0.21287   0.23701
 Alpha virt. eigenvalues --    0.25381   0.27213   0.27528   0.28161   0.28470
 Alpha virt. eigenvalues --    0.28938   0.30856   0.32316   0.32405   0.32649

 Mulliken charges:
               1
     1  C   -0.299043
     2  C   -0.306385
     3  C   -0.473338
     4  H    0.153120
     5  H    0.144903
     6  H    0.171515
     7  H    0.143422
     8  H    0.145668
     9  H    0.162853
    10  H    0.160986
    11  C   -0.296400
    12  C   -0.298934
    13  C   -0.474847
    14  H    0.146361
    15  H    0.147237
    16  H    0.151512
    17  H    0.151203
    18  H    0.154197
    19  H    0.152469
    20  H    0.158039
    21  C   -0.170432
    22  C   -0.218545
    23  C   -0.170741
    24  C    0.158143
    25  C   -0.170796
    26  C   -0.218579
    27  H    0.226283
    28  H    0.224144
    29  H    0.276109
    30  H    0.275869
    31  H    0.224054
    32  N    0.487848
    33  O   -0.459206
    34  O   -0.458690
 Sum of Mulliken charges =  -0.00000

 Dipole moment (field-independent basis, Debye):
    X=              4.1313    Y=              3.3904    Z=             -0.7512  Tot=              5.3969
 Quadrupole moment (field-independent basis, Debye-Ang):
   XX=            -76.7345   YY=            -99.2019   ZZ=            -89.9557
   XY=              7.8606   XZ=             -1.1069   YZ=              1.9249

 Normal termination of Gaussian 16 at Thu May  6 05:55:14 2021.
