 Gaussian 16, Revision A.03,
 Gaussian 16:  EM64L-G16RevA.03 25-Dec-2016

 -------------
 #p 6-31g* mp2
 -------------

 ------------------------------------------------------
 Input file generated by CHIRIPA (05-May-2021 14:51:12)
 ------------------------------------------------------
 Symbolic Z-matrix:
 Charge =  0 Multiplicity = 1

                         Standard orientation:
 ---------------------------------------------------------------------
 Center     Atomic      Atomic             Coordinates (Angstroms)
 Number     Number       Type             X           Y           Z
 ---------------------------------------------------------------------
      1          6           0        4.770239   -0.254892   -0.520838
      2          6           0        5.466353   -1.220952    0.438400
      3          6           0        6.445599   -2.156128   -0.271753
      4          1           0        4.237130   -0.831545   -1.289091
      5          1           0        5.530022    0.339358   -1.047139
      6          1           0        4.705427   -1.812239    0.963745
      7          1           0        5.997709   -0.641935    1.204569
      8          1           0        7.225805   -1.581787   -0.781666
      9          1           0        5.926181   -2.758740   -1.023859
     10          1           0        6.931962   -2.838135    0.432647
     11          6           0        3.788188    0.686486    0.174225
     12          6           0        3.092074    1.652546   -0.785013
     13          6           0        2.112828    2.587722   -0.074861
     14          1           0        3.028405    0.092236    0.700525
     15          1           0        4.321297    1.263139    0.942477
     16          1           0        2.560718    1.073529   -1.551183
     17          1           0        3.853000    2.243833   -1.310358
     18          1           0        2.632246    3.190334    0.677245
     19          1           0        1.332621    2.013381    0.435052
     20          1           0        1.626465    3.269729   -0.779261
     21          6           0       -4.967129    0.056537   -0.016534
     22          6           0       -5.973207   -1.036492   -0.378580
     23          6           0       -7.344745   -0.475985   -0.756085
     24          1           0       -5.364658    0.650044    0.818130
     25          1           0       -4.861745    0.744421   -0.866890
     26          1           0       -6.075623   -1.722896    0.471700
     27          1           0       -5.573150   -1.627585   -1.212354
     28          1           0       -7.263317    0.193070   -1.618834
     29          1           0       -7.768644    0.097218    0.074788
     30          1           0       -8.048401   -1.274501   -1.011229
     31          6           0       -3.591299   -0.488132    0.363148
     32          6           0       -2.585220    0.604898    0.725194
     33          6           0       -1.213682    0.044390    1.102698
     34          1           0       -3.696682   -1.176016    1.213503
     35          1           0       -3.193768   -1.081638   -0.471517
     36          1           0       -2.985277    1.195991    1.558968
     37          1           0       -2.482804    1.291302   -0.125086
     38          1           0       -0.789782   -0.528812    0.271826
     39          1           0       -1.295111   -0.624665    1.965448
     40          1           0       -0.510026    0.842907    1.357842
 ---------------------------------------------------------------------

 SCF Done:  E(RHF) =  -470.733303170     A.U. after   11 cycles
 E2 =    -0.1582313423D+01 EUMP2 =    -0.47231561659301D+03

 The electronic state is 1-A.
 Alpha  occ. eigenvalues --  -11.21632 -11.21615 -11.21574 -11.21566 -11.21426
 Alpha  occ. eigenvalues --  -11.21369 -11.21366 -11.21308 -11.21126 -11.21081
 Alpha  occ. eigenvalues --  -11.21050 -11.21013  -1.08453  -1.08395  -1.03561
 Alpha  occ. eigenvalues --   -1.03492  -0.96025  -0.95934  -0.87053  -0.86942
 Alpha  occ. eigenvalues --   -0.79636  -0.79545  -0.78263  -0.78207  -0.65086
 Alpha  occ. eigenvalues --   -0.65023  -0.60990  -0.60884  -0.59414  -0.59294
 Alpha  occ. eigenvalues --   -0.57689  -0.57501  -0.55337  -0.55199  -0.52785
 Alpha  occ. eigenvalues --   -0.52640  -0.52474  -0.52271  -0.49970  -0.49847
 Alpha  occ. eigenvalues --   -0.47982  -0.47826  -0.46657  -0.46575  -0.45806
 Alpha  occ. eigenvalues --   -0.45752  -0.45727  -0.45671  -0.43784  -0.43748
 Alpha virt. eigenvalues --    0.21647   0.23042   0.23527   0.24981   0.26234
 Alpha virt. eigenvalues --    0.26651   0.27036   0.27465   0.27842   0.28834
 Alpha virt. eigenvalues --    0.30230   0.31335   0.31781   0.31818   0.32069

 Mulliken charges:
               1
     1  C   -0.298242
     2  C   -0.299683
     3  C   -0.475680
     4  H    0.149499
     5  H    0.149385
     6  H    0.152140
     7  H    0.151874
     8  H    0.155101
     9  H    0.155109
    10  H    0.160186
    11  C   -0.298921
    12  C   -0.298784
    13  C   -0.483060
    14  H    0.150593
    15  H    0.149436
    16  H    0.151640
    17  H    0.151678
    18  H    0.154868
    19  H    0.162217
    20  H    0.159888
    21  C   -0.298304
    22  C   -0.299667
    23  C   -0.475721
    24  H    0.149755
    25  H    0.149635
    26  H    0.151942
    27  H    0.151924
    28  H    0.155223
    29  H    0.155226
    30  H    0.160286
    31  C   -0.298557
    32  C   -0.299314
    33  C   -0.481985
    34  H    0.149578
    35  H    0.149576
    36  H    0.152233
    37  H    0.152633
    38  H    0.154764
    39  H    0.155578
    40  H    0.165951
 Sum of Mulliken charges =  -0.00000

 Dipole moment (field-independent basis, Debye):
    X=             -0.0308    Y=             -0.0052    Z=              0.0125  Tot=              0.0337
 Quadrupole moment (field-independent basis, Debye-Ang):
   XX=            -85.8216   YY=            -85.0004   ZZ=            -84.0146
   XY=              1.3022   XZ=             -0.2082   YZ=             -0.1387

 Normal termination of Gaussian 16 at Wed May  5 15:17:42 2021.
