 Gaussian 16, Revision A.03,
 Gaussian 16:  EM64L-G16RevA.03 25-Dec-2016

 -------------
 #p 6-31g* mp2
 -------------

 ------------------------------------------------------
 Input file generated by CHIRIPA (05-May-2021 14:57:27)
 ------------------------------------------------------
 Symbolic Z-matrix:
 Charge =  0 Multiplicity = 1

                         Standard orientation:
 ---------------------------------------------------------------------
 Center     Atomic      Atomic             Coordinates (Angstroms)
 Number     Number       Type             X           Y           Z
 ---------------------------------------------------------------------
      1          6           0       -5.756373   -0.307962   -0.302156
      2          6           0       -4.905231   -0.973824   -1.190247
      3          6           0       -3.517848   -0.899050   -1.034926
      4          6           0       -3.013470   -0.146103    0.024302
      5          6           0       -3.835441    0.528577    0.925668
      6          6           0       -5.219708    0.439796    0.751110
      7          1           0       -6.832916   -0.371489   -0.430285
      8          1           0       -5.319209   -1.555277   -2.009137
      9          1           0       -2.835942   -1.404599   -1.707862
     10          1           0       -3.393222    1.100461    1.732396
     11          1           0       -5.878307    0.957955    1.442343
     12          7           0       -1.546359   -0.059528    0.198916
     13          8           0       -1.126946    0.610352    1.140186
     14          8           0       -0.843631   -0.663190   -0.608799
     15          6           0        4.283940   -2.107360    0.410867
     16          6           0        3.361177   -1.583767    1.322393
     17          6           0        2.784889   -0.328297    1.107367
     18          6           0        3.155820    0.379607   -0.034812
     19          6           0        4.072261   -0.115077   -0.961480
     20          6           0        4.635916   -1.372640   -0.726154
     21          1           0        4.726708   -3.083451    0.585789
     22          1           0        3.085954   -2.152130    2.206282
     23          1           0        2.067929    0.100862    1.796723
     24          1           0        4.326883    0.474998   -1.833487
     25          1           0        5.352276   -1.776773   -1.435768
     26          7           0        2.552416    1.709824   -0.273194
     27          8           0        2.895867    2.313646   -1.287135
     28          8           0        1.747443    2.123439    0.558418
 ---------------------------------------------------------------------

 SCF Done:  E(RHF) =  -868.337854419     A.U. after   16 cycles
 E2 =    -0.2600451990D+01 EUMP2 =    -0.87093830640958D+03

 The electronic state is 1-A.
 Alpha  occ. eigenvalues --  -20.60609 -20.60532 -20.59251 -20.59130 -15.85595
 Alpha  occ. eigenvalues --  -15.84239 -11.31001 -11.29689 -11.27586 -11.27559
 Alpha  occ. eigenvalues --  -11.27336 -11.26611 -11.26592 -11.26397 -11.26212
 Alpha  occ. eigenvalues --  -11.26200 -11.25458 -11.25367  -1.59626  -1.58261
 Alpha  occ. eigenvalues --   -1.39178  -1.37807  -1.19178  -1.17911  -1.08569
 Alpha  occ. eigenvalues --   -1.07316  -1.04588  -1.03351  -0.95398  -0.94126
 Alpha  occ. eigenvalues --   -0.85985  -0.84751  -0.82229  -0.80968  -0.77269
 Alpha  occ. eigenvalues --   -0.75967  -0.71819  -0.70948  -0.70468  -0.70292
 Alpha  occ. eigenvalues --   -0.69556  -0.69077  -0.64833  -0.64596  -0.63593
 Alpha  occ. eigenvalues --   -0.63403  -0.61934  -0.60698  -0.55097  -0.53925
 Alpha  occ. eigenvalues --   -0.52914  -0.52683  -0.51659  -0.51478  -0.48613
 Alpha  occ. eigenvalues --   -0.48582  -0.47273  -0.47173  -0.44578  -0.43151
 Alpha  occ. eigenvalues --   -0.37163  -0.36192  -0.35925  -0.34937
 Alpha virt. eigenvalues --    0.05270   0.06596   0.11462   0.12712   0.16745
 Alpha virt. eigenvalues --    0.18025   0.21579   0.22653   0.27486   0.28451
 Alpha virt. eigenvalues --    0.28559   0.29611   0.31127   0.32124   0.32721

 Mulliken charges:
               1
     1  C   -0.170901
     2  C   -0.218601
     3  C   -0.170883
     4  C    0.158966
     5  C   -0.170430
     6  C   -0.218618
     7  H    0.224991
     8  H    0.222616
     9  H    0.274812
    10  H    0.277034
    11  H    0.223315
    12  N    0.488602
    13  O   -0.453100
    14  O   -0.465628
    15  C   -0.171178
    16  C   -0.220206
    17  C   -0.160369
    18  C    0.161682
    19  C   -0.171205
    20  C   -0.219735
    21  H    0.219470
    22  H    0.218495
    23  H    0.285214
    24  H    0.271218
    25  H    0.217325
    26  N    0.488039
    27  O   -0.471067
    28  O   -0.449855
 Sum of Mulliken charges =  -0.00000

 Dipole moment (field-independent basis, Debye):
    X=             -3.4234    Y=             -4.8122    Z=              0.4135  Tot=              5.9202
 Quadrupole moment (field-independent basis, Debye-Ang):
   XX=            -61.9304   YY=           -108.3343   ZZ=            -98.7828
   XY=            -12.4710   XZ=              1.4610   YZ=              3.1868

 Normal termination of Gaussian 16 at Thu May  6 18:11:15 2021.
