 Gaussian 16, Revision A.03,
 Gaussian 16:  EM64L-G16RevA.03 25-Dec-2016

 -------------
 #p 6-31g* mp2
 -------------

 ------------------------------------------------------
 Input file generated by CHIRIPA (05-May-2021 14:57:25)
 ------------------------------------------------------
 Symbolic Z-matrix:
 Charge =  0 Multiplicity = 1

                         Standard orientation:
 ---------------------------------------------------------------------
 Center     Atomic      Atomic             Coordinates (Angstroms)
 Number     Number       Type             X           Y           Z
 ---------------------------------------------------------------------
      1          6           0        4.985157    0.929648    0.616202
      2          6           0        5.052769   -0.362747    0.085483
      3          6           0        3.894766   -1.011520   -0.353461
      4          6           0        2.680411   -0.335367   -0.246452
      5          6           0        2.580531    0.952491    0.277699
      6          6           0        3.751429    1.581993    0.710450
      7          1           0        5.889730    1.426145    0.954779
      8          1           0        6.009526   -0.871790    0.011076
      9          1           0        3.918416   -2.011862   -0.768401
     10          1           0        1.612326    1.434392    0.339097
     11          1           0        3.695913    2.585704    1.122186
     12          7           0        1.447660   -1.011993   -0.707864
     13          8           0        0.390022   -0.394740   -0.602804
     14          8           0        1.562410   -2.146773   -1.165842
     15          6           0       -3.224578   -2.130166    1.011979
     16          6           0       -2.590200   -1.182308    1.821701
     17          6           0       -2.395912    0.124939    1.365736
     18          6           0       -2.850617    0.451428    0.089046
     19          6           0       -3.486155   -0.470428   -0.741354
     20          6           0       -3.669746   -1.771833   -0.264713
     21          1           0       -3.371350   -3.143399    1.374215
     22          1           0       -2.243444   -1.457771    2.813631
     23          1           0       -1.907878    0.878609    1.971724
     24          1           0       -3.820929   -0.166082   -1.725588
     25          1           0       -4.162735   -2.505870   -0.895741
     26          7           0       -2.650596    1.832261   -0.404609
     27          8           0       -3.060386    2.094781   -1.533232
     28          8           0       -2.087815    2.625889    0.346436
 ---------------------------------------------------------------------

 SCF Done:  E(RHF) =  -868.338874750     A.U. after   16 cycles
 E2 =    -0.2600404781D+01 EUMP2 =    -0.87093927953044D+03

 The electronic state is 1-A.
 Alpha  occ. eigenvalues --  -20.60875 -20.60859 -20.59897 -20.59854 -15.85908
 Alpha  occ. eigenvalues --  -15.84915 -11.31145 -11.29943 -11.27734 -11.27640
 Alpha  occ. eigenvalues --  -11.27442 -11.26724 -11.26656 -11.26600 -11.26535
 Alpha  occ. eigenvalues --  -11.26323 -11.25591 -11.25535  -1.59939  -1.58936
 Alpha  occ. eigenvalues --   -1.39498  -1.38510  -1.19313  -1.18120  -1.08738
 Alpha  occ. eigenvalues --   -1.07603  -1.04690  -1.03545  -0.95592  -0.94497
 Alpha  occ. eigenvalues --   -0.86097  -0.84982  -0.82431  -0.81378  -0.77486
 Alpha  occ. eigenvalues --   -0.76439  -0.72183  -0.71255  -0.71177  -0.70424
 Alpha  occ. eigenvalues --   -0.70174  -0.69354  -0.64969  -0.64689  -0.63850
 Alpha  occ. eigenvalues --   -0.63631  -0.62026  -0.60956  -0.55209  -0.54128
 Alpha  occ. eigenvalues --   -0.53042  -0.52776  -0.51800  -0.51712  -0.48896
 Alpha  occ. eigenvalues --   -0.48848  -0.47930  -0.47890  -0.44927  -0.43999
 Alpha  occ. eigenvalues --   -0.37305  -0.36293  -0.36041  -0.35069
 Alpha virt. eigenvalues --    0.05003   0.06158   0.11359   0.12549   0.16555
 Alpha virt. eigenvalues --    0.17674   0.21497   0.22413   0.27367   0.28064
 Alpha virt. eigenvalues --    0.28482   0.29324   0.30969   0.31761   0.32637

 Mulliken charges:
               1
     1  C   -0.170645
     2  C   -0.218931
     3  C   -0.171375
     4  C    0.156866
     5  C   -0.173358
     6  C   -0.219317
     7  H    0.225756
     8  H    0.222826
     9  H    0.274248
    10  H    0.282756
    11  H    0.226357
    12  N    0.492414
    13  O   -0.464785
    14  O   -0.462304
    15  C   -0.167264
    16  C   -0.217319
    17  C   -0.161832
    18  C    0.173994
    19  C   -0.165123
    20  C   -0.215258
    21  H    0.221355
    22  H    0.216579
    23  H    0.266215
    24  H    0.272248
    25  H    0.219840
    26  N    0.489362
    27  O   -0.462117
    28  O   -0.471190
 Sum of Mulliken charges =  -0.00000

 Dipole moment (field-independent basis, Debye):
    X=              3.7676    Y=             -2.5064    Z=              3.2408  Tot=              5.5659
 Quadrupole moment (field-independent basis, Debye-Ang):
   XX=            -76.6138   YY=           -108.5585   ZZ=           -102.5629
   XY=             17.3176   XZ=              0.1801   YZ=              1.6922

 Normal termination of Gaussian 16 at Fri May  7 01:56:44 2021.
