 Gaussian 16, Revision A.03,
 Gaussian 16:  EM64L-G16RevA.03 25-Dec-2016

 -------------
 #p 6-31g* mp2
 -------------

 ------------------------------------------------------
 Input file generated by CHIRIPA (05-May-2021 14:55:22)
 ------------------------------------------------------
 Symbolic Z-matrix:
 Charge =  0 Multiplicity = 1

                         Standard orientation:
 ---------------------------------------------------------------------
 Center     Atomic      Atomic             Coordinates (Angstroms)
 Number     Number       Type             X           Y           Z
 ---------------------------------------------------------------------
      1          6           0       -0.842786   -1.935925    0.577128
      2          6           0       -1.511363   -1.944417   -0.651470
      3          6           0       -2.511888   -1.006122   -0.921836
      4          6           0       -2.819779   -0.069370    0.063552
      5          6           0       -2.171682   -0.035202    1.297283
      6          6           0       -1.174494   -0.983024    1.545876
      7          1           0       -0.066850   -2.668515    0.778698
      8          1           0       -1.255844   -2.683282   -1.405680
      9          1           0       -3.045381   -0.990014   -1.864462
     10          1           0       -2.448420    0.713660    2.029430
     11          1           0       -0.656935   -0.974051    2.500914
     12          7           0       -3.877223    0.929004   -0.211148
     13          8           0       -4.129881    1.743878    0.673602
     14          8           0       -4.433369    0.877751   -1.306005
     15          6           0        3.644699    0.954222    0.157100
     16          6           0        3.081597    2.196571   -0.533892
     17          6           0        3.607971    3.498763    0.070275
     18          1           0        3.394122    0.991736    1.226093
     19          1           0        4.741450    0.972561    0.092312
     20          1           0        1.986173    2.175194   -0.469027
     21          1           0        3.333378    2.156001   -1.601401
     22          1           0        4.698923    3.546480   -0.008125
     23          1           0        3.344064    3.565782    1.130683
     24          1           0        3.192649    4.374167   -0.438680
     25          6           0        3.127778   -0.355403   -0.435693
     26          6           0        3.690881   -1.597751    0.255298
     27          6           0        3.164506   -2.899943   -0.348869
     28          1           0        2.031029   -0.373741   -0.370905
     29          1           0        3.378356   -0.392916   -1.504687
     30          1           0        3.439099   -1.557182    1.322807
     31          1           0        4.786304   -1.576374    0.190435
     32          1           0        3.428413   -2.966962   -1.409275
     33          1           0        2.073553   -2.947660   -0.270469
     34          1           0        3.579829   -3.775347    0.160086
 ---------------------------------------------------------------------

 SCF Done:  E(RHF) =  -669.535569637     A.U. after   15 cycles
 E2 =    -0.2091915486D+01 EUMP2 =    -0.67162748512343D+03

 The electronic state is 1-A.
 Alpha  occ. eigenvalues --  -20.60812 -20.60807 -15.85866 -11.31257 -11.27822
 Alpha  occ. eigenvalues --  -11.27813 -11.27566 -11.26857 -11.26841 -11.22380
 Alpha  occ. eigenvalues --  -11.22087 -11.21928 -11.21889 -11.21800 -11.21285
 Alpha  occ. eigenvalues --   -1.59887  -1.39439  -1.19432  -1.08969  -1.08821
 Alpha  occ. eigenvalues --   -1.04833  -1.04091  -0.96548  -0.95654  -0.87569
 Alpha  occ. eigenvalues --   -0.86230  -0.82484  -0.80160  -0.78734  -0.77523
 Alpha  occ. eigenvalues --   -0.72083  -0.71210  -0.70567  -0.65606  -0.65083
 Alpha  occ. eigenvalues --   -0.64831  -0.62176  -0.61506  -0.59930  -0.58139
 Alpha  occ. eigenvalues --   -0.55987  -0.55224  -0.53247  -0.53163  -0.52960
 Alpha  occ. eigenvalues --   -0.52923  -0.50503  -0.48844  -0.48837  -0.48465
 Alpha  occ. eigenvalues --   -0.47191  -0.46286  -0.46181  -0.44839  -0.44315
 Alpha  occ. eigenvalues --   -0.37386  -0.36435
 Alpha virt. eigenvalues --    0.04970   0.11199   0.16332   0.19851   0.22732
 Alpha virt. eigenvalues --    0.23937   0.25835   0.26258   0.27188   0.27498
 Alpha virt. eigenvalues --    0.28773   0.30520   0.31013   0.31507   0.32296

 Mulliken charges:
               1
     1  C   -0.172895
     2  C   -0.219837
     3  C   -0.170801
     4  C    0.158745
     5  C   -0.171080
     6  C   -0.220061
     7  H    0.231300
     8  H    0.224463
     9  H    0.276021
    10  H    0.275814
    11  H    0.223958
    12  N    0.488025
    13  O   -0.460243
    14  O   -0.460095
    15  C   -0.297899
    16  C   -0.300560
    17  C   -0.475953
    18  H    0.147694
    19  H    0.150404
    20  H    0.154211
    21  H    0.152809
    22  H    0.155193
    23  H    0.154797
    24  H    0.162869
    25  C   -0.302570
    26  C   -0.299503
    27  C   -0.477736
    28  H    0.152143
    29  H    0.150967
    30  H    0.148364
    31  H    0.155861
    32  H    0.159722
    33  H    0.143483
    34  H    0.162393
 Sum of Mulliken charges =  -0.00000

 Dipole moment (field-independent basis, Debye):
    X=              3.7698    Y=             -3.4458    Z=              0.9187  Tot=              5.1893
 Quadrupole moment (field-independent basis, Debye-Ang):
   XX=           -115.5864   YY=            -95.0990   ZZ=            -90.2820
   XY=              9.8129   XZ=             -2.5259   YZ=              1.4943

 Normal termination of Gaussian 16 at Thu May  6 07:47:47 2021.
