 Gaussian 16, Revision A.03,
 Gaussian 16:  EM64L-G16RevA.03 25-Dec-2016

 -------------
 #p 6-31g* mp2
 -------------

 ------------------------------------------------------
 Input file generated by CHIRIPA (05-May-2021 14:57:23)
 ------------------------------------------------------
 Symbolic Z-matrix:
 Charge =  0 Multiplicity = 1

                         Standard orientation:
 ---------------------------------------------------------------------
 Center     Atomic      Atomic             Coordinates (Angstroms)
 Number     Number       Type             X           Y           Z
 ---------------------------------------------------------------------
      1          6           0        5.448183    1.535513    0.453230
      2          6           0        5.750878    0.204732    0.146767
      3          6           0        4.729007   -0.718775   -0.092944
      4          6           0        3.409586   -0.275228   -0.017544
      5          6           0        3.075941    1.043914    0.285501
      6          6           0        4.114033    1.950125    0.521499
      7          1           0        6.248298    2.246197    0.638001
      8          1           0        6.786088   -0.120079    0.093066
      9          1           0        4.935053   -1.754975   -0.332219
     10          1           0        2.034417    1.338018    0.331839
     11          1           0        3.875991    2.983003    0.759290
     12          7           0        2.319190   -1.243748   -0.269350
     13          8           0        1.164864   -0.827922   -0.196850
     14          8           0        2.639512   -2.400361   -0.534449
     15          6           0       -3.465786   -2.373278    0.371184
     16          6           0       -2.446046   -1.724896   -0.333268
     17          6           0       -2.504037   -0.346262   -0.558103
     18          6           0       -3.601237    0.356220   -0.062157
     19          6           0       -4.632939   -0.261165    0.643334
     20          6           0       -4.554059   -1.640634    0.856382
     21          1           0       -3.412624   -3.444559    0.541264
     22          1           0       -1.599684   -2.291336   -0.711237
     23          1           0       -1.728450    0.180943   -1.100264
     24          1           0       -5.464038    0.330262    1.007900
     25          1           0       -5.347456   -2.141530    1.403804
     26          7           0       -3.673686    1.816161   -0.293940
     27          8           0       -4.650956    2.412446    0.153301
     28          8           0       -2.751830    2.336533   -0.918464
 ---------------------------------------------------------------------

 SCF Done:  E(RHF) =  -868.341082713     A.U. after   16 cycles
 E2 =    -0.2598542437D+01 EUMP2 =    -0.87093962515074D+03

 The electronic state is 1-A.
 Alpha  occ. eigenvalues --  -20.61513 -20.61497 -20.60057 -20.60049 -15.86521
 Alpha  occ. eigenvalues --  -15.85093 -11.31532 -11.30145 -11.28079 -11.28023
 Alpha  occ. eigenvalues --  -11.27749 -11.27020 -11.26966 -11.26745 -11.26516
 Alpha  occ. eigenvalues --  -11.26354 -11.25744 -11.25396  -1.60565  -1.59136
 Alpha  occ. eigenvalues --   -1.40127  -1.38697  -1.19675  -1.18279  -1.09140
 Alpha  occ. eigenvalues --   -1.07746  -1.05020  -1.03593  -0.96033  -0.94631
 Alpha  occ. eigenvalues --   -0.86437  -0.85027  -0.82882  -0.81445  -0.77957
 Alpha  occ. eigenvalues --   -0.76525  -0.72770  -0.71853  -0.71324  -0.70780
 Alpha  occ. eigenvalues --   -0.70453  -0.69399  -0.65332  -0.65019  -0.63915
 Alpha  occ. eigenvalues --   -0.63572  -0.62365  -0.60917  -0.55544  -0.54160
 Alpha  occ. eigenvalues --   -0.53374  -0.53104  -0.51995  -0.51666  -0.49517
 Alpha  occ. eigenvalues --   -0.49486  -0.48089  -0.48047  -0.45605  -0.44172
 Alpha  occ. eigenvalues --   -0.37642  -0.36607  -0.36289  -0.35174
 Alpha virt. eigenvalues --    0.04542   0.05939   0.11051   0.12449   0.16101
 Alpha virt. eigenvalues --    0.17506   0.21188   0.22645   0.27146   0.27802
 Alpha virt. eigenvalues --    0.28814   0.29375   0.30887   0.32169   0.32310

 Mulliken charges:
               1
     1  C   -0.169708
     2  C   -0.218802
     3  C   -0.170614
     4  C    0.156945
     5  C   -0.170501
     6  C   -0.218834
     7  H    0.227479
     8  H    0.224349
     9  H    0.275056
    10  H    0.279330
    11  H    0.227477
    12  N    0.492028
    13  O   -0.471020
    14  O   -0.460151
    15  C   -0.172947
    16  C   -0.217266
    17  C   -0.170182
    18  C    0.156252
    19  C   -0.173795
    20  C   -0.219168
    21  H    0.223513
    22  H    0.240974
    23  H    0.279914
    24  H    0.270975
    25  H    0.218861
    26  N    0.488262
    27  O   -0.464254
    28  O   -0.464170
 Sum of Mulliken charges =  -0.00000

 Dipole moment (field-independent basis, Debye):
    X=              4.6481    Y=             -1.7863    Z=              1.6557  Tot=              5.2476
 Quadrupole moment (field-independent basis, Debye-Ang):
   XX=            -75.8100   YY=           -108.6229   ZZ=           -105.2144
   XY=             27.1417   XZ=             -2.6838   YZ=              1.2854

 Normal termination of Gaussian 16 at Thu May  6 09:46:39 2021.
