 Gaussian 16, Revision A.03,
 Gaussian 16:  EM64L-G16RevA.03 25-Dec-2016

 -------------
 #p 6-31g* mp2
 -------------

 ------------------------------------------------------
 Input file generated by CHIRIPA (05-May-2021 14:53:18)
 ------------------------------------------------------
 Symbolic Z-matrix:
 Charge =  0 Multiplicity = 1

                         Standard orientation:
 ---------------------------------------------------------------------
 Center     Atomic      Atomic             Coordinates (Angstroms)
 Number     Number       Type             X           Y           Z
 ---------------------------------------------------------------------
      1          6           0       -5.292733   -0.377061    0.262115
      2          6           0       -5.867639   -1.037984   -0.991141
      3          6           0       -7.055070   -1.951559   -0.685883
      4          1           0       -4.984192   -1.157085    0.971558
      5          1           0       -6.083800    0.201824    0.758601
      6          1           0       -5.075370   -1.614326   -1.485869
      7          1           0       -6.174670   -0.256298   -1.697763
      8          1           0       -7.864596   -1.386125   -0.213069
      9          1           0       -6.759050   -2.751869    0.000029
     10          1           0       -7.450459   -2.413602   -1.595852
     11          6           0       -4.105049    0.539264   -0.026822
     12          6           0       -3.530143    1.200187    1.226433
     13          6           0       -2.342711    2.113762    0.921176
     14          1           0       -3.313982   -0.039621   -0.523309
     15          1           0       -4.413589    1.319288   -0.736265
     16          1           0       -3.223112    0.418501    1.933056
     17          1           0       -4.322411    1.776529    1.721162
     18          1           0       -2.638731    2.914072    0.235264
     19          1           0       -1.533186    1.548328    0.448362
     20          1           0       -1.947322    2.575805    1.831145
     21          6           0        2.072748    1.823554   -0.592950
     22          6           0        1.707624    0.817387    0.307513
     23          6           0        2.585184   -0.232907    0.592677
     24          6           0        3.825522   -0.245780   -0.043473
     25          6           0        4.218295    0.741986   -0.945325
     26          6           0        3.324711    1.782714   -1.215397
     27          1           0        1.384814    2.635732   -0.808611
     28          1           0        0.735983    0.846531    0.792393
     29          1           0        2.328098   -1.024821    1.285638
     30          1           0        5.193721    0.685824   -1.413095
     31          1           0        3.610953    2.562757   -1.915144
     32          7           0        4.763038   -1.352616    0.250429
     33          8           0        5.849999   -1.341071   -0.323175
     34          8           0        4.393151   -2.210741    1.048829
 ---------------------------------------------------------------------

 SCF Done:  E(RHF) =  -669.535599249     A.U. after   15 cycles
 E2 =    -0.2090778023D+01 EUMP2 =    -0.67162637727220D+03

 The electronic state is 1-A.
 Alpha  occ. eigenvalues --  -20.60732 -20.60727 -15.85785 -11.31141 -11.27712
 Alpha  occ. eigenvalues --  -11.27704 -11.27437 -11.26721 -11.26681 -11.22457
 Alpha  occ. eigenvalues --  -11.22259 -11.22067 -11.22018 -11.21885 -11.21398
 Alpha  occ. eigenvalues --   -1.59808  -1.39362  -1.19311  -1.09069  -1.08706
 Alpha  occ. eigenvalues --   -1.04714  -1.04205  -0.96677  -0.95542  -0.87703
 Alpha  occ. eigenvalues --   -0.86111  -0.82376  -0.80280  -0.78838  -0.77428
 Alpha  occ. eigenvalues --   -0.72004  -0.71131  -0.70413  -0.65715  -0.64962
 Alpha  occ. eigenvalues --   -0.64735  -0.62122  -0.61556  -0.60057  -0.58256
 Alpha  occ. eigenvalues --   -0.55991  -0.55198  -0.53389  -0.53141  -0.53037
 Alpha  occ. eigenvalues --   -0.52765  -0.50605  -0.48766  -0.48760  -0.48579
 Alpha  occ. eigenvalues --   -0.47293  -0.46391  -0.46287  -0.44770  -0.44437
 Alpha  occ. eigenvalues --   -0.37289  -0.36318
 Alpha virt. eigenvalues --    0.05109   0.11300   0.16603   0.19945   0.22466
 Alpha virt. eigenvalues --    0.23735   0.25585   0.26319   0.27064   0.28042
 Alpha virt. eigenvalues --    0.28772   0.30438   0.30925   0.31544   0.31704

 Mulliken charges:
               1
     1  C   -0.298909
     2  C   -0.300190
     3  C   -0.476105
     4  H    0.150839
     5  H    0.150676
     6  H    0.152716
     7  H    0.152195
     8  H    0.155649
     9  H    0.156150
    10  H    0.161650
    11  C   -0.299039
    12  C   -0.299464
    13  C   -0.482760
    14  H    0.149308
    15  H    0.150475
    16  H    0.153138
    17  H    0.155968
    18  H    0.158590
    19  H    0.147744
    20  H    0.162311
    21  C   -0.172584
    22  C   -0.224781
    23  C   -0.171752
    24  C    0.158828
    25  C   -0.171238
    26  C   -0.218621
    27  H    0.226563
    28  H    0.231560
    29  H    0.275588
    30  H    0.275427
    31  H    0.223258
    32  N    0.487982
    33  O   -0.460566
    34  O   -0.460607
 Sum of Mulliken charges =  -0.00000

 Dipole moment (field-independent basis, Debye):
    X=             -3.5290    Y=              3.9089    Z=             -1.0321  Tot=              5.3665
 Quadrupole moment (field-independent basis, Debye-Ang):
   XX=           -117.7221   YY=            -96.2415   ZZ=            -93.1713
   XY=             16.2727   XZ=             -6.2386   YZ=             -1.4616

 Normal termination of Gaussian 16 at Wed May  5 18:50:34 2021.
