 Gaussian 16, Revision A.03,
 Gaussian 16:  EM64L-G16RevA.03 25-Dec-2016

 -------------
 #p 6-31g* mp2
 -------------

 ------------------------------------------------------
 Input file generated by CHIRIPA (05-May-2021 14:57:21)
 ------------------------------------------------------
 Symbolic Z-matrix:
 Charge =  0 Multiplicity = 1

                         Standard orientation:
 ---------------------------------------------------------------------
 Center     Atomic      Atomic             Coordinates (Angstroms)
 Number     Number       Type             X           Y           Z
 ---------------------------------------------------------------------
      1          6           0       -4.162704    1.313018    0.502186
      2          6           0       -3.095465    1.714545   -0.307937
      3          6           0       -2.148152    0.784704   -0.746733
      4          6           0       -2.299414   -0.544466   -0.354666
      5          6           0       -3.351682   -0.975438    0.451737
      6          6           0       -4.287186   -0.028328    0.878773
      7          1           0       -4.894013    2.042048    0.838485
      8          1           0       -2.996272    2.755581   -0.601960
      9          1           0       -1.312183    1.068269   -1.374558
     10          1           0       -3.424018   -2.020256    0.728399
     11          1           0       -5.114996   -0.343019    1.507857
     12          7           0       -1.302786   -1.537988   -0.812975
     13          8           0       -1.458459   -2.703027   -0.453688
     14          8           0       -0.384828   -1.132859   -1.522806
     15          6           0        3.244325   -1.999671    0.579517
     16          6           0        3.963479   -1.125562   -0.242232
     17          6           0        3.540202    0.195496   -0.415988
     18          6           0        2.388200    0.610849    0.250091
     19          6           0        1.650181   -0.236131    1.075467
     20          6           0        2.092003   -1.552954    1.234588
     21          1           0        3.580339   -3.024256    0.708811
     22          1           0        4.858749   -1.469739   -0.752210
     23          1           0        4.077970    0.893306   -1.046294
     24          1           0        0.761548    0.135929    1.570763
     25          1           0        1.531510   -2.229586    1.873384
     26          7           0        1.930279    2.007152    0.073889
     27          8           0        0.912141    2.348623    0.671744
     28          8           0        2.598169    2.733664   -0.658736
 ---------------------------------------------------------------------

 SCF Done:  E(RHF) =  -868.339816459     A.U. after   16 cycles
 E2 =    -0.2601552437D+01 EUMP2 =    -0.87094136889573D+03

 The electronic state is 1-A.
 Alpha  occ. eigenvalues --  -20.60909 -20.60856 -20.60552 -20.60520 -15.85889
 Alpha  occ. eigenvalues --  -15.85555 -11.30983 -11.30464 -11.27588 -11.27431
 Alpha  occ. eigenvalues --  -11.27207 -11.27032 -11.27014 -11.26666 -11.26530
 Alpha  occ. eigenvalues --  -11.26349 -11.25955 -11.25909  -1.59953  -1.59612
 Alpha  occ. eigenvalues --   -1.39515  -1.39180  -1.19132  -1.18594  -1.08585
 Alpha  occ. eigenvalues --   -1.08081  -1.04463  -1.03972  -0.95463  -0.95003
 Alpha  occ. eigenvalues --   -0.85892  -0.85401  -0.82292  -0.81877  -0.77376
 Alpha  occ. eigenvalues --   -0.76970  -0.72140  -0.71809  -0.71323  -0.70891
 Alpha  occ. eigenvalues --   -0.70224  -0.69761  -0.64776  -0.64460  -0.64288
 Alpha  occ. eigenvalues --   -0.64009  -0.61810  -0.61368  -0.55001  -0.54506
 Alpha  occ. eigenvalues --   -0.52854  -0.52549  -0.52244  -0.52092  -0.48906
 Alpha  occ. eigenvalues --   -0.48862  -0.48577  -0.48515  -0.44987  -0.44668
 Alpha  occ. eigenvalues --   -0.37121  -0.36490  -0.36020  -0.35478
 Alpha virt. eigenvalues --    0.05072   0.05570   0.11544   0.12183   0.16669
 Alpha virt. eigenvalues --    0.17156   0.21745   0.22124   0.27691   0.27927
 Alpha virt. eigenvalues --    0.28530   0.28927   0.31256   0.31629   0.32706

 Mulliken charges:
               1
     1  C   -0.170606
     2  C   -0.215426
     3  C   -0.161921
     4  C    0.150631
     5  C   -0.174097
     6  C   -0.219252
     7  H    0.226084
     8  H    0.230503
     9  H    0.278578
    10  H    0.271850
    11  H    0.221711
    12  N    0.487041
    13  O   -0.466583
    14  O   -0.457766
    15  C   -0.165312
    16  C   -0.216641
    17  C   -0.169155
    18  C    0.164984
    19  C   -0.171137
    20  C   -0.210391
    21  H    0.225271
    22  H    0.221170
    23  H    0.272263
    24  H    0.268649
    25  H    0.224341
    26  N    0.486769
    27  O   -0.470275
    28  O   -0.461283
 Sum of Mulliken charges =  -0.00000

 Dipole moment (field-independent basis, Debye):
    X=             -1.8534    Y=             -1.3855    Z=              2.1002  Tot=              3.1251
 Quadrupole moment (field-independent basis, Debye-Ang):
   XX=            -77.5248   YY=           -112.8471   ZZ=           -103.8479
   XY=            -15.4994   XZ=             -4.7792   YZ=             -5.8324

 Normal termination of Gaussian 16 at Thu May  6 00:08:47 2021.
