 Gaussian 16, Revision A.03,
 Gaussian 16:  EM64L-G16RevA.03 25-Dec-2016

 -------------
 #p 6-31g* mp2
 -------------

 ------------------------------------------------------
 Input file generated by CHIRIPA (05-May-2021 14:57:26)
 ------------------------------------------------------
 Symbolic Z-matrix:
 Charge =  0 Multiplicity = 1

                         Standard orientation:
 ---------------------------------------------------------------------
 Center     Atomic      Atomic             Coordinates (Angstroms)
 Number     Number       Type             X           Y           Z
 ---------------------------------------------------------------------
      1          6           0       -5.505581    0.617721    0.581161
      2          6           0       -5.232966   -0.686348    0.155009
      3          6           0       -3.931683   -1.062980   -0.190473
      4          6           0       -2.922539   -0.105744   -0.097645
      5          6           0       -3.162441    1.201328    0.323424
      6          6           0       -4.471272    1.555743    0.663863
      7          1           0       -6.519381    0.901669    0.847581
      8          1           0       -6.034248   -1.416924    0.089817
      9          1           0       -3.692652   -2.065668   -0.523489
     10          1           0       -2.342862    1.907518    0.378245
     11          1           0       -4.680056    2.569222    0.994493
     12          7           0       -1.540933   -0.492708   -0.460722
     13          8           0       -0.669454    0.369264   -0.370359
     14          8           0       -1.355670   -1.650654   -0.828790
     15          6           0        3.049651   -2.438230    0.489937
     16          6           0        2.521840   -1.921236   -0.697772
     17          6           0        2.572070   -0.548691   -0.958818
     18          6           0        3.159969    0.281744   -0.005905
     19          6           0        3.694523   -0.203081    1.186776
     20          6           0        3.633279   -1.579017    1.426769
     21          1           0        3.006353   -3.505774    0.684547
     22          1           0        2.067993   -2.586142   -1.427133
     23          1           0        2.171117   -0.121743   -1.870064
     24          1           0        4.140687    0.484699    1.894812
     25          1           0        4.043988   -1.977723    2.350023
     26          7           0        3.218975    1.736591   -0.271118
     27          8           0        3.742194    2.447126    0.584463
     28          8           0        2.740889    2.138818   -1.329553
 ---------------------------------------------------------------------

 SCF Done:  E(RHF) =  -868.339326529     A.U. after   16 cycles
 E2 =    -0.2599995058D+01 EUMP2 =    -0.87093932158651D+03

 The electronic state is 1-A.
 Alpha  occ. eigenvalues --  -20.61210 -20.61153 -20.59481 -20.59442 -15.86201
 Alpha  occ. eigenvalues --  -15.84508 -11.31386 -11.29601 -11.27966 -11.27891
 Alpha  occ. eigenvalues --  -11.27657 -11.26935 -11.26884 -11.26304 -11.26096
 Alpha  occ. eigenvalues --  -11.25996 -11.25302 -11.25059  -1.60244  -1.58536
 Alpha  occ. eigenvalues --   -1.39800  -1.38098  -1.19546  -1.17796  -1.08979
 Alpha  occ. eigenvalues --   -1.07263  -1.04919  -1.03169  -0.95843  -0.94135
 Alpha  occ. eigenvalues --   -0.86326  -0.84601  -0.82678  -0.80980  -0.77741
 Alpha  occ. eigenvalues --   -0.76031  -0.72444  -0.71545  -0.70756  -0.70652
 Alpha  occ. eigenvalues --   -0.69830  -0.68985  -0.65201  -0.64922  -0.63479
 Alpha  occ. eigenvalues --   -0.63214  -0.62262  -0.60543  -0.55438  -0.53776
 Alpha  occ. eigenvalues --   -0.53262  -0.53007  -0.51574  -0.51298  -0.49197
 Alpha  occ. eigenvalues --   -0.49116  -0.47510  -0.47481  -0.45240  -0.43564
 Alpha  occ. eigenvalues --   -0.37522  -0.36514  -0.35799  -0.34668
 Alpha virt. eigenvalues --    0.04776   0.06511   0.11143   0.12943   0.16302
 Alpha virt. eigenvalues --    0.18014   0.21305   0.22839   0.27230   0.28188
 Alpha virt. eigenvalues --    0.28796   0.29687   0.30877   0.32267   0.32472

 Mulliken charges:
               1
     1  C   -0.170206
     2  C   -0.218749
     3  C   -0.171028
     4  C    0.157656
     5  C   -0.170493
     6  C   -0.218803
     7  H    0.226504
     8  H    0.223419
     9  H    0.273733
    10  H    0.280268
    11  H    0.225726
    12  N    0.489415
    13  O   -0.456733
    14  O   -0.467941
    15  C   -0.172176
    16  C   -0.212253
    17  C   -0.146752
    18  C    0.156714
    19  C   -0.173364
    20  C   -0.220809
    21  H    0.219769
    22  H    0.225248
    23  H    0.275837
    24  H    0.269304
    25  H    0.216009
    26  N    0.488990
    27  O   -0.468759
    28  O   -0.460525
 Sum of Mulliken charges =  -0.00000

 Dipole moment (field-independent basis, Debye):
    X=             -5.5251    Y=             -3.6797    Z=              2.0122  Tot=              6.9366
 Quadrupole moment (field-independent basis, Debye-Ang):
   XX=            -78.6036   YY=           -104.7902   ZZ=           -102.2526
   XY=            -18.1835   XZ=              1.4772   YZ=              2.0842

 Normal termination of Gaussian 16 at Wed May  5 22:48:38 2021.
