 Gaussian 16, Revision A.03,
 Gaussian 16:  EM64L-G16RevA.03 25-Dec-2016

 -------------
 #p 6-31g* mp2
 -------------

 ------------------------------------------------------
 Input file generated by CHIRIPA (05-May-2021 14:53:12)
 ------------------------------------------------------
 Symbolic Z-matrix:
 Charge =  0 Multiplicity = 1

                         Standard orientation:
 ---------------------------------------------------------------------
 Center     Atomic      Atomic             Coordinates (Angstroms)
 Number     Number       Type             X           Y           Z
 ---------------------------------------------------------------------
      1          6           0        3.210032   -0.605643    0.466445
      2          6           0        2.242726   -1.718901    0.062761
      3          6           0        1.104871   -1.906223    1.066748
      4          1           0        3.626980   -0.832305    1.457265
      5          1           0        2.652376    0.335487    0.569835
      6          1           0        2.802276   -2.657366   -0.041184
      7          1           0        1.828179   -1.489659   -0.927296
      8          1           0        0.521596   -0.984878    1.164285
      9          1           0        1.501228   -2.159219    2.055432
     10          1           0        0.425331   -2.706930    0.758602
     11          6           0        4.352999   -0.406322   -0.527349
     12          6           0        5.320305    0.706936   -0.123665
     13          6           0        6.458160    0.894258   -1.127652
     14          1           0        4.910655   -1.347452   -0.630739
     15          1           0        3.936051   -0.179660   -1.518169
     16          1           0        5.734852    0.477693    0.866392
     17          1           0        4.760755    1.645400   -0.019720
     18          1           0        6.061803    1.147254   -2.116336
     19          1           0        7.041435   -0.027087   -1.225189
     20          1           0        7.137701    1.694965   -0.819506
     21          6           0       -1.414935    1.950947    1.279263
     22          6           0       -2.032676    2.378979    0.099557
     23          6           0       -2.887509    1.525536   -0.604320
     24          6           0       -3.103130    0.244904   -0.097584
     25          6           0       -2.502414   -0.210759    1.074935
     26          6           0       -1.651359    0.659721    1.762335
     27          1           0       -0.752348    2.620540    1.819652
     28          1           0       -1.850910    3.381222   -0.277955
     29          1           0       -3.378762    1.831135   -1.520124
     30          1           0       -2.703034   -1.215545    1.426467
     31          1           0       -1.172978    0.324604    2.678246
     32          7           0       -4.006104   -0.667615   -0.834025
     33          8           0       -4.179664   -1.791040   -0.366659
     34          8           0       -4.523196   -0.242145   -1.864669
 ---------------------------------------------------------------------

 SCF Done:  E(RHF) =  -669.534917092     A.U. after   15 cycles
 E2 =    -0.2092256564D+01 EUMP2 =    -0.67162717365657D+03

 The electronic state is 1-A.
 Alpha  occ. eigenvalues --  -20.60799 -20.60794 -15.85853 -11.31237 -11.27806
 Alpha  occ. eigenvalues --  -11.27797 -11.27559 -11.26831 -11.26802 -11.21933
 Alpha  occ. eigenvalues --  -11.21873 -11.21754 -11.21668 -11.21345 -11.21335
 Alpha  occ. eigenvalues --   -1.59874  -1.39426  -1.19422  -1.08815  -1.08746
 Alpha  occ. eigenvalues --   -1.04833  -1.03830  -0.96295  -0.95638  -0.87322
 Alpha  occ. eigenvalues --   -0.86218  -0.82472  -0.79908  -0.78573  -0.77509
 Alpha  occ. eigenvalues --   -0.72071  -0.71197  -0.70517  -0.65386  -0.65069
 Alpha  occ. eigenvalues --   -0.64827  -0.62179  -0.61230  -0.59652  -0.57907
 Alpha  occ. eigenvalues --   -0.55645  -0.55316  -0.53275  -0.52980  -0.52914
 Alpha  occ. eigenvalues --   -0.52600  -0.50210  -0.48832  -0.48823  -0.48218
 Alpha  occ. eigenvalues --   -0.46932  -0.46113  -0.46037  -0.44826  -0.44095
 Alpha  occ. eigenvalues --   -0.37398  -0.36341
 Alpha virt. eigenvalues --    0.05014   0.11146   0.16439   0.21145   0.22603
 Alpha virt. eigenvalues --    0.24099   0.26311   0.26529   0.27154   0.28210
 Alpha virt. eigenvalues --    0.28561   0.30578   0.31262   0.31535   0.31835

 Mulliken charges:
               1
     1  C   -0.297846
     2  C   -0.298340
     3  C   -0.486127
     4  H    0.148649
     5  H    0.145303
     6  H    0.153584
     7  H    0.154649
     8  H    0.158403
     9  H    0.151477
    10  H    0.163648
    11  C   -0.298558
    12  C   -0.299399
    13  C   -0.475837
    14  H    0.151119
    15  H    0.150755
    16  H    0.151781
    17  H    0.149508
    18  H    0.155713
    19  H    0.156322
    20  H    0.160301
    21  C   -0.172373
    22  C   -0.218532
    23  C   -0.171025
    24  C    0.158399
    25  C   -0.167371
    26  C   -0.220842
    27  H    0.226156
    28  H    0.223627
    29  H    0.275790
    30  H    0.276871
    31  H    0.226540
    32  N    0.488109
    33  O   -0.460102
    34  O   -0.460355
 Sum of Mulliken charges =  -0.00000

 Dipole moment (field-independent basis, Debye):
    X=              3.1554    Y=              3.2134    Z=              2.5516  Tot=              5.1762
 Quadrupole moment (field-independent basis, Debye-Ang):
   XX=           -115.5070   YY=            -90.5822   ZZ=            -93.4635
   XY=            -10.5439   XZ=             -7.1462   YZ=             -2.5634

 Normal termination of Gaussian 16 at Wed May  5 18:30:53 2021.
