 Gaussian 16, Revision A.03,
 Gaussian 16:  EM64L-G16RevA.03 25-Dec-2016

 -------------
 #p 6-31g* mp2
 -------------

 ------------------------------------------------------
 Input file generated by CHIRIPA (05-May-2021 14:55:25)
 ------------------------------------------------------
 Symbolic Z-matrix:
 Charge =  0 Multiplicity = 1

                         Standard orientation:
 ---------------------------------------------------------------------
 Center     Atomic      Atomic             Coordinates (Angstroms)
 Number     Number       Type             X           Y           Z
 ---------------------------------------------------------------------
      1          6           0        3.799931   -2.133778    0.068366
      2          6           0        2.487427   -1.748671   -0.224118
      3          6           0        2.140528   -0.395550   -0.281317
      4          6           0        3.135776    0.550160   -0.039643
      5          6           0        4.452180    0.198034    0.254259
      6          6           0        4.776397   -1.160911    0.306202
      7          1           0        4.060600   -3.187177    0.110758
      8          1           0        1.727022   -2.502031   -0.409260
      9          1           0        1.132129   -0.069560   -0.505549
     10          1           0        5.188388    0.972003    0.434226
     11          1           0        5.796511   -1.457071    0.533580
     12          7           0        2.780536    1.985732   -0.097415
     13          8           0        3.675756    2.799500    0.119376
     14          8           0        1.613604    2.269982   -0.358394
     15          6           0       -3.457049   -0.663392    0.378768
     16          6           0       -2.602357   -1.548786   -0.528734
     17          6           0       -1.342114   -2.065316    0.166090
     18          1           0       -2.853260    0.186449    0.725402
     19          1           0       -3.738767   -1.232950    1.275223
     20          1           0       -2.323489   -0.978174   -1.423860
     21          1           0       -3.208308   -2.396515   -0.873401
     22          1           0       -1.604141   -2.657418    1.048903
     23          1           0       -0.714295   -1.231019    0.495317
     24          1           0       -0.745917   -2.696030   -0.500700
     25          6           0       -4.720419   -0.139322   -0.301656
     26          6           0       -5.575113    0.746073    0.605846
     27          6           0       -6.835355    1.262602   -0.088978
     28          1           0       -4.438701    0.430237   -1.198111
     29          1           0       -5.324209   -0.989162   -0.648290
     30          1           0       -4.969161    1.593801    0.950514
     31          1           0       -5.853980    0.175460    1.500972
     32          1           0       -7.463174    0.428304   -0.418204
     33          1           0       -6.573328    1.854703   -0.971791
     34          1           0       -7.431552    1.893316    0.577812
 ---------------------------------------------------------------------

 SCF Done:  E(RHF) =  -669.534977539     A.U. after   15 cycles
 E2 =    -0.2091882954D+01 EUMP2 =    -0.67162686049322D+03

 The electronic state is 1-A.
 Alpha  occ. eigenvalues --  -20.60746 -20.60740 -15.85797 -11.31125 -11.27693
 Alpha  occ. eigenvalues --  -11.27650 -11.27418 -11.26711 -11.26639 -11.22094
 Alpha  occ. eigenvalues --  -11.21956 -11.21603 -11.21585 -11.21451 -11.21021
 Alpha  occ. eigenvalues --   -1.59821  -1.39376  -1.19292  -1.08696  -1.08649
 Alpha  occ. eigenvalues --   -1.04695  -1.03825  -0.96311  -0.95536  -0.87345
 Alpha  occ. eigenvalues --   -0.86090  -0.82371  -0.79905  -0.78405  -0.77416
 Alpha  occ. eigenvalues --   -0.72017  -0.71143  -0.70418  -0.65288  -0.64939
 Alpha  occ. eigenvalues --   -0.64712  -0.62164  -0.61140  -0.59709  -0.57884
 Alpha  occ. eigenvalues --   -0.55617  -0.55158  -0.53186  -0.53049  -0.52775
 Alpha  occ. eigenvalues --   -0.52537  -0.50222  -0.48773  -0.48769  -0.48201
 Alpha  occ. eigenvalues --   -0.46893  -0.45961  -0.45842  -0.44789  -0.44055
 Alpha  occ. eigenvalues --   -0.37276  -0.36274
 Alpha virt. eigenvalues --    0.05081   0.11336   0.16559   0.20173   0.22819
 Alpha virt. eigenvalues --    0.23968   0.25795   0.26274   0.27139   0.27833
 Alpha virt. eigenvalues --    0.29070   0.30057   0.31377   0.31769   0.32535

 Mulliken charges:
               1
     1  C   -0.171734
     2  C   -0.220779
     3  C   -0.176927
     4  C    0.159423
     5  C   -0.171249
     6  C   -0.218402
     7  H    0.225582
     8  H    0.229728
     9  H    0.278484
    10  H    0.275241
    11  H    0.223109
    12  N    0.488265
    13  O   -0.460462
    14  O   -0.461372
    15  C   -0.300240
    16  C   -0.300010
    17  C   -0.485065
    18  H    0.155396
    19  H    0.149469
    20  H    0.154450
    21  H    0.153593
    22  H    0.160656
    23  H    0.156970
    24  H    0.151983
    25  C   -0.298925
    26  C   -0.300437
    27  C   -0.476014
    28  H    0.152046
    29  H    0.148804
    30  H    0.155265
    31  H    0.151287
    32  H    0.154316
    33  H    0.156523
    34  H    0.161025
 Sum of Mulliken charges =  -0.00000

 Dipole moment (field-independent basis, Debye):
    X=              1.0845    Y=             -5.0180    Z=              0.2344  Tot=              5.1392
 Quadrupole moment (field-independent basis, Debye-Ang):
   XX=            -82.6618   YY=           -100.2751   ZZ=            -95.4298
   XY=            -13.3469   XZ=              1.2737   YZ=              0.4534

 Normal termination of Gaussian 16 at Thu May  6 00:02:38 2021.
