 Gaussian 16, Revision A.03,
 Gaussian 16:  EM64L-G16RevA.03 25-Dec-2016

 -------------
 #p 6-31g* mp2
 -------------

 ------------------------------------------------------
 Input file generated by CHIRIPA (05-May-2021 14:57:26)
 ------------------------------------------------------
 Symbolic Z-matrix:
 Charge =  0 Multiplicity = 1

                         Standard orientation:
 ---------------------------------------------------------------------
 Center     Atomic      Atomic             Coordinates (Angstroms)
 Number     Number       Type             X           Y           Z
 ---------------------------------------------------------------------
      1          6           0        5.041490    1.452801   -0.423944
      2          6           0        4.883481    0.179358   -0.980628
      3          6           0        3.808264   -0.631365   -0.604883
      4          6           0        2.905863   -0.134728    0.334433
      5          6           0        3.036158    1.129568    0.907031
      6          6           0        4.118951    1.923013    0.516451
      7          1           0        5.879687    2.075879   -0.721594
      8          1           0        5.598388   -0.188418   -1.711172
      9          1           0        3.661997   -1.621163   -1.020002
     10          1           0        2.307181    1.468748    1.632956
     11          1           0        4.239153    2.911572    0.950440
     12          7           0        1.763569   -0.983859    0.740071
     13          8           0        0.982333   -0.523157    1.569565
     14          8           0        1.671104   -2.094030    0.220834
     15          6           0       -4.762976    1.832250    0.184720
     16          6           0       -3.684602    2.062324   -0.675917
     17          6           0       -2.753819    1.051542   -0.933813
     18          6           0       -2.932789   -0.182859   -0.311306
     19          6           0       -3.996756   -0.442841    0.551058
     20          6           0       -4.915343    0.582605    0.794385
     21          1           0       -5.481293    2.623146    0.379401
     22          1           0       -3.563759    3.031831   -1.150786
     23          1           0       -1.909762    1.202522   -1.595774
     24          1           0       -4.090747   -1.419673    1.009732
     25          1           0       -5.751858    0.401081    1.463219
     26          7           0       -1.953867   -1.260690   -0.576617
     27          8           0       -2.133888   -2.339434   -0.015778
     28          8           0       -1.025103   -1.006342   -1.340385
 ---------------------------------------------------------------------

 SCF Done:  E(RHF) =  -868.336312755     A.U. after   16 cycles
 E2 =    -0.2601163035D+01 EUMP2 =    -0.87093747579026D+03

 The electronic state is 1-A.
 Alpha  occ. eigenvalues --  -20.59776 -20.59608 -20.59605 -20.59517 -15.84750
 Alpha  occ. eigenvalues --  -15.84648 -11.30469 -11.30341 -11.27120 -11.27041
 Alpha  occ. eigenvalues --  -11.26990 -11.26930 -11.26912 -11.26791 -11.26217
 Alpha  occ. eigenvalues --  -11.26164 -11.26094 -11.26049  -1.58742  -1.58588
 Alpha  occ. eigenvalues --   -1.38292  -1.38167  -1.18677  -1.18547  -1.08008
 Alpha  occ. eigenvalues --   -1.07879  -1.04140  -1.04018  -0.94789  -0.94661
 Alpha  occ. eigenvalues --   -0.85521  -0.85401  -0.81628  -0.81516  -0.76609
 Alpha  occ. eigenvalues --   -0.76495  -0.70999  -0.70925  -0.70294  -0.69798
 Alpha  occ. eigenvalues --   -0.69683  -0.69596  -0.64331  -0.64211  -0.64156
 Alpha  occ. eigenvalues --   -0.64040  -0.61486  -0.61372  -0.54644  -0.54523
 Alpha  occ. eigenvalues --   -0.52449  -0.52307  -0.52243  -0.52130  -0.47907
 Alpha  occ. eigenvalues --   -0.47728  -0.47585  -0.47446  -0.43645  -0.43471
 Alpha  occ. eigenvalues --   -0.36678  -0.36539  -0.35761  -0.35634
 Alpha virt. eigenvalues --    0.05946   0.06092   0.11890   0.12018   0.17371
 Alpha virt. eigenvalues --    0.17504   0.21949   0.22045   0.27830   0.27917
 Alpha virt. eigenvalues --    0.28880   0.28974   0.31440   0.31563   0.33156

 Mulliken charges:
               1
     1  C   -0.172286
     2  C   -0.218875
     3  C   -0.169336
     4  C    0.161932
     5  C   -0.172807
     6  C   -0.218965
     7  H    0.222509
     8  H    0.221699
     9  H    0.278186
    10  H    0.272368
    11  H    0.219630
    12  N    0.491622
    13  O   -0.472606
    14  O   -0.443246
    15  C   -0.172173
    16  C   -0.218822
    17  C   -0.170960
    18  C    0.164366
    19  C   -0.169413
    20  C   -0.218582
    21  H    0.222007
    22  H    0.219027
    23  H    0.271638
    24  H    0.276329
    25  H    0.221049
    26  N    0.493611
    27  O   -0.451653
    28  O   -0.466246
 Sum of Mulliken charges =  -0.00000

 Dipole moment (field-independent basis, Debye):
    X=              0.5765    Y=              6.3183    Z=             -0.5183  Tot=              6.3657
 Quadrupole moment (field-independent basis, Debye-Ang):
   XX=            -62.1409   YY=           -103.1808   ZZ=           -104.0519
   XY=             -1.9152   XZ=             -7.9541   YZ=              0.2844

 Normal termination of Gaussian 16 at Thu May  6 11:27:14 2021.
