 Gaussian 16, Revision A.03,
 Gaussian 16:  EM64L-G16RevA.03 25-Dec-2016

 -------------
 #p 6-31g* mp2
 -------------

 ------------------------------------------------------
 Input file generated by CHIRIPA (05-May-2021 14:55:24)
 ------------------------------------------------------
 Symbolic Z-matrix:
 Charge =  0 Multiplicity = 1

                         Standard orientation:
 ---------------------------------------------------------------------
 Center     Atomic      Atomic             Coordinates (Angstroms)
 Number     Number       Type             X           Y           Z
 ---------------------------------------------------------------------
      1          6           0        1.714426    1.446301   -0.203662
      2          6           0        1.571420    0.149368    0.300358
      3          6           0        2.675260   -0.704117    0.387806
      4          6           0        3.912922   -0.225826   -0.039653
      5          6           0        4.087488    1.061033   -0.546420
      6          6           0        2.969791    1.897199   -0.624700
      7          1           0        0.851555    2.102582   -0.268033
      8          1           0        0.597698   -0.203492    0.628079
      9          1           0        2.592860   -1.712842    0.773944
     10          1           0        5.070897    1.384469   -0.865342
     11          1           0        3.083819    2.903922   -1.016555
     12          7           0        5.088843   -1.120205    0.048071
     13          8           0        6.168455   -0.674927   -0.335077
     14          8           0        4.908651   -2.249562    0.498316
     15          6           0       -5.418409   -0.213030    0.297997
     16          6           0       -6.128283   -1.003269   -0.801816
     17          6           0       -7.443029   -1.624231   -0.328907
     18          1           0       -5.225759   -0.877076    1.151739
     19          1           0       -6.088486    0.577992    0.662246
     20          1           0       -5.456553   -1.791690   -1.164841
     21          1           0       -6.319095   -0.337313   -1.653114
     22          1           0       -8.134163   -0.847787    0.014703
     23          1           0       -7.266721   -2.310428    0.505751
     24          1           0       -7.933755   -2.184505   -1.130867
     25          6           0       -4.102528    0.413789   -0.159472
     26          6           0       -3.392654    1.204028    0.940341
     27          6           0       -2.077908    1.824990    0.467431
     28          1           0       -3.432452   -0.377234   -0.523720
     29          1           0       -4.295178    1.077834   -1.013214
     30          1           0       -3.201842    0.538072    1.791639
     31          1           0       -4.064384    1.992449    1.303366
     32          1           0       -2.254215    2.511185   -0.367226
     33          1           0       -1.386773    1.048545    0.123822
     34          1           0       -1.587182    2.385263    1.269392
 ---------------------------------------------------------------------

 SCF Done:  E(RHF) =  -669.535032124     A.U. after   15 cycles
 E2 =    -0.2091581142D+01 EUMP2 =    -0.67162661326533D+03

 The electronic state is 1-A.
 Alpha  occ. eigenvalues --  -20.60700 -20.60695 -15.85754 -11.31096 -11.27673
 Alpha  occ. eigenvalues --  -11.27668 -11.27333 -11.26661 -11.26645 -11.22662
 Alpha  occ. eigenvalues --  -11.22519 -11.22230 -11.22134 -11.22022 -11.21500
 Alpha  occ. eigenvalues --   -1.59777  -1.39331  -1.19266  -1.09232  -1.08658
 Alpha  occ. eigenvalues --   -1.04675  -1.04375  -0.96865  -0.95494  -0.87899
 Alpha  occ. eigenvalues --   -0.86068  -0.82336  -0.80466  -0.78984  -0.77394
 Alpha  occ. eigenvalues --   -0.71973  -0.71100  -0.70363  -0.65882  -0.64919
 Alpha  occ. eigenvalues --   -0.64711  -0.62117  -0.61681  -0.60251  -0.58421
 Alpha  occ. eigenvalues --   -0.56151  -0.55189  -0.53517  -0.53281  -0.52989
 Alpha  occ. eigenvalues --   -0.52756  -0.50784  -0.48766  -0.48729  -0.48715
 Alpha  occ. eigenvalues --   -0.47461  -0.46538  -0.46427  -0.44742  -0.44602
 Alpha  occ. eigenvalues --   -0.37231  -0.36282
 Alpha virt. eigenvalues --    0.05147   0.11344   0.16644   0.20206   0.22272
 Alpha virt. eigenvalues --    0.23655   0.25506   0.25941   0.26743   0.27362
 Alpha virt. eigenvalues --    0.29166   0.29485   0.30678   0.31397   0.31950

 Mulliken charges:
               1
     1  C   -0.175360
     2  C   -0.223824
     3  C   -0.170858
     4  C    0.158107
     5  C   -0.170806
     6  C   -0.219588
     7  H    0.235747
     8  H    0.225491
     9  H    0.275147
    10  H    0.275190
    11  H    0.223252
    12  N    0.488060
    13  O   -0.460664
    14  O   -0.460799
    15  C   -0.299036
    16  C   -0.300236
    17  C   -0.476167
    18  H    0.150636
    19  H    0.151040
    20  H    0.152612
    21  H    0.152695
    22  H    0.155874
    23  H    0.155975
    24  H    0.162017
    25  C   -0.298997
    26  C   -0.300572
    27  C   -0.486036
    28  H    0.148729
    29  H    0.151311
    30  H    0.153689
    31  H    0.156628
    32  H    0.159075
    33  H    0.149375
    34  H    0.162292
 Sum of Mulliken charges =  -0.00000

 Dipole moment (field-independent basis, Debye):
    X=             -4.4389    Y=              3.1840    Z=             -0.3015  Tot=              5.4711
 Quadrupole moment (field-independent basis, Debye-Ang):
   XX=           -125.7114   YY=            -93.3265   ZZ=            -94.7067
   XY=             14.8264   XZ=             -2.0526   YZ=             -1.8138

 Normal termination of Gaussian 16 at Wed May  5 19:08:19 2021.
