 Gaussian 16, Revision A.03,
 Gaussian 16:  EM64L-G16RevA.03 25-Dec-2016

 -------------
 #p 6-31g* mp2
 -------------

 ------------------------------------------------------
 Input file generated by CHIRIPA (05-May-2021 14:53:11)
 ------------------------------------------------------
 Symbolic Z-matrix:
 Charge =  0 Multiplicity = 1

                         Standard orientation:
 ---------------------------------------------------------------------
 Center     Atomic      Atomic             Coordinates (Angstroms)
 Number     Number       Type             X           Y           Z
 ---------------------------------------------------------------------
      1          6           0        2.546906    1.410481   -0.558050
      2          6           0        1.292859    2.102397   -0.022696
      3          6           0        0.801138    3.224951   -0.936959
      4          1           0        3.343215    2.156447   -0.685997
      5          1           0        2.335203    1.004794   -1.557047
      6          1           0        1.506449    2.505455    0.975573
      7          1           0        0.499502    1.354663    0.104173
      8          1           0        0.560746    2.834628   -1.931172
      9          1           0        1.573414    3.991957   -1.054821
     10          1           0       -0.096169    3.705902   -0.535231
     11          6           0        3.050613    0.285953    0.344969
     12          6           0        4.304660   -0.405963   -0.190386
     13          6           0        4.796381   -1.528517    0.723877
     14          1           0        3.262316    0.691639    1.343966
     15          1           0        2.254304   -0.460014    0.472916
     16          1           0        5.098017    0.341770   -0.317254
     17          1           0        4.091070   -0.809021   -1.188654
     18          1           0        4.024105   -2.295524    0.841740
     19          1           0        5.036773   -1.138194    1.718091
     20          1           0        5.693688   -2.009469    0.322149
     21          6           0       -3.871633    1.111394    0.698907
     22          6           0       -4.013171    0.395548   -0.494431
     23          6           0       -3.085516   -0.589650   -0.845698
     24          6           0       -2.023622   -0.834179    0.023714
     25          6           0       -1.855345   -0.137915    1.219619
     26          6           0       -2.795070    0.842851    1.550621
     27          1           0       -4.596947    1.874998    0.963907
     28          1           0       -4.848253    0.601973   -1.157809
     29          1           0       -3.171036   -1.158789   -1.763404
     30          1           0       -1.012454   -0.366129    1.860611
     31          1           0       -2.682630    1.397219    2.478026
     32          7           0       -1.035166   -1.874819   -0.337430
     33          8           0       -0.108450   -2.071303    0.445659
     34          8           0       -1.205846   -2.474282   -1.396744
 ---------------------------------------------------------------------

 SCF Done:  E(RHF) =  -669.536208161     A.U. after   15 cycles
 E2 =    -0.2093242248D+01 EUMP2 =    -0.67162945040919D+03

 The electronic state is 1-A.
 Alpha  occ. eigenvalues --  -20.61040 -20.61034 -15.86055 -11.31336 -11.27893
 Alpha  occ. eigenvalues --  -11.27887 -11.27622 -11.26888 -11.26878 -11.21364
 Alpha  occ. eigenvalues --  -11.20979 -11.20869 -11.20799 -11.20484 -11.20216
 Alpha  occ. eigenvalues --   -1.60091  -1.39649  -1.19506  -1.08913  -1.07841
 Alpha  occ. eigenvalues --   -1.04893  -1.02998  -0.95763  -0.95436  -0.86466
 Alpha  occ. eigenvalues --   -0.86291  -0.82596  -0.79112  -0.77734  -0.77529
 Alpha  occ. eigenvalues --   -0.72281  -0.71404  -0.70609  -0.65162  -0.64891
 Alpha  occ. eigenvalues --   -0.64453  -0.62238  -0.60399  -0.58857  -0.57050
 Alpha  occ. eigenvalues --   -0.55396  -0.54716  -0.53231  -0.52978  -0.52184
 Alpha  occ. eigenvalues --   -0.51861  -0.49377  -0.49049  -0.49029  -0.47417
 Alpha  occ. eigenvalues --   -0.46151  -0.45501  -0.45145  -0.44548  -0.43220
 Alpha  occ. eigenvalues --   -0.37463  -0.36449
 Alpha virt. eigenvalues --    0.04822   0.11088   0.16286   0.21213   0.23366
 Alpha virt. eigenvalues --    0.24859   0.26510   0.27279   0.27674   0.28435
 Alpha virt. eigenvalues --    0.28863   0.31095   0.31835   0.32093   0.32348

 Mulliken charges:
               1
     1  C   -0.297276
     2  C   -0.303643
     3  C   -0.474133
     4  H    0.146894
     5  H    0.151101
     6  H    0.147327
     7  H    0.151859
     8  H    0.155679
     9  H    0.155107
    10  H    0.154930
    11  C   -0.311540
    12  C   -0.298016
    13  C   -0.477603
    14  H    0.142596
    15  H    0.173909
    16  H    0.146942
    17  H    0.154285
    18  H    0.165125
    19  H    0.150801
    20  H    0.157287
    21  C   -0.170397
    22  C   -0.218227
    23  C   -0.170832
    24  C    0.158951
    25  C   -0.170977
    26  C   -0.218096
    27  H    0.226326
    28  H    0.224063
    29  H    0.275872
    30  H    0.277183
    31  H    0.224582
    32  N    0.488993
    33  O   -0.460813
    34  O   -0.458259
 Sum of Mulliken charges =  -0.00000

 Dipole moment (field-independent basis, Debye):
    X=             -3.7005    Y=              3.4488    Z=              1.2536  Tot=              5.2115
 Quadrupole moment (field-independent basis, Debye-Ang):
   XX=            -80.2364   YY=           -101.9734   ZZ=            -91.3988
   XY=             -3.7538   XZ=             -0.3702   YZ=              0.8083

 Normal termination of Gaussian 16 at Wed May  5 18:27:11 2021.
