 Gaussian 16, Revision A.03,
 Gaussian 16:  EM64L-G16RevA.03 25-Dec-2016

 -------------
 #p 6-31g* mp2
 -------------

 ------------------------------------------------------
 Input file generated by CHIRIPA (05-May-2021 14:51:14)
 ------------------------------------------------------
 Symbolic Z-matrix:
 Charge =  0 Multiplicity = 1

                         Standard orientation:
 ---------------------------------------------------------------------
 Center     Atomic      Atomic             Coordinates (Angstroms)
 Number     Number       Type             X           Y           Z
 ---------------------------------------------------------------------
      1          6           0       -2.992775    0.560368   -0.020760
      2          6           0       -2.439131    1.894077   -0.523436
      3          6           0       -0.910729    1.927784   -0.548806
      4          1           0       -2.603512    0.365876    0.987998
      5          1           0       -2.617831   -0.249360   -0.661972
      6          1           0       -2.816121    2.701194    0.117701
      7          1           0       -2.829910    2.085508   -1.531038
      8          1           0       -0.518904    1.142774   -1.203660
      9          1           0       -0.505036    1.761958    0.454447
     10          1           0       -0.536353    2.890215   -0.911337
     11          6           0       -4.519323    0.511247    0.010351
     12          6           0       -5.072967   -0.822463    0.513027
     13          6           0       -6.601369   -0.856169    0.538397
     14          1           0       -4.894267    1.320974    0.651564
     15          1           0       -4.908586    0.705738   -0.998407
     16          1           0       -4.682188   -1.013894    1.520629
     17          1           0       -4.695977   -1.629580   -0.128110
     18          1           0       -7.007062   -0.690344   -0.464856
     19          1           0       -6.993194   -0.071159    1.193251
     20          1           0       -6.975745   -1.818601    0.900928
     21          6           0        4.503474   -0.441546   -0.120899
     22          6           0        5.124615    0.673370    0.721200
     23          6           0        6.620353    0.849815    0.457708
     24          1           0        5.027556   -1.384508    0.086722
     25          1           0        4.665798   -0.221492   -1.185146
     26          1           0        4.959960    0.451980    1.783504
     27          1           0        4.598869    1.613750    0.511693
     28          1           0        6.799953    1.094936   -0.594081
     29          1           0        7.163096   -0.073436    0.684956
     30          1           0        7.044007    1.651900    1.070112
     31          6           0        3.008623   -0.630068    0.131308
     32          6           0        2.387484   -1.744985   -0.710791
     33          6           0        0.891744   -1.921429   -0.447300
     34          1           0        2.846300   -0.850122    1.195555
     35          1           0        2.484542    0.312895   -0.076312
     36          1           0        2.913230   -2.685365   -0.501284
     37          1           0        2.552138   -1.523594   -1.773094
     38          1           0        0.349003   -0.998179   -0.674547
     39          1           0        0.712146   -2.166550    0.604490
     40          1           0        0.468092   -2.723514   -1.059702
 ---------------------------------------------------------------------

 SCF Done:  E(RHF) =  -470.733175118     A.U. after   11 cycles
 E2 =    -0.1582867425D+01 EUMP2 =    -0.47231604254295D+03

 The electronic state is 1-A.
 Alpha  occ. eigenvalues --  -11.21627 -11.21583 -11.21562 -11.21542 -11.21394
 Alpha  occ. eigenvalues --  -11.21349 -11.21334 -11.21285 -11.21124 -11.21058
 Alpha  occ. eigenvalues --  -11.21041 -11.20960  -1.08431  -1.08373  -1.03550
 Alpha  occ. eigenvalues --   -1.03468  -0.96001  -0.95917  -0.87021  -0.86933
 Alpha  occ. eigenvalues --   -0.79654  -0.79497  -0.78261  -0.78158  -0.65078
 Alpha  occ. eigenvalues --   -0.64993  -0.61015  -0.60821  -0.59376  -0.59284
 Alpha  occ. eigenvalues --   -0.57660  -0.57485  -0.55369  -0.55135  -0.52693
 Alpha  occ. eigenvalues --   -0.52623  -0.52478  -0.52298  -0.50033  -0.49787
 Alpha  occ. eigenvalues --   -0.48091  -0.47717  -0.46711  -0.46486  -0.45881
 Alpha  occ. eigenvalues --   -0.45709  -0.45683  -0.45471  -0.43790  -0.43730
 Alpha virt. eigenvalues --    0.21511   0.22988   0.23527   0.24907   0.26018
 Alpha virt. eigenvalues --    0.26353   0.27044   0.27414   0.28175   0.29267
 Alpha virt. eigenvalues --    0.30436   0.31484   0.31742   0.31810   0.32025

 Mulliken charges:
               1
     1  C   -0.299605
     2  C   -0.299919
     3  C   -0.480338
     4  H    0.150130
     5  H    0.151494
     6  H    0.152101
     7  H    0.151885
     8  H    0.158370
     9  H    0.156757
    10  H    0.160398
    11  C   -0.298365
    12  C   -0.299637
    13  C   -0.475718
    14  H    0.149457
    15  H    0.149517
    16  H    0.152030
    17  H    0.152262
    18  H    0.155113
    19  H    0.155098
    20  H    0.160254
    21  C   -0.298193
    22  C   -0.299658
    23  C   -0.475665
    24  H    0.149454
    25  H    0.149393
    26  H    0.151735
    27  H    0.152158
    28  H    0.155131
    29  H    0.155077
    30  H    0.160106
    31  C   -0.300055
    32  C   -0.299168
    33  C   -0.483232
    34  H    0.149069
    35  H    0.152264
    36  H    0.151609
    37  H    0.151233
    38  H    0.163389
    39  H    0.154961
    40  H    0.159106
 Sum of Mulliken charges =  -0.00000

 Dipole moment (field-independent basis, Debye):
    X=             -0.0345    Y=              0.0273    Z=              0.0053  Tot=              0.0443
 Quadrupole moment (field-independent basis, Debye-Ang):
   XX=            -87.2410   YY=            -84.3757   ZZ=            -83.3158
   XY=             -0.5552   XZ=              0.3390   YZ=             -0.1424

 Normal termination of Gaussian 16 at Wed May  5 15:23:22 2021.
