 Gaussian 16, Revision A.03,
 Gaussian 16:  EM64L-G16RevA.03 25-Dec-2016

 -------------
 #p 6-31g* mp2
 -------------

 ------------------------------------------------------
 Input file generated by CHIRIPA (05-May-2021 14:51:12)
 ------------------------------------------------------
 Symbolic Z-matrix:
 Charge =  0 Multiplicity = 1

                         Standard orientation:
 ---------------------------------------------------------------------
 Center     Atomic      Atomic             Coordinates (Angstroms)
 Number     Number       Type             X           Y           Z
 ---------------------------------------------------------------------
      1          6           0       -3.099473    0.377203   -0.858893
      2          6           0       -2.319961    1.591274   -0.352558
      3          6           0       -1.540850    2.298266   -1.462037
      4          1           0       -2.400889   -0.330186   -1.326361
      5          1           0       -3.793391    0.698742   -1.647870
      6          1           0       -1.628705    1.267771    0.436193
      7          1           0       -3.020457    2.295767    0.113930
      8          1           0       -2.219622    2.648627   -2.246331
      9          1           0       -0.819963    1.614790   -1.922237
     10          1           0       -0.990947    3.163136   -1.078021
     11          6           0       -3.883455   -0.340135    0.238617
     12          6           0       -4.662968   -1.554207   -0.267717
     13          6           0       -5.442079   -2.261199    0.841762
     14          1           0       -3.189537   -0.661674    1.027595
     15          1           0       -4.582039    0.367253    0.706086
     16          1           0       -3.962472   -2.258700   -0.734205
     17          1           0       -5.354223   -1.230704   -1.056468
     18          1           0       -6.162965   -1.577722    1.301962
     19          1           0       -4.763306   -2.611559    1.626055
     20          1           0       -5.991982   -3.126068    0.457746
     21          6           0        3.174696    0.378525    0.880606
     22          6           0        1.856839    1.050211    0.493210
     23          6           0        1.235327    1.840783    1.644955
     24          1           0        3.000804   -0.290389    1.734573
     25          1           0        3.882342    1.145934    1.223702
     26          1           0        1.152353    0.281919    0.149638
     27          1           0        2.033849    1.717459   -0.360056
     28          1           0        1.916814    2.627708    1.983963
     29          1           0        1.030309    1.184011    2.496553
     30          1           0        0.294102    2.312641    1.346117
     31          6           0        3.808232   -0.415592   -0.260331
     32          6           0        5.126090   -1.087279    0.127065
     33          6           0        5.747601   -1.877851   -1.024680
     34          1           0        3.100586   -1.183002   -0.603427
     35          1           0        3.982123    0.253321   -1.114298
     36          1           0        4.949079   -1.754527    0.980331
     37          1           0        5.830575   -0.318986    0.470636
     38          1           0        5.952619   -1.221079   -1.876278
     39          1           0        5.066115   -2.664776   -1.363688
     40          1           0        6.688827   -2.349708   -0.725842
 ---------------------------------------------------------------------

 SCF Done:  E(RHF) =  -470.732977636     A.U. after   11 cycles
 E2 =    -0.1583309615D+01 EUMP2 =    -0.47231628725137D+03

 The electronic state is 1-A.
 Alpha  occ. eigenvalues --  -11.21616 -11.21614 -11.21604 -11.21559 -11.21421
 Alpha  occ. eigenvalues --  -11.21401 -11.21362 -11.21342 -11.21083 -11.21075
 Alpha  occ. eigenvalues --  -11.21049 -11.21046  -1.08460  -1.08411  -1.03597
 Alpha  occ. eigenvalues --   -1.03473  -0.96044  -0.95924  -0.87012  -0.86986
 Alpha  occ. eigenvalues --   -0.79648  -0.79547  -0.78258  -0.78242  -0.65130
 Alpha  occ. eigenvalues --   -0.65021  -0.61079  -0.60873  -0.59573  -0.59144
 Alpha  occ. eigenvalues --   -0.57778  -0.57369  -0.55293  -0.55221  -0.52748
 Alpha  occ. eigenvalues --   -0.52613  -0.52450  -0.52340  -0.49941  -0.49909
 Alpha  occ. eigenvalues --   -0.47945  -0.47892  -0.46655  -0.46579  -0.45816
 Alpha  occ. eigenvalues --   -0.45771  -0.45725  -0.45668  -0.43800  -0.43753
 Alpha virt. eigenvalues --    0.20714   0.23154   0.23359   0.25308   0.26127
 Alpha virt. eigenvalues --    0.26641   0.26827   0.27333   0.27929   0.29136
 Alpha virt. eigenvalues --    0.30191   0.31180   0.31351   0.31615   0.32315

 Mulliken charges:
               1
     1  C   -0.297873
     2  C   -0.306561
     3  C   -0.476975
     4  H    0.149292
     5  H    0.149487
     6  H    0.158758
     7  H    0.151606
     8  H    0.154995
     9  H    0.157162
    10  H    0.160193
    11  C   -0.298325
    12  C   -0.299627
    13  C   -0.475693
    14  H    0.149397
    15  H    0.149741
    16  H    0.151785
    17  H    0.151995
    18  H    0.155239
    19  H    0.155092
    20  H    0.160243
    21  C   -0.298394
    22  C   -0.300429
    23  C   -0.481921
    24  H    0.149492
    25  H    0.149760
    26  H    0.151705
    27  H    0.153259
    28  H    0.155283
    29  H    0.154419
    30  H    0.166966
    31  C   -0.298262
    32  C   -0.299646
    33  C   -0.475716
    34  H    0.149146
    35  H    0.149793
    36  H    0.151917
    37  H    0.152027
    38  H    0.155249
    39  H    0.155109
    40  H    0.160312
 Sum of Mulliken charges =  -0.00000

 Dipole moment (field-independent basis, Debye):
    X=              0.0077    Y=              0.0116    Z=             -0.0025  Tot=              0.0141
 Quadrupole moment (field-independent basis, Debye-Ang):
   XX=            -84.6098   YY=            -84.4840   ZZ=            -85.7113
   XY=             -0.0674   XZ=              0.8021   YZ=             -0.3866

 Normal termination of Gaussian 16 at Thu May  6 00:43:46 2021.
