 Gaussian 16, Revision A.03,
 Gaussian 16:  EM64L-G16RevA.03 25-Dec-2016

 -------------
 #p 6-31g* mp2
 -------------

 ------------------------------------------------------
 Input file generated by CHIRIPA (05-May-2021 14:53:14)
 ------------------------------------------------------
 Symbolic Z-matrix:
 Charge =  0 Multiplicity = 1

                         Standard orientation:
 ---------------------------------------------------------------------
 Center     Atomic      Atomic             Coordinates (Angstroms)
 Number     Number       Type             X           Y           Z
 ---------------------------------------------------------------------
      1          6           0       -3.338578    0.748917   -0.453069
      2          6           0       -2.288513    1.482840    0.381621
      3          6           0       -1.756792    2.739085   -0.308970
      4          1           0       -2.902127    0.478297   -1.424264
      5          1           0       -4.172181    1.432819   -0.664678
      6          1           0       -1.457778    0.797337    0.592763
      7          1           0       -2.727455    1.751575    1.351016
      8          1           0       -2.570694    3.444489   -0.505363
      9          1           0       -1.293802    2.484829   -1.267925
     10          1           0       -1.007433    3.248147    0.305176
     11          6           0       -3.879681   -0.509065    0.223996
     12          6           0       -4.929746   -1.242988   -0.610694
     13          6           0       -5.461467   -2.499233    0.079897
     14          1           0       -3.046078   -1.192967    0.435605
     15          1           0       -4.316132   -0.238445    1.195191
     16          1           0       -4.490804   -1.511723   -1.580089
     17          1           0       -5.760482   -0.557485   -0.821836
     18          1           0       -5.924457   -2.244977    1.038852
     19          1           0       -4.647566   -3.204637    0.276290
     20          1           0       -6.210826   -3.008295   -0.534249
     21          6           0        4.151410   -2.198418   -0.313536
     22          6           0        3.353422   -2.083074    0.829457
     23          6           0        2.611259   -0.921520    1.062981
     24          6           0        2.690882    0.109785    0.128444
     25          6           0        3.476752    0.024944   -1.019816
     26          6           0        4.210423   -1.145896   -1.232903
     27          1           0        4.724642   -3.104348   -0.487005
     28          1           0        3.305665   -2.898872    1.545166
     29          1           0        1.985379   -0.805683    1.939495
     30          1           0        3.504062    0.855078   -1.715192
     31          1           0        4.829301   -1.232692   -2.121442
     32          7           0        1.909680    1.344386    0.364848
     33          8           0        1.996965    2.238693   -0.473742
     34          8           0        1.224884    1.394381    1.384255
 ---------------------------------------------------------------------

 SCF Done:  E(RHF) =  -669.536330755     A.U. after   15 cycles
 E2 =    -0.2092175222D+01 EUMP2 =    -0.67162850597671D+03

 The electronic state is 1-A.
 Alpha  occ. eigenvalues --  -20.61042 -20.61034 -15.86033 -11.31345 -11.27901
 Alpha  occ. eigenvalues --  -11.27897 -11.27634 -11.26903 -11.26893 -11.21133
 Alpha  occ. eigenvalues --  -11.20744 -11.20737 -11.20438 -11.20171 -11.19310
 Alpha  occ. eigenvalues --   -1.60075  -1.39634  -1.19508  -1.08916  -1.07598
 Alpha  occ. eigenvalues --   -1.04900  -1.02566  -0.95764  -0.95014  -0.86301
 Alpha  occ. eigenvalues --   -0.86043  -0.82594  -0.78705  -0.77655  -0.77319
 Alpha  occ. eigenvalues --   -0.72251  -0.71392  -0.70615  -0.65162  -0.64902
 Alpha  occ. eigenvalues --   -0.64250  -0.62246  -0.59983  -0.58472  -0.56579
 Alpha  occ. eigenvalues --   -0.55402  -0.54349  -0.53228  -0.52990  -0.51675
 Alpha  occ. eigenvalues --   -0.51458  -0.49119  -0.49017  -0.48865  -0.46980
 Alpha  occ. eigenvalues --   -0.45872  -0.45249  -0.44863  -0.44445  -0.42798
 Alpha  occ. eigenvalues --   -0.37484  -0.36500
 Alpha virt. eigenvalues --    0.04841   0.11153   0.16316   0.21279   0.23567
 Alpha virt. eigenvalues --    0.25315   0.27174   0.27395   0.28042   0.28422
 Alpha virt. eigenvalues --    0.29021   0.30826   0.32109   0.32356   0.32697

 Mulliken charges:
               1
     1  C   -0.297727
     2  C   -0.299282
     3  C   -0.477289
     4  H    0.145487
     5  H    0.146899
     6  H    0.156294
     7  H    0.148251
     8  H    0.144261
     9  H    0.151691
    10  H    0.181426
    11  C   -0.296442
    12  C   -0.298675
    13  C   -0.474935
    14  H    0.145591
    15  H    0.148972
    16  H    0.150079
    17  H    0.151680
    18  H    0.154847
    19  H    0.152732
    20  H    0.158401
    21  C   -0.170503
    22  C   -0.218558
    23  C   -0.171122
    24  C    0.158772
    25  C   -0.170822
    26  C   -0.218583
    27  H    0.226215
    28  H    0.224091
    29  H    0.276101
    30  H    0.275997
    31  H    0.224029
    32  N    0.488215
    33  O   -0.457957
    34  O   -0.458137
 Sum of Mulliken charges =  -0.00000

 Dipole moment (field-independent basis, Debye):
    X=              3.1368    Y=             -4.2505    Z=             -0.7513  Tot=              5.3358
 Quadrupole moment (field-independent basis, Debye-Ang):
   XX=            -80.6216   YY=            -96.0305   ZZ=            -91.5773
   XY=            -11.7933   XZ=             -4.1119   YZ=             -1.8119

 Normal termination of Gaussian 16 at Thu May  6 01:04:03 2021.
