 Gaussian 16, Revision A.03,
 Gaussian 16:  EM64L-G16RevA.03 25-Dec-2016

 -------------
 #p 6-31g* mp2
 -------------

 ------------------------------------------------------
 Input file generated by CHIRIPA (05-May-2021 14:55:19)
 ------------------------------------------------------
 Symbolic Z-matrix:
 Charge =  0 Multiplicity = 1

                         Standard orientation:
 ---------------------------------------------------------------------
 Center     Atomic      Atomic             Coordinates (Angstroms)
 Number     Number       Type             X           Y           Z
 ---------------------------------------------------------------------
      1          6           0       -0.893931   -0.323369    1.891872
      2          6           0       -2.233525   -0.416465    2.283462
      3          6           0       -3.258165   -0.320846    1.337144
      4          6           0       -2.905665   -0.131336    0.001809
      5          6           0       -1.580379   -0.034684   -0.419574
      6          6           0       -0.572201   -0.133111    0.543980
      7          1           0       -0.104360   -0.398738    2.633689
      8          1           0       -2.486340   -0.564218    3.329549
      9          1           0       -4.303514   -0.389479    1.612741
     10          1           0       -1.359499    0.112650   -1.469775
     11          1           0        0.467278   -0.060450    0.236978
     12          7           0       -3.981692   -0.028622   -1.009138
     13          8           0       -3.644849    0.138297   -2.179315
     14          8           0       -5.141550   -0.116979   -0.612201
     15          6           0        3.484679    0.840357    0.184567
     16          6           0        2.871201    2.014640   -0.578773
     17          6           0        2.863183    3.309119    0.234895
     18          1           0        2.925388    0.685340    1.117363
     19          1           0        4.512470    1.098029    0.475507
     20          1           0        1.845345    1.754294   -0.869387
     21          1           0        3.431899    2.166757   -1.509951
     22          1           0        3.882598    3.595793    0.512770
     23          1           0        2.287030    3.180987    1.156974
     24          1           0        2.420361    4.135505   -0.329777
     25          6           0        3.499828   -0.460801   -0.615737
     26          6           0        4.113306   -1.635084    0.147602
     27          6           0        4.121323   -2.929563   -0.666065
     28          1           0        2.472037   -0.718473   -0.906677
     29          1           0        4.059119   -0.305784   -1.548533
     30          1           0        3.552608   -1.787201    1.078780
     31          1           0        5.139162   -1.374738    0.438217
     32          1           0        4.697477   -2.801431   -1.588143
     33          1           0        3.101910   -3.216238   -0.943940
     34          1           0        4.564145   -3.755948   -0.101393
 ---------------------------------------------------------------------

 SCF Done:  E(RHF) =  -669.535076865     A.U. after   15 cycles
 E2 =    -0.2092490706D+01 EUMP2 =    -0.67162756757110D+03

 The electronic state is 1-A.
 Alpha  occ. eigenvalues --  -20.60756 -20.60751 -15.85809 -11.31181 -11.27754
 Alpha  occ. eigenvalues --  -11.27746 -11.27495 -11.26770 -11.26715 -11.22548
 Alpha  occ. eigenvalues --  -11.22497 -11.22460 -11.22405 -11.21798 -11.21746
 Alpha  occ. eigenvalues --   -1.59831  -1.39384  -1.19354  -1.09436  -1.08746
 Alpha  occ. eigenvalues --   -1.04759  -1.04383  -0.96828  -0.95582  -0.87833
 Alpha  occ. eigenvalues --   -0.86160  -0.82420  -0.80454  -0.79250  -0.77466
 Alpha  occ. eigenvalues --   -0.72028  -0.71154  -0.70467  -0.66331  -0.65006
 Alpha  occ. eigenvalues --   -0.64602  -0.62118  -0.61741  -0.60183  -0.58434
 Alpha  occ. eigenvalues --   -0.56137  -0.55253  -0.53470  -0.53239  -0.53083
 Alpha  occ. eigenvalues --   -0.52825  -0.50776  -0.48791  -0.48782  -0.48752
 Alpha  occ. eigenvalues --   -0.47517  -0.46748  -0.46715  -0.44789  -0.44680
 Alpha  occ. eigenvalues --   -0.37335  -0.36355
 Alpha virt. eigenvalues --    0.05064   0.11242   0.16496   0.18431   0.23213
 Alpha virt. eigenvalues --    0.23620   0.24741   0.25349   0.26921   0.28692
 Alpha virt. eigenvalues --    0.29841   0.30659   0.31074   0.31147   0.31723

 Mulliken charges:
               1
     1  C   -0.173962
     2  C   -0.218342
     3  C   -0.171073
     4  C    0.158979
     5  C   -0.174489
     6  C   -0.228687
     7  H    0.225561
     8  H    0.223384
     9  H    0.275641
    10  H    0.275580
    11  H    0.240602
    12  N    0.488080
    13  O   -0.460311
    14  O   -0.460549
    15  C   -0.302286
    16  C   -0.301455
    17  C   -0.475566
    18  H    0.141209
    19  H    0.156525
    20  H    0.146203
    21  H    0.157404
    22  H    0.157502
    23  H    0.154086
    24  H    0.164959
    25  C   -0.302852
    26  C   -0.298989
    27  C   -0.476562
    28  H    0.142757
    29  H    0.156477
    30  H    0.147720
    31  H    0.155409
    32  H    0.157893
    33  H    0.156355
    34  H    0.162798
 Sum of Mulliken charges =  -0.00000

 Dipole moment (field-independent basis, Debye):
    X=              4.0177    Y=             -0.3229    Z=              3.5055  Tot=              5.3417
 Quadrupole moment (field-independent basis, Debye-Ang):
   XX=           -112.8559   YY=            -95.8887   ZZ=            -92.5052
   XY=              1.4055   XZ=            -13.8505   YZ=             -1.5391

 Normal termination of Gaussian 16 at Thu May  6 20:37:34 2021.
