 Gaussian 16, Revision A.03,
 Gaussian 16:  EM64L-G16RevA.03 25-Dec-2016

 -------------
 #p 6-31g* mp2
 -------------

 ------------------------------------------------------
 Input file generated by CHIRIPA (05-May-2021 14:51:09)
 ------------------------------------------------------
 Symbolic Z-matrix:
 Charge =  0 Multiplicity = 1

                         Standard orientation:
 ---------------------------------------------------------------------
 Center     Atomic      Atomic             Coordinates (Angstroms)
 Number     Number       Type             X           Y           Z
 ---------------------------------------------------------------------
      1          6           0        3.032343    0.583839    0.412310
      2          6           0        2.061971    0.583351    1.593988
      3          6           0        1.161831    1.819009    1.620249
      4          1           0        3.652141    1.489896    0.455398
      5          1           0        2.459450    0.641245   -0.523582
      6          1           0        2.636467    0.524568    2.527324
      7          1           0        1.444542   -0.322905    1.548188
      8          1           0        0.563718    1.879433    0.705257
      9          1           0        1.762415    2.731720    1.689956
     10          1           0        0.476130    1.798140    2.473032
     11          6           0        3.938926   -0.645079    0.372372
     12          6           0        4.909297   -0.644590   -0.809307
     13          6           0        5.809438   -1.880249   -0.835568
     14          1           0        4.511818   -0.702485    1.308264
     15          1           0        3.319128   -1.551136    0.329283
     16          1           0        5.526727    0.261665   -0.763507
     17          1           0        4.334802   -0.585807   -1.742643
     18          1           0        5.208854   -2.792960   -0.905275
     19          1           0        6.407551   -1.940672    0.079424
     20          1           0        6.495139   -1.859379   -1.688351
     21          6           0       -3.699599   -0.670022   -0.176116
     22          6           0       -5.178102   -0.762685    0.202599
     23          6           0       -5.590989   -2.170558    0.632963
     24          1           0       -3.490590   -1.379415   -0.988534
     25          1           0       -3.088356   -0.986692    0.680327
     26          1           0       -5.786339   -0.444615   -0.653845
     27          1           0       -5.383657   -0.052852    1.014080
     28          1           0       -5.009288   -2.493786    1.502301
     29          1           0       -5.414258   -2.887776   -0.175099
     30          1           0       -6.651672   -2.214088    0.899265
     31          6           0       -3.271671    0.731261   -0.608565
     32          6           0       -1.793167    0.823924   -0.987281
     33          6           0       -1.380279    2.231797   -1.417645
     34          1           0       -3.882914    1.047932   -1.465008
     35          1           0       -3.480679    1.440655    0.203852
     36          1           0       -1.587612    0.114091   -1.798760
     37          1           0       -1.184930    0.505855   -0.130837
     38          1           0       -1.557011    2.949015   -0.609583
     39          1           0       -1.961981    2.555026   -2.286983
     40          1           0       -0.319596    2.275327   -1.683947
 ---------------------------------------------------------------------

 SCF Done:  E(RHF) =  -470.732656047     A.U. after   11 cycles
 E2 =    -0.1583459868D+01 EUMP2 =    -0.47231611591470D+03

 The electronic state is 1-A.
 Alpha  occ. eigenvalues --  -11.21624 -11.21615 -11.21597 -11.21589 -11.21425
 Alpha  occ. eigenvalues --  -11.21400 -11.21366 -11.21341 -11.21116 -11.21083
 Alpha  occ. eigenvalues --  -11.21067 -11.20967  -1.08467  -1.08411  -1.03607
 Alpha  occ. eigenvalues --   -1.03477  -0.96067  -0.95915  -0.87055  -0.86954
 Alpha  occ. eigenvalues --   -0.79625  -0.79581  -0.78275  -0.78230  -0.65210
 Alpha  occ. eigenvalues --   -0.64964  -0.61275  -0.60679  -0.59424  -0.59291
 Alpha  occ. eigenvalues --   -0.57704  -0.57503  -0.55530  -0.54997  -0.52727
 Alpha  occ. eigenvalues --   -0.52655  -0.52455  -0.52328  -0.49982  -0.49847
 Alpha  occ. eigenvalues --   -0.47943  -0.47875  -0.46695  -0.46556  -0.45835
 Alpha  occ. eigenvalues --   -0.45772  -0.45725  -0.45642  -0.43814  -0.43771
 Alpha virt. eigenvalues --    0.20799   0.23139   0.23580   0.24847   0.26339
 Alpha virt. eigenvalues --    0.26507   0.26881   0.27803   0.27919   0.29171
 Alpha virt. eigenvalues --    0.30600   0.31149   0.31482   0.31817   0.32174

 Mulliken charges:
               1
     1  C   -0.298698
     2  C   -0.300060
     3  C   -0.486155
     4  H    0.149742
     5  H    0.149513
     6  H    0.151880
     7  H    0.151633
     8  H    0.169158
     9  H    0.154971
    10  H    0.158638
    11  C   -0.298312
    12  C   -0.299672
    13  C   -0.475710
    14  H    0.149565
    15  H    0.149777
    16  H    0.151922
    17  H    0.151913
    18  H    0.155204
    19  H    0.155173
    20  H    0.160231
    21  C   -0.298419
    22  C   -0.299692
    23  C   -0.475734
    24  H    0.149535
    25  H    0.149573
    26  H    0.151975
    27  H    0.152072
    28  H    0.155203
    29  H    0.155145
    30  H    0.160331
    31  C   -0.297687
    32  C   -0.305541
    33  C   -0.480514
    34  H    0.149611
    35  H    0.150078
    36  H    0.151758
    37  H    0.156924
    38  H    0.157172
    39  H    0.157271
    40  H    0.160224
 Sum of Mulliken charges =  -0.00000

 Dipole moment (field-independent basis, Debye):
    X=             -0.0262    Y=              0.0131    Z=             -0.0172  Tot=              0.0340
 Quadrupole moment (field-independent basis, Debye-Ang):
   XX=            -84.9709   YY=            -86.0903   ZZ=            -83.7325
   XY=              0.5217   XZ=              0.8552   YZ=              0.6625

 Normal termination of Gaussian 16 at Wed May  5 21:22:26 2021.
