 Gaussian 16, Revision A.03,
 Gaussian 16:  EM64L-G16RevA.03 25-Dec-2016

 -------------
 #p 6-31g* mp2
 -------------

 ------------------------------------------------------
 Input file generated by CHIRIPA (05-May-2021 14:55:23)
 ------------------------------------------------------
 Symbolic Z-matrix:
 Charge =  0 Multiplicity = 1

                         Standard orientation:
 ---------------------------------------------------------------------
 Center     Atomic      Atomic             Coordinates (Angstroms)
 Number     Number       Type             X           Y           Z
 ---------------------------------------------------------------------
      1          6           0        4.256705    1.710334    0.225784
      2          6           0        4.709020    0.487739   -0.281360
      3          6           0        3.836928   -0.598683   -0.398367
      4          6           0        2.513089   -0.426598    0.003040
      5          6           0        2.032386    0.778814    0.512156
      6          6           0        2.922185    1.851720    0.620228
      7          1           0        4.941045    2.549042    0.313208
      8          1           0        5.744892    0.375050   -0.588468
      9          1           0        4.160579   -1.556371   -0.787597
     10          1           0        0.994148    0.860724    0.810098
     11          1           0        2.568132    2.800029    1.014438
     12          7           0        1.580471   -1.569589   -0.116101
     13          8           0        0.418920   -1.392296    0.244460
     14          8           0        2.028695   -2.621117   -0.567788
     15          6           0       -3.710670    0.982071   -0.220305
     16          6           0       -2.728305    2.142672   -0.059215
     17          6           0       -3.337457    3.490747   -0.445766
     18          1           0       -4.056299    0.944550   -1.262455
     19          1           0       -4.599142    1.174506    0.396931
     20          1           0       -1.841346    1.947444   -0.675498
     21          1           0       -2.384828    2.177317    0.982629
     22          1           0       -4.210470    3.711718    0.176828
     23          1           0       -3.663900    3.480539   -1.490721
     24          1           0       -2.618037    4.306364   -0.323034
     25          6           0       -3.116326   -0.372231    0.162255
     26          6           0       -4.098691   -1.532833    0.001166
     27          6           0       -3.489538   -2.880907    0.387716
     28          1           0       -2.227854   -0.564666   -0.454981
     29          1           0       -2.770697   -0.334709    1.204406
     30          1           0       -4.442168   -1.567476   -1.040678
     31          1           0       -4.985650   -1.337603    0.617448
     32          1           0       -3.163096   -2.870699    1.432672
     33          1           0       -2.616526   -3.101879   -0.234877
     34          1           0       -4.208960   -3.696524    0.264985
 ---------------------------------------------------------------------

 SCF Done:  E(RHF) =  -669.536104743     A.U. after   15 cycles
 E2 =    -0.2091563718D+01 EUMP2 =    -0.67162766846030D+03

 The electronic state is 1-A.
 Alpha  occ. eigenvalues --  -20.60908 -20.60902 -15.85938 -11.31257 -11.27826
 Alpha  occ. eigenvalues --  -11.27807 -11.27563 -11.26832 -11.26819 -11.21390
 Alpha  occ. eigenvalues --  -11.20960 -11.20785 -11.20582 -11.20242 -11.19765
 Alpha  occ. eigenvalues --   -1.59973  -1.39527  -1.19428  -1.08835  -1.07703
 Alpha  occ. eigenvalues --   -1.04822  -1.02829  -0.95676  -0.95245  -0.86264
 Alpha  occ. eigenvalues --   -0.86221  -0.82511  -0.78976  -0.77637  -0.77316
 Alpha  occ. eigenvalues --   -0.72155  -0.71288  -0.70535  -0.65084  -0.64825
 Alpha  occ. eigenvalues --   -0.64342  -0.62167  -0.60232  -0.58700  -0.56838
 Alpha  occ. eigenvalues --   -0.55329  -0.54519  -0.53158  -0.52913  -0.52013
 Alpha  occ. eigenvalues --   -0.51638  -0.49186  -0.48930  -0.48909  -0.47252
 Alpha  occ. eigenvalues --   -0.46029  -0.45158  -0.44947  -0.44562  -0.43053
 Alpha  occ. eigenvalues --   -0.37410  -0.36424
 Alpha virt. eigenvalues --    0.04938   0.11221   0.16420   0.21022   0.23320
 Alpha virt. eigenvalues --    0.24989   0.26045   0.27402   0.27617   0.28697
 Alpha virt. eigenvalues --    0.29301   0.31230   0.32099   0.32174   0.32285

 Mulliken charges:
               1
     1  C   -0.170600
     2  C   -0.218656
     3  C   -0.170781
     4  C    0.157600
     5  C   -0.172564
     6  C   -0.218802
     7  H    0.225869
     8  H    0.223648
     9  H    0.275654
    10  H    0.278241
    11  H    0.224073
    12  N    0.491338
    13  O   -0.462830
    14  O   -0.459603
    15  C   -0.297756
    16  C   -0.299700
    17  C   -0.474524
    18  H    0.148152
    19  H    0.146811
    20  H    0.149725
    21  H    0.147119
    22  H    0.155648
    23  H    0.156001
    24  H    0.154940
    25  C   -0.302322
    26  C   -0.299879
    27  C   -0.475680
    28  H    0.169034
    29  H    0.147959
    30  H    0.148100
    31  H    0.146024
    32  H    0.154737
    33  H    0.169730
    34  H    0.153294
 Sum of Mulliken charges =  -0.00000

 Dipole moment (field-independent basis, Debye):
    X=              3.5158    Y=              3.8731    Z=              0.3840  Tot=              5.2449
 Quadrupole moment (field-independent basis, Debye-Ang):
   XX=            -76.7496   YY=            -98.4871   ZZ=            -94.0278
   XY=              6.9152   XZ=             -0.7791   YZ=              1.5378

 Normal termination of Gaussian 16 at Wed May  5 19:06:28 2021.
