 Gaussian 16, Revision A.03,
 Gaussian 16:  EM64L-G16RevA.03 25-Dec-2016

 -------------
 #p 6-31g* mp2
 -------------

 ------------------------------------------------------
 Input file generated by CHIRIPA (05-May-2021 14:57:24)
 ------------------------------------------------------
 Symbolic Z-matrix:
 Charge =  0 Multiplicity = 1

                         Standard orientation:
 ---------------------------------------------------------------------
 Center     Atomic      Atomic             Coordinates (Angstroms)
 Number     Number       Type             X           Y           Z
 ---------------------------------------------------------------------
      1          6           0        2.255402   -2.142973    0.507880
      2          6           0        3.482743   -1.870656    1.121068
      3          6           0        4.186890   -0.702912    0.812690
      4          6           0        3.631848    0.174450   -0.117608
      5          6           0        2.411217   -0.068793   -0.745448
      6          6           0        1.724493   -1.242759   -0.421782
      7          1           0        1.715171   -3.052522    0.753373
      8          1           0        3.897467   -2.567967    1.843430
      9          1           0        5.138996   -0.467322    1.272483
     10          1           0        2.023220    0.645367   -1.461585
     11          1           0        0.771527   -1.451648   -0.899556
     12          7           0        4.368075    1.413982   -0.452167
     13          8           0        3.857621    2.170858   -1.275096
     14          8           0        5.441644    1.605181    0.114871
     15          6           0       -4.296058    2.324641    0.757251
     16          6           0       -3.310982    1.666950    1.501286
     17          6           0       -2.868119    0.395227    1.125600
     18          6           0       -3.434565   -0.192013   -0.004700
     19          6           0       -4.417592    0.437692   -0.766554
     20          6           0       -4.845251    1.708999   -0.372302
     21          1           0       -4.634179    3.312385    1.056304
     22          1           0       -2.882689    2.142649    2.378966
     23          1           0       -2.106892   -0.136498    1.683471
     24          1           0       -4.825754   -0.061985   -1.636695
     25          1           0       -5.610419    2.217406   -0.952030
     26          7           0       -2.973774   -1.538109   -0.412248
     27          8           0       -3.488670   -2.033960   -1.412074
     28          8           0       -2.106435   -2.071841    0.275857
 ---------------------------------------------------------------------

 SCF Done:  E(RHF) =  -868.340188385     A.U. after   16 cycles
 E2 =    -0.2598364473D+01 EUMP2 =    -0.87093855285824D+03

 The electronic state is 1-A.
 Alpha  occ. eigenvalues --  -20.61712 -20.61659 -20.60459 -20.60453 -15.86709
 Alpha  occ. eigenvalues --  -15.85504 -11.31777 -11.30706 -11.28312 -11.28299
 Alpha  occ. eigenvalues --  -11.27976 -11.27268 -11.27244 -11.27234 -11.27210
 Alpha  occ. eigenvalues --  -11.26825 -11.26227 -11.26045  -1.60756  -1.59539
 Alpha  occ. eigenvalues --   -1.40316  -1.39097  -1.19919  -1.18838  -1.09367
 Alpha  occ. eigenvalues --   -1.08235  -1.05272  -1.04209  -0.96251  -0.95108
 Alpha  occ. eigenvalues --   -0.86684  -0.85588  -0.83092  -0.81948  -0.78177
 Alpha  occ. eigenvalues --   -0.77040  -0.72937  -0.72068  -0.71723  -0.71013
 Alpha  occ. eigenvalues --   -0.70863  -0.69882  -0.65571  -0.65264  -0.64467
 Alpha  occ. eigenvalues --   -0.64155  -0.62622  -0.61549  -0.55772  -0.54622
 Alpha  occ. eigenvalues --   -0.53622  -0.53355  -0.52563  -0.52264  -0.49709
 Alpha  occ. eigenvalues --   -0.49663  -0.48492  -0.48464  -0.45771  -0.44540
 Alpha  occ. eigenvalues --   -0.37878  -0.36863  -0.36777  -0.35830
 Alpha virt. eigenvalues --    0.04306   0.05473   0.10793   0.11834   0.15854
 Alpha virt. eigenvalues --    0.17033   0.20977   0.22155   0.26914   0.27666
 Alpha virt. eigenvalues --    0.28123   0.29006   0.30581   0.31722   0.32068

 Mulliken charges:
               1
     1  C   -0.172424
     2  C   -0.219745
     3  C   -0.172870
     4  C    0.157714
     5  C   -0.174397
     6  C   -0.222180
     7  H    0.233892
     8  H    0.221773
     9  H    0.273168
    10  H    0.272797
    11  H    0.236403
    12  N    0.488090
    13  O   -0.462677
    14  O   -0.462208
    15  C   -0.169443
    16  C   -0.218028
    17  C   -0.171380
    18  C    0.156368
    19  C   -0.170712
    20  C   -0.218372
    21  H    0.228651
    22  H    0.226380
    23  H    0.274883
    24  H    0.276303
    25  H    0.225798
    26  N    0.487375
    27  O   -0.456350
    28  O   -0.468812
 Sum of Mulliken charges =  -0.00000

 Dipole moment (field-independent basis, Debye):
    X=             -4.6264    Y=              0.3609    Z=              2.6244  Tot=              5.3312
 Quadrupole moment (field-independent basis, Debye-Ang):
   XX=           -108.8144   YY=           -108.7038   ZZ=           -100.8310
   XY=            -34.4861   XZ=              5.1807   YZ=             -0.3911

 Normal termination of Gaussian 16 at Fri May  7 03:24:46 2021.
