 Gaussian 16, Revision A.03,
 Gaussian 16:  EM64L-G16RevA.03 25-Dec-2016

 -------------
 #p 6-31g* mp2
 -------------

 ------------------------------------------------------
 Input file generated by CHIRIPA (05-May-2021 14:55:19)
 ------------------------------------------------------
 Symbolic Z-matrix:
 Charge =  0 Multiplicity = 1

                         Standard orientation:
 ---------------------------------------------------------------------
 Center     Atomic      Atomic             Coordinates (Angstroms)
 Number     Number       Type             X           Y           Z
 ---------------------------------------------------------------------
      1          6           0        1.456946   -1.317576    1.628150
      2          6           0        2.764706   -1.810469    1.570335
      3          6           0        3.700018   -1.241764    0.700672
      4          6           0        3.291623   -0.176635   -0.100579
      5          6           0        1.996058    0.336785   -0.065893
      6          6           0        1.077465   -0.247409    0.811291
      7          1           0        0.736867   -1.765376    2.306646
      8          1           0        3.062219   -2.641472    2.203553
      9          1           0        4.718961   -1.603634    0.635694
     10          1           0        1.729020    1.166247   -0.709400
     11          1           0        0.062525    0.137444    0.854071
     12          7           0        4.272946    0.433626   -1.025234
     13          8           0        3.888211    1.371097   -1.720767
     14          8           0        5.408260   -0.037077   -1.036937
     15          6           0       -3.338000    0.719081   -0.001614
     16          6           0       -3.409804    1.965549    0.881078
     17          6           0       -2.065121    2.683381    1.000825
     18          1           0       -2.587884    0.029441    0.409078
     19          1           0       -2.984295    1.006271   -1.001519
     20          1           0       -3.764590    1.676304    1.878615
     21          1           0       -4.159973    2.652217    0.468344
     22          1           0       -1.708323    2.999948    0.015391
     23          1           0       -1.310693    2.018489    1.433675
     24          1           0       -2.139294    3.571462    1.636175
     25          6           0       -4.674515   -0.009415   -0.131032
     26          6           0       -4.602711   -1.255883   -1.013724
     27          6           0       -5.947394   -1.973714   -1.133471
     28          1           0       -5.028220   -0.296605    0.868873
     29          1           0       -5.424631    0.680224   -0.541724
     30          1           0       -3.852541   -1.942552   -0.600990
     31          1           0       -4.247925   -0.966638   -2.011261
     32          1           0       -6.701822   -1.308824   -1.566321
     33          1           0       -6.304192   -2.290282   -0.148037
     34          1           0       -5.873220   -2.861796   -1.768822
 ---------------------------------------------------------------------

 SCF Done:  E(RHF) =  -669.535395481     A.U. after   15 cycles
 E2 =    -0.2091437123D+01 EUMP2 =    -0.67162683260476D+03

 The electronic state is 1-A.
 Alpha  occ. eigenvalues --  -20.60717 -20.60712 -15.85770 -11.31129 -11.27705
 Alpha  occ. eigenvalues --  -11.27685 -11.27446 -11.26721 -11.26665 -11.22433
 Alpha  occ. eigenvalues --  -11.22299 -11.22188 -11.22061 -11.22026 -11.21547
 Alpha  occ. eigenvalues --   -1.59793  -1.39346  -1.19301  -1.09201  -1.08700
 Alpha  occ. eigenvalues --   -1.04703  -1.04258  -0.96721  -0.95536  -0.87735
 Alpha  occ. eigenvalues --   -0.86106  -0.82369  -0.80327  -0.79016  -0.77410
 Alpha  occ. eigenvalues --   -0.71989  -0.71116  -0.70417  -0.65864  -0.64953
 Alpha  occ. eigenvalues --   -0.64711  -0.62115  -0.61598  -0.60079  -0.58324
 Alpha  occ. eigenvalues --   -0.56031  -0.55213  -0.53379  -0.53191  -0.53018
 Alpha  occ. eigenvalues --   -0.52792  -0.50665  -0.48775  -0.48744  -0.48600
 Alpha  occ. eigenvalues --   -0.47346  -0.46537  -0.46453  -0.44753  -0.44516
 Alpha  occ. eigenvalues --   -0.37288  -0.36299
 Alpha virt. eigenvalues --    0.05116   0.11299   0.16571   0.19314   0.22573
 Alpha virt. eigenvalues --    0.23660   0.25148   0.26296   0.26969   0.28431
 Alpha virt. eigenvalues --    0.29260   0.29844   0.31225   0.31312   0.32015

 Mulliken charges:
               1
     1  C   -0.172881
     2  C   -0.218453
     3  C   -0.171144
     4  C    0.158820
     5  C   -0.173419
     6  C   -0.228012
     7  H    0.225064
     8  H    0.223078
     9  H    0.275399
    10  H    0.276152
    11  H    0.237337
    12  N    0.488099
    13  O   -0.460427
    14  O   -0.460740
    15  C   -0.301106
    16  C   -0.300620
    17  C   -0.480296
    18  H    0.141583
    19  H    0.152639
    20  H    0.153000
    21  H    0.156834
    22  H    0.157994
    23  H    0.147796
    24  H    0.166879
    25  C   -0.298514
    26  C   -0.300033
    27  C   -0.476178
    28  H    0.149937
    29  H    0.152958
    30  H    0.150040
    31  H    0.154117
    32  H    0.156774
    33  H    0.155220
    34  H    0.162103
 Sum of Mulliken charges =  -0.00000

 Dipole moment (field-independent basis, Debye):
    X=             -3.6836    Y=             -2.0769    Z=              3.2087  Tot=              5.3083
 Quadrupole moment (field-independent basis, Debye-Ang):
   XX=           -115.3444   YY=            -92.0702   ZZ=            -94.9607
   XY=            -10.0470   XZ=             12.5612   YZ=             -2.1227

 Normal termination of Gaussian 16 at Wed May  5 15:49:27 2021.
