 Gaussian 16, Revision A.03,
 Gaussian 16:  EM64L-G16RevA.03 25-Dec-2016

 -------------
 #p 6-31g* mp2
 -------------

 ------------------------------------------------------
 Input file generated by CHIRIPA (05-May-2021 14:51:07)
 ------------------------------------------------------
 Symbolic Z-matrix:
 Charge =  0 Multiplicity = 1

                         Standard orientation:
 ---------------------------------------------------------------------
 Center     Atomic      Atomic             Coordinates (Angstroms)
 Number     Number       Type             X           Y           Z
 ---------------------------------------------------------------------
      1          6           0        2.449063    1.112472    0.180593
      2          6           0        2.817105    2.572999   -0.082826
      3          6           0        1.772294    3.551935    0.453689
      4          1           0        1.474074    0.898194   -0.278130
      5          1           0        2.325516    0.962053    1.262029
      6          1           0        2.941277    2.720296   -1.163336
      7          1           0        3.791420    2.783773    0.376413
      8          1           0        1.653661    3.434036    1.535644
      9          1           0        0.798687    3.370198   -0.012854
     10          1           0        2.055383    4.590239    0.254581
     11          6           0        3.483876    0.121790   -0.349918
     12          6           0        3.115834   -1.338737   -0.086498
     13          6           0        4.160645   -2.317672   -0.623014
     14          1           0        3.607423    0.272210   -1.431354
     15          1           0        4.458865    0.336069    0.108805
     16          1           0        2.141519   -1.549511   -0.545738
     17          1           0        2.991662   -1.486033    0.994011
     18          1           0        5.134252   -2.135935   -0.156471
     19          1           0        4.279279   -2.199774   -1.704969
     20          1           0        3.877556   -3.355977   -0.423906
     21          6           0       -3.302432    0.065648    0.018519
     22          6           0       -4.779702   -0.020207   -0.366562
     23          6           0       -5.437937    1.353843   -0.495045
     24          1           0       -3.208752    0.608973    0.968764
     25          1           0       -2.768115    0.660149   -0.735449
     26          1           0       -5.310815   -0.615533    0.387177
     27          1           0       -4.869892   -0.563559   -1.315904
     28          1           0       -4.934034    1.952297   -1.260900
     29          1           0       -5.377462    1.900029    0.451858
     30          1           0       -6.493655    1.269037   -0.770956
     31          6           0       -2.630507   -1.299909    0.150806
     32          6           0       -1.153237   -1.214055    0.535887
     33          6           0       -0.495002   -2.588105    0.664369
     34          1           0       -3.164825   -1.894411    0.904774
     35          1           0       -2.724188   -1.843236   -0.799440
     36          1           0       -1.063047   -0.670703    1.485229
     37          1           0       -0.622124   -0.618730   -0.217852
     38          1           0       -0.555477   -3.134292   -0.282533
     39          1           0       -0.998905   -3.186560    1.430225
     40          1           0        0.560717   -2.503300    0.940281
 ---------------------------------------------------------------------

 SCF Done:  E(RHF) =  -470.732341601     A.U. after   11 cycles
 E2 =    -0.1584071668D+01 EUMP2 =    -0.47231641326876D+03

 The electronic state is 1-A.
 Alpha  occ. eigenvalues --  -11.21594 -11.21592 -11.21582 -11.21555 -11.21392
 Alpha  occ. eigenvalues --  -11.21389 -11.21330 -11.21328 -11.21073 -11.21065
 Alpha  occ. eigenvalues --  -11.21058 -11.20929  -1.08454  -1.08386  -1.03560
 Alpha  occ. eigenvalues --   -1.03471  -0.95983  -0.95939  -0.87033  -0.86925
 Alpha  occ. eigenvalues --   -0.79682  -0.79491  -0.78338  -0.78143  -0.65157
 Alpha  occ. eigenvalues --   -0.64959  -0.60989  -0.60848  -0.59560  -0.59146
 Alpha  occ. eigenvalues --   -0.57654  -0.57491  -0.55268  -0.55235  -0.52751
 Alpha  occ. eigenvalues --   -0.52600  -0.52467  -0.52284  -0.49975  -0.49840
 Alpha  occ. eigenvalues --   -0.48121  -0.47634  -0.46694  -0.46574  -0.45981
 Alpha  occ. eigenvalues --   -0.45752  -0.45710  -0.45375  -0.43806  -0.43688
 Alpha virt. eigenvalues --    0.21234   0.23252   0.23606   0.24323   0.25394
 Alpha virt. eigenvalues --    0.26423   0.27031   0.27662   0.27929   0.29491
 Alpha virt. eigenvalues --    0.30194   0.31374   0.31649   0.31925   0.32314

 Mulliken charges:
               1
     1  C   -0.302733
     2  C   -0.299437
     3  C   -0.475571
     4  H    0.154542
     5  H    0.149384
     6  H    0.151605
     7  H    0.151895
     8  H    0.155164
     9  H    0.155322
    10  H    0.160126
    11  C   -0.297593
    12  C   -0.306158
    13  C   -0.475740
    14  H    0.149095
    15  H    0.149481
    16  H    0.159820
    17  H    0.151422
    18  H    0.155177
    19  H    0.155099
    20  H    0.160605
    21  C   -0.298059
    22  C   -0.299611
    23  C   -0.475686
    24  H    0.149905
    25  H    0.148618
    26  H    0.151998
    27  H    0.151829
    28  H    0.155046
    29  H    0.155281
    30  H    0.160226
    31  C   -0.297882
    32  C   -0.303342
    33  C   -0.482580
    34  H    0.149650
    35  H    0.149249
    36  H    0.152355
    37  H    0.154469
    38  H    0.153360
    39  H    0.154429
    40  H    0.169242
 Sum of Mulliken charges =  -0.00000

 Dipole moment (field-independent basis, Debye):
    X=              0.0250    Y=              0.0006    Z=              0.0063  Tot=              0.0258
 Quadrupole moment (field-independent basis, Debye-Ang):
   XX=            -85.4154   YY=            -86.4084   ZZ=            -83.0950
   XY=              1.0484   XZ=              0.3231   YZ=             -0.1380

 Normal termination of Gaussian 16 at Wed May  5 21:16:33 2021.
