 Gaussian 16, Revision A.03,
 Gaussian 16:  EM64L-G16RevA.03 25-Dec-2016

 -------------
 #p 6-31g* mp2
 -------------

 ------------------------------------------------------
 Input file generated by CHIRIPA (05-May-2021 14:53:17)
 ------------------------------------------------------
 Symbolic Z-matrix:
 Charge =  0 Multiplicity = 1

                         Standard orientation:
 ---------------------------------------------------------------------
 Center     Atomic      Atomic             Coordinates (Angstroms)
 Number     Number       Type             X           Y           Z
 ---------------------------------------------------------------------
      1          6           0       -3.948622    0.825643    0.139237
      2          6           0       -2.752951    0.976059   -0.801896
      3          6           0       -1.923472    2.226566   -0.508652
      4          1           0       -4.585457    1.717157    0.058072
      5          1           0       -3.587926    0.792567    1.176637
      6          1           0       -3.115687    1.007450   -1.837296
      7          1           0       -2.118989    0.083998   -0.718624
      8          1           0       -1.533893    2.199335    0.514132
      9          1           0       -2.536254    3.128034   -0.610897
     10          1           0       -1.073923    2.314409   -1.193057
     11          6           0       -4.787563   -0.419808   -0.141402
     12          6           0       -5.983234   -0.570225    0.799730
     13          6           0       -6.812713   -1.820731    0.506486
     14          1           0       -5.148259   -0.386732   -1.178803
     15          1           0       -4.150728   -1.311322   -0.060238
     16          1           0       -6.617196    0.321837    0.716458
     17          1           0       -5.620498   -0.601616    1.835130
     18          1           0       -6.199931   -2.722200    0.608731
     19          1           0       -7.202291   -1.793500   -0.516298
     20          1           0       -7.662262   -1.908575    1.190891
     21          6           0        5.835587   -0.640806    0.513031
     22          6           0        5.117601   -1.488549   -0.336879
     23          6           0        3.774591   -1.231054   -0.627687
     24          6           0        3.178324   -0.111904   -0.048670
     25          6           0        3.866993    0.751492    0.801961
     26          6           0        5.209096    0.474543    1.078741
     27          1           0        6.878517   -0.848390    0.733490
     28          1           0        5.601559   -2.355475   -0.777639
     29          1           0        3.195210   -1.870789   -1.282267
     30          1           0        3.357347    1.607987    1.226338
     31          1           0        5.764226    1.134648    1.739148
     32          7           0        1.757020    0.170991   -0.349110
     33          8           0        1.254681    1.163464    0.173663
     34          8           0        1.172253   -0.605103   -1.101680
 ---------------------------------------------------------------------

 SCF Done:  E(RHF) =  -669.536016276     A.U. after   15 cycles
 E2 =    -0.2091654565D+01 EUMP2 =    -0.67162767084075D+03

 The electronic state is 1-A.
 Alpha  occ. eigenvalues --  -20.61029 -20.61017 -15.86038 -11.31345 -11.27903
 Alpha  occ. eigenvalues --  -11.27900 -11.27637 -11.26905 -11.26895 -11.20758
 Alpha  occ. eigenvalues --  -11.20383 -11.20302 -11.20025 -11.19738 -11.18907
 Alpha  occ. eigenvalues --   -1.60075  -1.39632  -1.19509  -1.08918  -1.07180
 Alpha  occ. eigenvalues --   -1.04901  -1.02159  -0.95766  -0.94611  -0.86304
 Alpha  occ. eigenvalues --   -0.85646  -0.82593  -0.78309  -0.77651  -0.76900
 Alpha  occ. eigenvalues --   -0.72248  -0.71388  -0.70617  -0.65164  -0.64906
 Alpha  occ. eigenvalues --   -0.63823  -0.62248  -0.59560  -0.58095  -0.56197
 Alpha  occ. eigenvalues --   -0.55402  -0.53933  -0.53235  -0.52992  -0.51329
 Alpha  occ. eigenvalues --   -0.51059  -0.49086  -0.49006  -0.48416  -0.46592
 Alpha  occ. eigenvalues --   -0.45361  -0.45046  -0.44449  -0.44304  -0.42405
 Alpha  occ. eigenvalues --   -0.37487  -0.36501
 Alpha virt. eigenvalues --    0.04864   0.11154   0.16366   0.21290   0.24004
 Alpha virt. eigenvalues --    0.25756   0.27214   0.27827   0.28191   0.28683
 Alpha virt. eigenvalues --    0.29413   0.30881   0.32403   0.32697   0.32852

 Mulliken charges:
               1
     1  C   -0.297482
     2  C   -0.302969
     3  C   -0.466352
     4  H    0.144673
     5  H    0.147235
     6  H    0.144109
     7  H    0.165898
     8  H    0.159148
     9  H    0.138539
    10  H    0.168532
    11  C   -0.297218
    12  C   -0.298533
    13  C   -0.474924
    14  H    0.147392
    15  H    0.149791
    16  H    0.150101
    17  H    0.150299
    18  H    0.154194
    19  H    0.154065
    20  H    0.157264
    21  C   -0.170496
    22  C   -0.218596
    23  C   -0.170638
    24  C    0.157892
    25  C   -0.170838
    26  C   -0.218564
    27  H    0.226177
    28  H    0.223988
    29  H    0.275938
    30  H    0.275985
    31  H    0.224022
    32  N    0.488964
    33  O   -0.457866
    34  O   -0.459730
 Sum of Mulliken charges =  -0.00000

 Dipole moment (field-independent basis, Debye):
    X=              5.5095    Y=             -1.0570    Z=              1.0577  Tot=              5.7088
 Quadrupole moment (field-independent basis, Debye-Ang):
   XX=            -65.4234   YY=            -92.4405   ZZ=            -93.4397
   XY=             -4.3000   XZ=              3.7307   YZ=              2.4361

 Normal termination of Gaussian 16 at Thu May  6 20:32:18 2021.
