 Gaussian 16, Revision A.03,
 Gaussian 16:  EM64L-G16RevA.03 25-Dec-2016

 -------------
 #p 6-31g* mp2
 -------------

 ------------------------------------------------------
 Input file generated by CHIRIPA (05-May-2021 14:55:22)
 ------------------------------------------------------
 Symbolic Z-matrix:
 Charge =  0 Multiplicity = 1

                         Standard orientation:
 ---------------------------------------------------------------------
 Center     Atomic      Atomic             Coordinates (Angstroms)
 Number     Number       Type             X           Y           Z
 ---------------------------------------------------------------------
      1          6           0        3.606210    2.253913    0.689487
      2          6           0        2.624141    1.625901    1.462574
      3          6           0        2.107085    0.384101    1.081610
      4          6           0        2.597077   -0.203804   -0.083536
      5          6           0        3.575041    0.396735   -0.874882
      6          6           0        4.077694    1.638411   -0.474721
      7          1           0        4.002277    3.218525    0.992886
      8          1           0        2.256109    2.101565    2.367196
      9          1           0        1.346364   -0.124290    1.661490
     10          1           0        3.922189   -0.102121   -1.771570
     11          1           0        4.840335    2.123806   -1.077062
     12          7           0        2.057316   -1.518377   -0.497007
     13          8           0        2.505653   -2.015477   -1.527794
     14          8           0        1.196136   -2.026747    0.217531
     15          6           0       -3.565187   -0.762308    0.124512
     16          6           0       -2.307759   -1.543766    0.506852
     17          6           0       -2.578062   -3.034464    0.713128
     18          1           0       -4.323491   -0.893868    0.908484
     19          1           0       -3.988710   -1.189767   -0.794890
     20          1           0       -1.885958   -1.114084    1.424497
     21          1           0       -1.552293   -1.410174   -0.278030
     22          1           0       -2.977415   -3.483794   -0.201869
     23          1           0       -3.312976   -3.186022    1.510332
     24          1           0       -1.665660   -3.573956    0.985768
     25          6           0       -3.311064    0.729404   -0.085112
     26          6           0       -4.568492    1.510862   -0.467451
     27          6           0       -4.298190    3.001560   -0.673728
     28          1           0       -2.887541    1.156864    0.834291
     29          1           0       -2.552760    0.860965   -0.869084
     30          1           0       -5.323960    1.377270    0.317430
     31          1           0       -4.990293    1.081179   -1.385096
     32          1           0       -3.563275    3.153117   -1.470931
     33          1           0       -3.898836    3.450891    0.241269
     34          1           0       -5.210591    3.541052   -0.946368
 ---------------------------------------------------------------------

 SCF Done:  E(RHF) =  -669.536005815     A.U. after   15 cycles
 E2 =    -0.2091527828D+01 EUMP2 =    -0.67162753364270D+03

 The electronic state is 1-A.
 Alpha  occ. eigenvalues --  -20.60928 -20.60909 -15.85945 -11.31257 -11.27824
 Alpha  occ. eigenvalues --  -11.27813 -11.27561 -11.26829 -11.26818 -11.21350
 Alpha  occ. eigenvalues --  -11.21031 -11.20951 -11.20733 -11.20571 -11.19950
 Alpha  occ. eigenvalues --   -1.59981  -1.39536  -1.19427  -1.08835  -1.07895
 Alpha  occ. eigenvalues --   -1.04822  -1.02905  -0.95681  -0.95378  -0.86410
 Alpha  occ. eigenvalues --   -0.86222  -0.82514  -0.79026  -0.77723  -0.77494
 Alpha  occ. eigenvalues --   -0.72170  -0.71294  -0.70536  -0.65084  -0.64827
 Alpha  occ. eigenvalues --   -0.64536  -0.62169  -0.60313  -0.58784  -0.56935
 Alpha  occ. eigenvalues --   -0.55329  -0.54702  -0.53154  -0.52915  -0.52046
 Alpha  occ. eigenvalues --   -0.51808  -0.49368  -0.48944  -0.48921  -0.47331
 Alpha  occ. eigenvalues --   -0.46108  -0.45397  -0.45166  -0.44614  -0.43166
 Alpha  occ. eigenvalues --   -0.37406  -0.36422
 Alpha virt. eigenvalues --    0.04940   0.11228   0.16415   0.21168   0.23282
 Alpha virt. eigenvalues --    0.24704   0.26403   0.27386   0.27621   0.28526
 Alpha virt. eigenvalues --    0.28810   0.30634   0.31608   0.32112   0.32667

 Mulliken charges:
               1
     1  C   -0.170493
     2  C   -0.218616
     3  C   -0.170679
     4  C    0.157695
     5  C   -0.170843
     6  C   -0.218656
     7  H    0.225906
     8  H    0.223786
     9  H    0.276991
    10  H    0.275631
    11  H    0.223656
    12  N    0.489024
    13  O   -0.459498
    14  O   -0.459854
    15  C   -0.298837
    16  C   -0.295749
    17  C   -0.477623
    18  H    0.146283
    19  H    0.149192
    20  H    0.142228
    21  H    0.163924
    22  H    0.152947
    23  H    0.147247
    24  H    0.173879
    25  C   -0.296714
    26  C   -0.298941
    27  C   -0.475163
    28  H    0.144032
    29  H    0.148879
    30  H    0.151340
    31  H    0.152649
    32  H    0.154391
    33  H    0.152478
    34  H    0.159511
 Sum of Mulliken charges =  -0.00000

 Dipole moment (field-independent basis, Debye):
    X=              2.1380    Y=              4.5113    Z=              1.3997  Tot=              5.1847
 Quadrupole moment (field-independent basis, Debye-Ang):
   XX=            -84.3331   YY=            -98.4145   ZZ=            -91.2390
   XY=             11.9470   XZ=              0.8991   YZ=             -0.1859

 Normal termination of Gaussian 16 at Thu May  6 10:57:14 2021.
