 Gaussian 16, Revision A.03,
 Gaussian 16:  EM64L-G16RevA.03 25-Dec-2016

 -------------
 #p 6-31g* mp2
 -------------

 ------------------------------------------------------
 Input file generated by CHIRIPA (05-May-2021 14:51:08)
 ------------------------------------------------------
 Symbolic Z-matrix:
 Charge =  0 Multiplicity = 1

                         Standard orientation:
 ---------------------------------------------------------------------
 Center     Atomic      Atomic             Coordinates (Angstroms)
 Number     Number       Type             X           Y           Z
 ---------------------------------------------------------------------
      1          6           0       -4.619808   -0.385806    0.358088
      2          6           0       -5.618745   -0.391487   -0.799529
      3          6           0       -6.978159   -0.969155   -0.404448
      4          1           0       -4.490280   -1.412379    0.727297
      5          1           0       -5.038142    0.195603    1.191368
      6          1           0       -5.198062   -0.971555   -1.630891
      7          1           0       -5.745765    0.635192   -1.166149
      8          1           0       -7.422647   -0.386520    0.408921
      9          1           0       -6.871832   -2.002396   -0.058461
     10          1           0       -7.676860   -0.963665   -1.246854
     11          6           0       -3.256120    0.188779   -0.021300
     12          6           0       -2.257183    0.194461    1.136317
     13          6           0       -0.897769    0.772128    0.741236
     14          1           0       -2.837787   -0.392630   -0.854580
     15          1           0       -3.385648    1.215353   -0.390509
     16          1           0       -2.130164   -0.832219    1.502937
     17          1           0       -2.677867    0.774528    1.967679
     18          1           0       -1.004097    1.805370    0.395250
     19          1           0       -0.453282    0.189493   -0.072132
     20          1           0       -0.199069    0.766639    1.583642
     21          6           0        3.896074    0.836542    0.023937
     22          6           0        2.713480    1.563921   -0.616670
     23          6           0        2.643146    3.039513   -0.222368
     24          1           0        3.822839    0.922447    1.116732
     25          1           0        4.828465    1.339716   -0.267365
     26          1           0        1.783693    1.058694   -0.325366
     27          1           0        2.789434    1.476110   -1.708062
     28          1           0        3.554504    3.563721   -0.527711
     29          1           0        2.543047    3.143932    0.862841
     30          1           0        1.790434    3.540209   -0.691458
     31          6           0        3.979855   -0.639515   -0.360724
     32          6           0        5.162448   -1.366894    0.279882
     33          6           0        5.232782   -2.842487   -0.114421
     34          1           0        3.047463   -1.142689   -0.069423
     35          1           0        4.053089   -0.725420   -1.453521
     36          1           0        5.086494   -1.279084    1.371274
     37          1           0        6.092236   -0.861667   -0.011421
     38          1           0        5.332881   -2.946906   -1.199629
     39          1           0        4.321425   -3.366694    0.190923
     40          1           0        6.085494   -3.343182    0.354670
 ---------------------------------------------------------------------

 SCF Done:  E(RHF) =  -470.732972506     A.U. after   11 cycles
 E2 =    -0.1582837464D+01 EUMP2 =    -0.47231580997020D+03

 The electronic state is 1-A.
 Alpha  occ. eigenvalues --  -11.21648 -11.21621 -11.21564 -11.21438 -11.21400
 Alpha  occ. eigenvalues --  -11.21377 -11.21337 -11.21264 -11.21150 -11.21087
 Alpha  occ. eigenvalues --  -11.21048 -11.20966  -1.08467  -1.08348  -1.03583
 Alpha  occ. eigenvalues --   -1.03436  -0.96038  -0.95897  -0.87061  -0.86916
 Alpha  occ. eigenvalues --   -0.79707  -0.79456  -0.78291  -0.78143  -0.65103
 Alpha  occ. eigenvalues --   -0.64980  -0.60994  -0.60839  -0.59390  -0.59274
 Alpha  occ. eigenvalues --   -0.57658  -0.57491  -0.55321  -0.55201  -0.52743
 Alpha  occ. eigenvalues --   -0.52602  -0.52449  -0.52327  -0.50036  -0.49799
 Alpha  occ. eigenvalues --   -0.48039  -0.47768  -0.46742  -0.46464  -0.45880
 Alpha  occ. eigenvalues --   -0.45756  -0.45688  -0.45478  -0.43803  -0.43696
 Alpha virt. eigenvalues --    0.21866   0.22966   0.23795   0.24699   0.25870
 Alpha virt. eigenvalues --    0.26659   0.27049   0.27593   0.27853   0.29132
 Alpha virt. eigenvalues --    0.30551   0.30949   0.31622   0.31869   0.32386

 Mulliken charges:
               1
     1  C   -0.298334
     2  C   -0.299669
     3  C   -0.475730
     4  H    0.149680
     5  H    0.149606
     6  H    0.152002
     7  H    0.152001
     8  H    0.155212
     9  H    0.155204
    10  H    0.160342
    11  C   -0.298569
    12  C   -0.300246
    13  C   -0.477854
    14  H    0.149774
    15  H    0.149778
    16  H    0.151945
    17  H    0.152107
    18  H    0.156964
    19  H    0.156032
    20  H    0.160103
    21  C   -0.297395
    22  C   -0.310844
    23  C   -0.474640
    24  H    0.148879
    25  H    0.148948
    26  H    0.166886
    27  H    0.150459
    28  H    0.154370
    29  H    0.154578
    30  H    0.159590
    31  C   -0.298340
    32  C   -0.299529
    33  C   -0.475654
    34  H    0.149044
    35  H    0.149412
    36  H    0.151799
    37  H    0.151930
    38  H    0.155077
    39  H    0.154961
    40  H    0.160122
 Sum of Mulliken charges =  -0.00000

 Dipole moment (field-independent basis, Debye):
    X=             -0.0652    Y=             -0.0051    Z=              0.0063  Tot=              0.0657
 Quadrupole moment (field-independent basis, Debye-Ang):
   XX=            -85.6690   YY=            -85.2587   ZZ=            -84.1526
   XY=             -0.4349   XZ=             -0.3581   YZ=             -0.0739

 Normal termination of Gaussian 16 at Thu May  6 10:00:52 2021.
