 Gaussian 16, Revision A.03,
 Gaussian 16:  EM64L-G16RevA.03 25-Dec-2016

 -------------
 #p 6-31g* mp2
 -------------

 ------------------------------------------------------
 Input file generated by CHIRIPA (05-May-2021 14:51:12)
 ------------------------------------------------------
 Symbolic Z-matrix:
 Charge =  0 Multiplicity = 1

                         Standard orientation:
 ---------------------------------------------------------------------
 Center     Atomic      Atomic             Coordinates (Angstroms)
 Number     Number       Type             X           Y           Z
 ---------------------------------------------------------------------
      1          6           0        2.522183   -1.285149    0.206884
      2          6           0        1.191428   -1.292262   -0.546127
      3          6           0        0.225124   -2.358265   -0.028742
      4          1           0        2.988621   -2.276334    0.123613
      5          1           0        2.329720   -1.119083    1.275890
      6          1           0        1.386450   -1.456885   -1.613592
      7          1           0        0.728196   -0.300888   -0.461215
      8          1           0        0.001367   -2.193983    1.030289
      9          1           0        0.663361   -3.356549   -0.128636
     10          1           0       -0.719689   -2.345700   -0.581037
     11          6           0        3.498785   -0.224873   -0.298875
     12          6           0        4.829540   -0.217760    0.454135
     13          6           0        5.795844    0.848243   -0.063250
     14          1           0        3.691248   -0.390939   -1.367882
     15          1           0        3.032348    0.766312   -0.215605
     16          1           0        5.292772   -1.209134    0.369224
     17          1           0        4.634518   -0.053137    1.521601
     18          1           0        5.357607    1.846527    0.036644
     19          1           0        6.019601    0.683961   -1.122280
     20          1           0        6.740657    0.835678    0.489045
     21          6           0       -2.686925    1.362368   -0.285454
     22          6           0       -1.520632    1.941146    0.516272
     23          6           0       -0.883683    3.155711   -0.159687
     24          1           0       -2.332066    1.082375   -1.286764
     25          1           0       -3.446565    2.143036   -0.430019
     26          1           0       -0.764042    1.159229    0.660471
     27          1           0       -1.878267    2.219616    1.515856
     28          1           0       -1.620583    3.954932   -0.289401
     29          1           0       -0.500027    2.888520   -1.149645
     30          1           0       -0.052150    3.553444    0.430415
     31          6           0       -3.334044    0.147653    0.377445
     32          6           0       -4.500335   -0.431124   -0.424280
     33          6           0       -5.137285   -1.645688    0.251679
     34          1           0       -2.574403   -0.633013    0.522012
     35          1           0       -3.688903    0.427646    1.378756
     36          1           0       -4.142701   -0.709594   -1.423864
     37          1           0       -5.256926    0.350793   -0.568479
     38          1           0       -5.520941   -1.378498    1.241638
     39          1           0       -4.400386   -2.444910    0.381393
     40          1           0       -5.968819   -2.043422   -0.338423
 ---------------------------------------------------------------------

 SCF Done:  E(RHF) =  -470.733175509     A.U. after   11 cycles
 E2 =    -0.1583686009D+01 EUMP2 =    -0.47231686151846D+03

 The electronic state is 1-A.
 Alpha  occ. eigenvalues --  -11.21662 -11.21622 -11.21609 -11.21584 -11.21446
 Alpha  occ. eigenvalues --  -11.21386 -11.21383 -11.21312 -11.21170 -11.21103
 Alpha  occ. eigenvalues --  -11.21083 -11.21050  -1.08487  -1.08411  -1.03590
 Alpha  occ. eigenvalues --   -1.03525  -0.96037  -0.95971  -0.87058  -0.86983
 Alpha  occ. eigenvalues --   -0.79692  -0.79551  -0.78298  -0.78223  -0.65288
 Alpha  occ. eigenvalues --   -0.64916  -0.61128  -0.60789  -0.59398  -0.59344
 Alpha  occ. eigenvalues --   -0.57644  -0.57584  -0.55353  -0.55233  -0.52740
 Alpha  occ. eigenvalues --   -0.52673  -0.52464  -0.52388  -0.50065  -0.49843
 Alpha  occ. eigenvalues --   -0.48066  -0.47843  -0.46887  -0.46427  -0.45914
 Alpha  occ. eigenvalues --   -0.45773  -0.45744  -0.45502  -0.43824  -0.43777
 Alpha virt. eigenvalues --    0.19594   0.22733   0.23709   0.24390   0.26312
 Alpha virt. eigenvalues --    0.26800   0.27136   0.27606   0.28483   0.29941
 Alpha virt. eigenvalues --    0.30087   0.31522   0.31685   0.31751   0.32385

 Mulliken charges:
               1
     1  C   -0.298178
     2  C   -0.307468
     3  C   -0.477695
     4  H    0.149957
     5  H    0.149698
     6  H    0.152353
     7  H    0.158634
     8  H    0.155914
     9  H    0.155968
    10  H    0.160916
    11  C   -0.298546
    12  C   -0.299710
    13  C   -0.475758
    14  H    0.149575
    15  H    0.150027
    16  H    0.151968
    17  H    0.152027
    18  H    0.155357
    19  H    0.155205
    20  H    0.160324
    21  C   -0.298028
    22  C   -0.305713
    23  C   -0.476255
    24  H    0.149748
    25  H    0.149627
    26  H    0.156719
    27  H    0.152263
    28  H    0.155712
    29  H    0.155640
    30  H    0.159692
    31  C   -0.304031
    32  C   -0.299532
    33  C   -0.475864
    34  H    0.156011
    35  H    0.149297
    36  H    0.151492
    37  H    0.151857
    38  H    0.155147
    39  H    0.155510
    40  H    0.160143
 Sum of Mulliken charges =  -0.00000

 Dipole moment (field-independent basis, Debye):
    X=              0.0237    Y=             -0.0135    Z=              0.0028  Tot=              0.0274
 Quadrupole moment (field-independent basis, Debye-Ang):
   XX=            -85.2181   YY=            -85.2469   ZZ=            -84.2934
   XY=             -1.7503   XZ=             -0.1808   YZ=              1.2657

 Normal termination of Gaussian 16 at Thu May  6 05:31:07 2021.
