 Gaussian 16, Revision A.03,
 Gaussian 16:  EM64L-G16RevA.03 25-Dec-2016

 -------------
 #p 6-31g* mp2
 -------------

 ------------------------------------------------------
 Input file generated by CHIRIPA (05-May-2021 14:51:10)
 ------------------------------------------------------
 Symbolic Z-matrix:
 Charge =  0 Multiplicity = 1

                         Standard orientation:
 ---------------------------------------------------------------------
 Center     Atomic      Atomic             Coordinates (Angstroms)
 Number     Number       Type             X           Y           Z
 ---------------------------------------------------------------------
      1          6           0        3.359167   -0.639222   -0.077601
      2          6           0        4.714403   -1.347152   -0.065097
      3          6           0        4.638907   -2.758181    0.518934
      4          1           0        2.967452   -0.592727    0.947748
      5          1           0        2.645047   -1.239601   -0.658094
      6          1           0        5.426123   -0.744929    0.514040
      7          1           0        5.103026   -1.391797   -1.090570
      8          1           0        3.950151   -3.379478   -0.062621
      9          1           0        4.275083   -2.728935    1.551105
     10          1           0        5.618695   -3.245906    0.518266
     11          6           0        3.418402    0.772396   -0.658595
     12          6           0        2.063166    1.480327   -0.671100
     13          6           0        2.138662    2.891356   -1.255130
     14          1           0        4.132522    1.372776   -0.078102
     15          1           0        3.810117    0.725902   -1.683945
     16          1           0        1.674543    1.524971    0.354373
     17          1           0        1.351447    0.878104   -1.250236
     18          1           0        2.502486    2.862110   -2.287302
     19          1           0        2.827418    3.512653   -0.673575
     20          1           0        1.158874    3.379081   -1.254462
     21          6           0       -4.126071   -0.221791    0.242593
     22          6           0       -4.371840   -0.986245   -1.058635
     23          6           0       -5.851605   -1.289363   -1.295719
     24          1           0       -4.521447   -0.806708    1.084315
     25          1           0       -4.694885    0.718082    0.220568
     26          1           0       -3.801638   -1.923750   -1.034746
     27          1           0       -3.975662   -0.399528   -1.897337
     28          1           0       -6.431534   -0.362134   -1.346003
     29          1           0       -6.256522   -1.895016   -0.478511
     30          1           0       -6.004488   -1.836296   -2.231321
     31          6           0       -2.651498    0.088616    0.493604
     32          6           0       -2.405730    0.853070    1.794831
     33          6           0       -0.925965    1.156188    2.031915
     34          1           0       -2.082683   -0.851256    0.515628
     35          1           0       -2.256122    0.673533   -0.348118
     36          1           0       -2.801907    0.266353    2.633534
     37          1           0       -2.975931    1.790575    1.770943
     38          1           0       -0.521047    1.761841    1.214708
     39          1           0       -0.346035    0.228959    2.082200
     40          1           0       -0.773080    1.703122    2.967517
 ---------------------------------------------------------------------

 SCF Done:  E(RHF) =  -470.733023742     A.U. after   11 cycles
 E2 =    -0.1582826643D+01 EUMP2 =    -0.47231585038496D+03

 The electronic state is 1-A.
 Alpha  occ. eigenvalues --  -11.21602 -11.21593 -11.21579 -11.21492 -11.21398
 Alpha  occ. eigenvalues --  -11.21365 -11.21338 -11.21303 -11.21072 -11.21059
 Alpha  occ. eigenvalues --  -11.21055 -11.21035  -1.08428  -1.08385  -1.03545
 Alpha  occ. eigenvalues --   -1.03478  -0.95989  -0.95941  -0.87016  -0.86949
 Alpha  occ. eigenvalues --   -0.79691  -0.79474  -0.78285  -0.78145  -0.65063
 Alpha  occ. eigenvalues --   -0.65016  -0.60983  -0.60850  -0.59387  -0.59289
 Alpha  occ. eigenvalues --   -0.57669  -0.57487  -0.55305  -0.55193  -0.52679
 Alpha  occ. eigenvalues --   -0.52655  -0.52443  -0.52346  -0.49977  -0.49841
 Alpha  occ. eigenvalues --   -0.48138  -0.47698  -0.46688  -0.46487  -0.45920
 Alpha  occ. eigenvalues --   -0.45707  -0.45678  -0.45468  -0.43781  -0.43747
 Alpha virt. eigenvalues --    0.21956   0.23018   0.23558   0.24709   0.25680
 Alpha virt. eigenvalues --    0.26333   0.26842   0.27638   0.27823   0.29251
 Alpha virt. eigenvalues --    0.30732   0.31170   0.31628   0.31759   0.32275

 Mulliken charges:
               1
     1  C   -0.298570
     2  C   -0.299591
     3  C   -0.475690
     4  H    0.149867
     5  H    0.149419
     6  H    0.151923
     7  H    0.151923
     8  H    0.155044
     9  H    0.155057
    10  H    0.160202
    11  C   -0.297797
    12  C   -0.306060
    13  C   -0.476295
    14  H    0.149274
    15  H    0.149186
    16  H    0.160430
    17  H    0.151552
    18  H    0.155202
    19  H    0.155258
    20  H    0.159161
    21  C   -0.298288
    22  C   -0.299635
    23  C   -0.475694
    24  H    0.149665
    25  H    0.149468
    26  H    0.151893
    27  H    0.151850
    28  H    0.155188
    29  H    0.155200
    30  H    0.160213
    31  C   -0.298289
    32  C   -0.299858
    33  C   -0.480146
    34  H    0.149733
    35  H    0.149740
    36  H    0.151774
    37  H    0.151731
    38  H    0.160927
    39  H    0.155488
    40  H    0.159544
 Sum of Mulliken charges =  -0.00000

 Dipole moment (field-independent basis, Debye):
    X=             -0.0066    Y=              0.0019    Z=              0.0153  Tot=              0.0167
 Quadrupole moment (field-independent basis, Debye-Ang):
   XX=            -85.9226   YY=            -85.0590   ZZ=            -83.9672
   XY=             -0.2024   XZ=             -0.0788   YZ=              0.2562

 Normal termination of Gaussian 16 at Wed May  5 18:14:18 2021.
