 Gaussian 16, Revision A.03,
 Gaussian 16:  EM64L-G16RevA.03 25-Dec-2016

 -------------
 #p 6-31g* mp2
 -------------

 ------------------------------------------------------
 Input file generated by CHIRIPA (05-May-2021 14:53:13)
 ------------------------------------------------------
 Symbolic Z-matrix:
 Charge =  0 Multiplicity = 1

                         Standard orientation:
 ---------------------------------------------------------------------
 Center     Atomic      Atomic             Coordinates (Angstroms)
 Number     Number       Type             X           Y           Z
 ---------------------------------------------------------------------
      1          6           0        4.002003    0.521365    0.331407
      2          6           0        3.925830    1.938571   -0.237548
      3          6           0        2.681223    2.695788    0.226531
      4          1           0        3.101546   -0.034389    0.036011
      5          1           0        3.991257    0.573295    1.428942
      6          1           0        3.938112    1.884060   -1.333674
      7          1           0        4.826664    2.490955    0.059076
      8          1           0        2.666023    2.779741    1.318008
      9          1           0        1.772423    2.169398   -0.082656
     10          1           0        2.646888    3.706494   -0.191983
     11          6           0        5.240718   -0.248300   -0.123488
     12          6           0        5.316891   -1.665506    0.445467
     13          6           0        6.561498   -2.422724   -0.018612
     14          1           0        5.251464   -0.300231   -1.221023
     15          1           0        6.141176    0.307453    0.171908
     16          1           0        4.416058   -2.217891    0.148843
     17          1           0        5.304609   -1.610996    1.541593
     18          1           0        7.470298   -1.896333    0.290575
     19          1           0        6.576698   -2.506677   -1.110089
     20          1           0        6.595833   -3.433430    0.399902
     21          6           0       -1.415966    1.064406   -0.504069
     22          6           0       -2.518523    1.789700   -0.040563
     23          6           0       -3.739339    1.151233    0.197163
     24          6           0       -3.822591   -0.219881   -0.040339
     25          6           0       -2.742104   -0.969969   -0.502080
     26          6           0       -1.531072   -0.310689   -0.732945
     27          1           0       -0.471407    1.568468   -0.686076
     28          1           0       -2.432037    2.857717    0.138061
     29          1           0       -4.608802    1.688500    0.556048
     30          1           0       -2.858951   -2.033576   -0.670915
     31          1           0       -0.676478   -0.876500   -1.092904
     32          7           0       -5.109837   -0.906814    0.207699
     33          8           0       -5.157319   -2.115649   -0.009329
     34          8           0       -6.046922   -0.223391    0.614443
 ---------------------------------------------------------------------

 SCF Done:  E(RHF) =  -669.535469442     A.U. after   15 cycles
 E2 =    -0.2090817515D+01 EUMP2 =    -0.67162628695653D+03

 The electronic state is 1-A.
 Alpha  occ. eigenvalues --  -20.60740 -20.60735 -15.85794 -11.31157 -11.27729
 Alpha  occ. eigenvalues --  -11.27722 -11.27451 -11.26746 -11.26729 -11.22519
 Alpha  occ. eigenvalues --  -11.22242 -11.22217 -11.22170 -11.22033 -11.21535
 Alpha  occ. eigenvalues --   -1.59816  -1.39369  -1.19329  -1.09192  -1.08724
 Alpha  occ. eigenvalues --   -1.04733  -1.04300  -0.96765  -0.95560  -0.87784
 Alpha  occ. eigenvalues --   -0.86130  -0.82395  -0.80369  -0.78976  -0.77440
 Alpha  occ. eigenvalues --   -0.72012  -0.71139  -0.70459  -0.65826  -0.64982
 Alpha  occ. eigenvalues --   -0.64739  -0.62082  -0.61707  -0.60136  -0.58362
 Alpha  occ. eigenvalues --   -0.56157  -0.55189  -0.53449  -0.53170  -0.53054
 Alpha  occ. eigenvalues --   -0.52826  -0.50703  -0.48776  -0.48767  -0.48670
 Alpha  occ. eigenvalues --   -0.47398  -0.46527  -0.46430  -0.44775  -0.44542
 Alpha  occ. eigenvalues --   -0.37304  -0.36339
 Alpha virt. eigenvalues --    0.05087   0.11315   0.16541   0.19519   0.22469
 Alpha virt. eigenvalues --    0.23718   0.25356   0.26117   0.26631   0.27674
 Alpha virt. eigenvalues --    0.28686   0.30309   0.30916   0.31352   0.32065

 Mulliken charges:
               1
     1  C   -0.297253
     2  C   -0.300036
     3  C   -0.479917
     4  H    0.143690
     5  H    0.152298
     6  H    0.152457
     7  H    0.156292
     8  H    0.160416
     9  H    0.144869
    10  H    0.163069
    11  C   -0.298944
    12  C   -0.299829
    13  C   -0.476132
    14  H    0.149774
    15  H    0.151763
    16  H    0.150618
    17  H    0.153421
    18  H    0.156311
    19  H    0.155514
    20  H    0.162062
    21  C   -0.176546
    22  C   -0.220898
    23  C   -0.170772
    24  C    0.158405
    25  C   -0.170769
    26  C   -0.221108
    27  H    0.236248
    28  H    0.224155
    29  H    0.275521
    30  H    0.275471
    31  H    0.222862
    32  N    0.488000
    33  O   -0.460545
    34  O   -0.460468
 Sum of Mulliken charges =  -0.00000

 Dipole moment (field-independent basis, Debye):
    X=              4.7637    Y=              2.4448    Z=             -0.8238  Tot=              5.4174
 Quadrupole moment (field-independent basis, Debye-Ang):
   XX=           -128.6325   YY=            -92.3332   ZZ=            -94.4808
   XY=            -11.5169   XZ=              3.2734   YZ=              1.7399

 Normal termination of Gaussian 16 at Thu May  6 04:09:22 2021.
