 Gaussian 16, Revision A.03,
 Gaussian 16:  EM64L-G16RevA.03 25-Dec-2016

 -------------
 #p 6-31g* mp2
 -------------

 ------------------------------------------------------
 Input file generated by CHIRIPA (05-May-2021 14:51:11)
 ------------------------------------------------------
 Symbolic Z-matrix:
 Charge =  0 Multiplicity = 1

                         Standard orientation:
 ---------------------------------------------------------------------
 Center     Atomic      Atomic             Coordinates (Angstroms)
 Number     Number       Type             X           Y           Z
 ---------------------------------------------------------------------
      1          6           0       -2.942590    0.190124   -0.280210
      2          6           0       -2.457054   -1.249935   -0.448942
      3          6           0       -3.555774   -2.189803   -0.946191
      4          1           0       -3.786489    0.205789    0.423022
      5          1           0       -3.330242    0.554044   -1.241815
      6          1           0       -2.069160   -1.610561    0.512361
      7          1           0       -1.614090   -1.262150   -1.151707
      8          1           0       -3.937337   -1.856912   -1.916857
      9          1           0       -4.394993   -2.207304   -0.243335
     10          1           0       -3.186954   -3.213978   -1.059765
     11          6           0       -1.855537    1.141712    0.216302
     12          6           0       -2.341074    2.581770    0.385033
     13          6           0       -1.242354    3.521639    0.882282
     14          1           0       -1.467885    0.777791    1.177906
     15          1           0       -1.011639    1.126046   -0.486930
     16          1           0       -3.184038    2.593985    1.087798
     17          1           0       -2.728968    2.942397   -0.576269
     18          1           0       -0.403135    3.539139    0.179426
     19          1           0       -0.860790    3.188748    1.852949
     20          1           0       -1.611174    4.545813    0.995857
     21          6           0        2.366525    0.052258   -0.226109
     22          6           0        3.741293    0.702648   -0.384199
     23          6           0        3.659693    2.139222   -0.901294
     24          1           0        1.847902    0.065993   -1.194503
     25          1           0        1.759599    0.656742    0.462103
     26          1           0        4.345924    0.096366   -1.070829
     27          1           0        4.256780    0.687190    0.584641
     28          1           0        3.079018    2.763477   -0.214473
     29          1           0        3.168668    2.169297   -1.879349
     30          1           0        4.653684    2.584976   -1.006855
     31          6           0        2.431602   -1.384094    0.290017
     32          6           0        1.056835   -2.034483    0.448107
     33          6           0        1.138434   -3.471058    0.965203
     34          1           0        3.038529   -1.988577   -0.398194
     35          1           0        2.950225   -1.397829    1.258411
     36          1           0        0.541348   -2.019026   -0.520732
     37          1           0        0.452204   -1.428202    1.134738
     38          1           0        1.629459   -3.501132    1.943258
     39          1           0        1.719110   -4.095313    0.278381
     40          1           0        0.144443   -3.916812    1.070764
 ---------------------------------------------------------------------

 SCF Done:  E(RHF) =  -470.732079896     A.U. after   11 cycles
 E2 =    -0.1584967964D+01 EUMP2 =    -0.47231704786073D+03

 The electronic state is 1-A.
 Alpha  occ. eigenvalues --  -11.21590 -11.21583 -11.21502 -11.21459 -11.21367
 Alpha  occ. eigenvalues --  -11.21357 -11.21308 -11.21291 -11.21080 -11.21070
 Alpha  occ. eigenvalues --  -11.21036 -11.21030  -1.08453  -1.08337  -1.03560
 Alpha  occ. eigenvalues --   -1.03437  -0.95978  -0.95929  -0.87003  -0.86937
 Alpha  occ. eigenvalues --   -0.79814  -0.79370  -0.78537  -0.77842  -0.65134
 Alpha  occ. eigenvalues --   -0.64933  -0.60998  -0.60804  -0.59513  -0.59160
 Alpha  occ. eigenvalues --   -0.57709  -0.57405  -0.55252  -0.55236  -0.52697
 Alpha  occ. eigenvalues --   -0.52603  -0.52455  -0.52301  -0.49932  -0.49870
 Alpha  occ. eigenvalues --   -0.48305  -0.47533  -0.46836  -0.46479  -0.46337
 Alpha  occ. eigenvalues --   -0.45867  -0.45334  -0.44996  -0.43771  -0.43705
 Alpha virt. eigenvalues --    0.21131   0.22385   0.23630   0.23828   0.24973
 Alpha virt. eigenvalues --    0.25828   0.26277   0.27608   0.28527   0.30356
 Alpha virt. eigenvalues --    0.30850   0.31018   0.31475   0.31800   0.32324

 Mulliken charges:
               1
     1  C   -0.298188
     2  C   -0.302351
     3  C   -0.475727
     4  H    0.149059
     5  H    0.148990
     6  H    0.155410
     7  H    0.154072
     8  H    0.154723
     9  H    0.154845
    10  H    0.159705
    11  C   -0.301790
    12  C   -0.299521
    13  C   -0.476622
    14  H    0.149114
    15  H    0.154119
    16  H    0.151760
    17  H    0.151967
    18  H    0.156139
    19  H    0.154386
    20  H    0.160438
    21  C   -0.300562
    22  C   -0.299461
    23  C   -0.476301
    24  H    0.148228
    25  H    0.153017
    26  H    0.151773
    27  H    0.152032
    28  H    0.155826
    29  H    0.154540
    30  H    0.160381
    31  C   -0.298174
    32  C   -0.302849
    33  C   -0.476909
    34  H    0.148792
    35  H    0.148945
    36  H    0.156403
    37  H    0.154076
    38  H    0.154729
    39  H    0.154894
    40  H    0.160091
 Sum of Mulliken charges =  -0.00000

 Dipole moment (field-independent basis, Debye):
    X=             -0.0065    Y=              0.0063    Z=             -0.0030  Tot=              0.0095
 Quadrupole moment (field-independent basis, Debye-Ang):
   XX=            -85.4270   YY=            -86.4879   ZZ=            -83.1891
   XY=             -0.6013   XZ=             -0.5216   YZ=              0.2415

 Normal termination of Gaussian 16 at Wed May  5 19:52:46 2021.
