 Gaussian 16, Revision A.03,
 Gaussian 16:  EM64L-G16RevA.03 25-Dec-2016

 -------------
 #p 6-31g* mp2
 -------------

 ------------------------------------------------------
 Input file generated by CHIRIPA (05-May-2021 14:53:11)
 ------------------------------------------------------
 Symbolic Z-matrix:
 Charge =  0 Multiplicity = 1

                         Standard orientation:
 ---------------------------------------------------------------------
 Center     Atomic      Atomic             Coordinates (Angstroms)
 Number     Number       Type             X           Y           Z
 ---------------------------------------------------------------------
      1          6           0        4.132566    0.190086    0.258557
      2          6           0        5.083228    0.438076   -0.913078
      3          6           0        6.030529    1.612808   -0.667279
      4          1           0        3.548114    1.100968    0.447382
      5          1           0        4.722102    0.003090    1.166783
      6          1           0        4.492077    0.623180   -1.819110
      7          1           0        5.665348   -0.473564   -1.099259
      8          1           0        6.645049    1.432860    0.220744
      9          1           0        5.465111    2.535836   -0.503197
     10          1           0        6.701216    1.772362   -1.517328
     11          6           0        3.179309   -0.981145    0.027800
     12          6           0        2.228647   -1.229135    1.199435
     13          6           0        1.281345   -2.403867    0.953636
     14          1           0        2.589772   -0.794149   -0.880426
     15          1           0        3.763761   -1.892027   -0.161025
     16          1           0        1.646526   -0.317495    1.385616
     17          1           0        2.819798   -1.414239    2.105467
     18          1           0        1.846764   -3.326895    0.789554
     19          1           0        0.666826   -2.223919    0.065613
     20          1           0        0.610659   -2.563420    1.803685
     21          6           0       -2.490898    2.732123    0.488962
     22          6           0       -1.400613    1.860053    0.403559
     23          6           0       -1.591214    0.515461    0.071459
     24          6           0       -2.891518    0.074750   -0.169943
     25          6           0       -3.998098    0.919028   -0.092727
     26          6           0       -3.783881    2.259661    0.240983
     27          1           0       -2.333661    3.775096    0.747572
     28          1           0       -0.395348    2.224198    0.595619
     29          1           0       -0.765067   -0.181362   -0.001604
     30          1           0       -4.988431    0.526778   -0.289704
     31          1           0       -4.632488    2.934648    0.306581
     32          7           0       -3.105799   -1.346614   -0.522376
     33          8           0       -4.261300   -1.710185   -0.730390
     34          8           0       -2.114194   -2.070195   -0.583925
 ---------------------------------------------------------------------

 SCF Done:  E(RHF) =  -669.535427136     A.U. after   15 cycles
 E2 =    -0.2092249507D+01 EUMP2 =    -0.67162767664388D+03

 The electronic state is 1-A.
 Alpha  occ. eigenvalues --  -20.60820 -20.60814 -15.85865 -11.31206 -11.27780
 Alpha  occ. eigenvalues --  -11.27754 -11.27524 -11.26794 -11.26784 -11.21835
 Alpha  occ. eigenvalues --  -11.21798 -11.21680 -11.21570 -11.21315 -11.20716
 Alpha  occ. eigenvalues --   -1.59891  -1.39446  -1.19382  -1.08783  -1.08651
 Alpha  occ. eigenvalues --   -1.04785  -1.03671  -0.96080  -0.95616  -0.87073
 Alpha  occ. eigenvalues --   -0.86183  -0.82458  -0.79722  -0.78465  -0.77510
 Alpha  occ. eigenvalues --   -0.72096  -0.71209  -0.70502  -0.65335  -0.65039
 Alpha  occ. eigenvalues --   -0.64781  -0.62214  -0.60998  -0.59453  -0.57688
 Alpha  occ. eigenvalues --   -0.55438  -0.55213  -0.53113  -0.52864  -0.52725
 Alpha  occ. eigenvalues --   -0.52470  -0.50035  -0.48840  -0.48827  -0.48008
 Alpha  occ. eigenvalues --   -0.46768  -0.46007  -0.45925  -0.44853  -0.43918
 Alpha  occ. eigenvalues --   -0.37365  -0.36384
 Alpha virt. eigenvalues --    0.05019   0.11260   0.16508   0.19286   0.22948
 Alpha virt. eigenvalues --    0.23785   0.25466   0.26594   0.27602   0.28262
 Alpha virt. eigenvalues --    0.29396   0.30792   0.31555   0.31772   0.32104

 Mulliken charges:
               1
     1  C   -0.296623
     2  C   -0.299860
     3  C   -0.475528
     4  H    0.142626
     5  H    0.150908
     6  H    0.151958
     7  H    0.154085
     8  H    0.155816
     9  H    0.152990
    10  H    0.161379
    11  C   -0.298549
    12  C   -0.302879
    13  C   -0.485660
    14  H    0.148026
    15  H    0.153724
    16  H    0.138035
    17  H    0.153814
    18  H    0.157706
    19  H    0.173399
    20  H    0.163093
    21  C   -0.170258
    22  C   -0.222665
    23  C   -0.174522
    24  C    0.156009
    25  C   -0.169924
    26  C   -0.219097
    27  H    0.225741
    28  H    0.223963
    29  H    0.287395
    30  H    0.275646
    31  H    0.223547
    32  N    0.490631
    33  O   -0.459951
    34  O   -0.464973
 Sum of Mulliken charges =  -0.00000

 Dipole moment (field-independent basis, Debye):
    X=              0.7371    Y=              4.8456    Z=              1.1929  Tot=              5.0445
 Quadrupole moment (field-independent basis, Debye-Ang):
   XX=            -94.0950   YY=            -94.3280   ZZ=            -95.9591
   XY=            -16.8598   XZ=             -3.2284   YZ=             -1.0953

 Normal termination of Gaussian 16 at Wed May  5 23:18:41 2021.
