 Gaussian 16, Revision A.03,
 Gaussian 16:  EM64L-G16RevA.03 25-Dec-2016

 -------------
 #p 6-31g* mp2
 -------------

 ------------------------------------------------------
 Input file generated by CHIRIPA (05-May-2021 14:51:13)
 ------------------------------------------------------
 Symbolic Z-matrix:
 Charge =  0 Multiplicity = 1

                         Standard orientation:
 ---------------------------------------------------------------------
 Center     Atomic      Atomic             Coordinates (Angstroms)
 Number     Number       Type             X           Y           Z
 ---------------------------------------------------------------------
      1          6           0       -2.116179   -1.430381   -0.408440
      2          6           0       -0.622013   -1.411992   -0.084224
      3          6           0        0.153650   -2.512688   -0.808523
      4          1           0       -2.531249   -2.411309   -0.139289
      5          1           0       -2.250176   -1.321362   -1.493592
      6          1           0       -0.490923   -1.519624    1.000141
      7          1           0       -0.210490   -0.430928   -0.354001
      8          1           0        0.052507   -2.405249   -1.893340
      9          1           0       -0.229520   -3.500131   -0.531504
     10          1           0        1.219618   -2.481134   -0.562400
     11          6           0       -2.905089   -0.335899    0.308119
     12          6           0       -4.399254   -0.354288   -0.016096
     13          6           0       -5.174917    0.746408    0.708202
     14          1           0       -2.771091   -0.444918    1.393271
     15          1           0       -2.490018    0.645029    0.038968
     16          1           0       -4.810777   -1.335352    0.253681
     17          1           0       -4.530344   -0.246656   -1.100461
     18          1           0       -4.791748    1.733851    0.431184
     19          1           0       -5.073774    0.638969    1.793019
     20          1           0       -6.240885    0.714854    0.462080
     21          6           0        2.869848    0.408416    0.528735
     22          6           0        3.918942   -0.466246   -0.158546
     23          6           0        4.628971   -1.410613    0.811930
     24          1           0        3.352765    0.992718    1.323924
     25          1           0        2.129600   -0.237416    1.021004
     26          1           0        4.656221    0.181039   -0.650540
     27          1           0        3.433506   -1.048391   -0.952319
     28          1           0        3.909227   -2.080063    1.294016
     29          1           0        5.138889   -0.843647    1.597509
     30          1           0        5.374669   -2.026473    0.299572
     31          6           0        2.151419    1.357864   -0.428414
     32          6           0        1.102326    2.232526    0.258866
     33          6           0        0.392296    3.176893   -0.711610
     34          1           0        2.891667    2.003696   -0.920684
     35          1           0        1.668502    0.773563   -1.223605
     36          1           0        1.587761    2.814672    1.052639
     37          1           0        0.365046    1.585241    0.750859
     38          1           0       -0.117622    2.609927   -1.497190
     39          1           0        1.112040    3.846343   -1.193696
     40          1           0       -0.353402    3.792753   -0.199251
 ---------------------------------------------------------------------

 SCF Done:  E(RHF) =  -470.732026836     A.U. after   11 cycles
 E2 =    -0.1585810751D+01 EUMP2 =    -0.47231783758764D+03

 The electronic state is 1-A.
 Alpha  occ. eigenvalues --  -11.21633 -11.21629 -11.21586 -11.21569 -11.21453
 Alpha  occ. eigenvalues --  -11.21393 -11.21384 -11.21315 -11.21151 -11.21114
 Alpha  occ. eigenvalues --  -11.21088 -11.21078  -1.08550  -1.08374  -1.03591
 Alpha  occ. eigenvalues --   -1.03537  -0.96059  -0.95965  -0.87081  -0.86978
 Alpha  occ. eigenvalues --   -0.79672  -0.79597  -0.78373  -0.78179  -0.65487
 Alpha  occ. eigenvalues --   -0.64837  -0.61161  -0.60779  -0.59383  -0.59335
 Alpha  occ. eigenvalues --   -0.57666  -0.57562  -0.55417  -0.55172  -0.52732
 Alpha  occ. eigenvalues --   -0.52689  -0.52458  -0.52407  -0.50106  -0.49840
 Alpha  occ. eigenvalues --   -0.48069  -0.47829  -0.46689  -0.46635  -0.46095
 Alpha  occ. eigenvalues --   -0.45858  -0.45614  -0.45355  -0.43823  -0.43778
 Alpha virt. eigenvalues --    0.19725   0.21655   0.23659   0.24940   0.25517
 Alpha virt. eigenvalues --    0.26535   0.26934   0.27829   0.28575   0.29852
 Alpha virt. eigenvalues --    0.30483   0.31282   0.31573   0.31739   0.32719

 Mulliken charges:
               1
     1  C   -0.297561
     2  C   -0.309795
     3  C   -0.480743
     4  H    0.149760
     5  H    0.149226
     6  H    0.151054
     7  H    0.164222
     8  H    0.155061
     9  H    0.155840
    10  H    0.164724
    11  C   -0.300776
    12  C   -0.299585
    13  C   -0.475814
    14  H    0.149473
    15  H    0.151684
    16  H    0.152123
    17  H    0.152035
    18  H    0.155465
    19  H    0.155202
    20  H    0.160371
    21  C   -0.301945
    22  C   -0.302480
    23  C   -0.476414
    24  H    0.149737
    25  H    0.155030
    26  H    0.152198
    27  H    0.153930
    28  H    0.155084
    29  H    0.155431
    30  H    0.160424
    31  C   -0.302140
    32  C   -0.305567
    33  C   -0.476026
    34  H    0.150800
    35  H    0.150431
    36  H    0.152840
    37  H    0.156673
    38  H    0.153912
    39  H    0.155708
    40  H    0.160409
 Sum of Mulliken charges =  -0.00000

 Dipole moment (field-independent basis, Debye):
    X=             -0.0113    Y=             -0.0002    Z=              0.0112  Tot=              0.0159
 Quadrupole moment (field-independent basis, Debye-Ang):
   XX=            -85.1188   YY=            -85.0109   ZZ=            -84.6764
   XY=              1.5673   XZ=             -0.0277   YZ=             -0.2725

 Normal termination of Gaussian 16 at Wed May  5 19:57:34 2021.
