 Gaussian 16, Revision A.03,
 Gaussian 16:  EM64L-G16RevA.03 25-Dec-2016

 -------------
 #p 6-31g* mp2
 -------------

 ------------------------------------------------------
 Input file generated by CHIRIPA (05-May-2021 14:55:19)
 ------------------------------------------------------
 Symbolic Z-matrix:
 Charge =  0 Multiplicity = 1

                         Standard orientation:
 ---------------------------------------------------------------------
 Center     Atomic      Atomic             Coordinates (Angstroms)
 Number     Number       Type             X           Y           Z
 ---------------------------------------------------------------------
      1          6           0       -1.218823    1.451482    0.348408
      2          6           0       -1.251456    0.219081   -0.312382
      3          6           0       -2.469443   -0.419084   -0.564974
      4          6           0       -3.640908    0.206385   -0.141005
      5          6           0       -3.641159    1.433927    0.519622
      6          6           0       -2.411675    2.053910    0.761572
      7          1           0       -0.268196    1.940161    0.540494
      8          1           0       -0.326644   -0.251109   -0.634390
      9          1           0       -2.523617   -1.373458   -1.074535
     10          1           0       -4.579628    1.878023    0.828607
     11          1           0       -2.389362    3.010979    1.274960
     12          7           0       -4.936421   -0.459587   -0.402780
     13          8           0       -5.954493    0.112230   -0.019125
     14          8           0       -4.909242   -1.540783   -0.986659
     15          6           0        4.918847    0.134968    0.222386
     16          6           0        5.898600    0.238206   -0.946978
     17          6           0        6.956478    1.322171   -0.737917
     18          1           0        4.426776    1.106505    0.367039
     19          1           0        5.479691   -0.071705    1.144413
     20          1           0        5.335943    0.443250   -1.866755
     21          1           0        6.388255   -0.733744   -1.088986
     22          1           0        7.543041    1.119181    0.163936
     23          1           0        6.484750    2.302862   -0.618252
     24          1           0        7.646333    1.378716   -1.585715
     25          6           0        3.855276   -0.944298    0.028141
     26          6           0        2.875523   -1.047537    1.197504
     27          6           0        1.817644   -2.131502    0.988443
     28          1           0        3.294431   -0.737625   -0.893887
     29          1           0        4.347347   -1.915835   -0.116513
     30          1           0        2.385867   -0.075587    1.339513
     31          1           0        3.438180   -1.252581    2.117281
     32          1           0        2.289373   -3.112192    0.868778
     33          1           0        1.231081   -1.928511    0.086590
     34          1           0        1.127789   -2.188047    1.836241
 ---------------------------------------------------------------------

 SCF Done:  E(RHF) =  -669.535307782     A.U. after   15 cycles
 E2 =    -0.2091207728D+01 EUMP2 =    -0.67162651550997D+03

 The electronic state is 1-A.
 Alpha  occ. eigenvalues --  -20.60743 -20.60738 -15.85796 -11.31165 -11.27734
 Alpha  occ. eigenvalues --  -11.27724 -11.27481 -11.26754 -11.26724 -11.22554
 Alpha  occ. eigenvalues --  -11.22235 -11.22212 -11.22101 -11.22023 -11.21597
 Alpha  occ. eigenvalues --   -1.59818  -1.39372  -1.19337  -1.09223  -1.08733
 Alpha  occ. eigenvalues --   -1.04742  -1.04300  -0.96743  -0.95567  -0.87759
 Alpha  occ. eigenvalues --   -0.86139  -0.82401  -0.80365  -0.79017  -0.77447
 Alpha  occ. eigenvalues --   -0.72015  -0.71141  -0.70449  -0.65897  -0.64989
 Alpha  occ. eigenvalues --   -0.64758  -0.62187  -0.61611  -0.60104  -0.58340
 Alpha  occ. eigenvalues --   -0.56065  -0.55239  -0.53424  -0.53186  -0.53062
 Alpha  occ. eigenvalues --   -0.52806  -0.50674  -0.48781  -0.48769  -0.48662
 Alpha  occ. eigenvalues --   -0.47414  -0.46556  -0.46485  -0.44776  -0.44544
 Alpha  occ. eigenvalues --   -0.37318  -0.36335
 Alpha virt. eigenvalues --    0.05086   0.11268   0.16554   0.18941   0.22674
 Alpha virt. eigenvalues --    0.23765   0.25231   0.25564   0.27056   0.28365
 Alpha virt. eigenvalues --    0.28522   0.29899   0.31012   0.31517   0.31925

 Mulliken charges:
               1
     1  C   -0.172710
     2  C   -0.220115
     3  C   -0.172366
     4  C    0.158612
     5  C   -0.171092
     6  C   -0.218501
     7  H    0.225579
     8  H    0.228809
     9  H    0.275668
    10  H    0.275520
    11  H    0.223281
    12  N    0.488095
    13  O   -0.460572
    14  O   -0.460345
    15  C   -0.298008
    16  C   -0.300147
    17  C   -0.476004
    18  H    0.146675
    19  H    0.151869
    20  H    0.151767
    21  H    0.153840
    22  H    0.156331
    23  H    0.154660
    24  H    0.162247
    25  C   -0.298296
    26  C   -0.300657
    27  C   -0.476865
    28  H    0.145221
    29  H    0.153583
    30  H    0.144415
    31  H    0.157043
    32  H    0.160801
    33  H    0.145845
    34  H    0.165818
 Sum of Mulliken charges =  -0.00000

 Dipole moment (field-independent basis, Debye):
    X=              4.7522    Y=              2.2721    Z=              0.9828  Tot=              5.3583
 Quadrupole moment (field-independent basis, Debye-Ang):
   XX=           -126.8446   YY=            -91.0927   ZZ=            -94.4521
   XY=            -11.0114   XZ=             -4.8793   YZ=              1.3749

 Normal termination of Gaussian 16 at Thu May  6 15:43:40 2021.
