 Gaussian 16, Revision A.03,
 Gaussian 16:  EM64L-G16RevA.03 25-Dec-2016

 -------------
 #p 6-31g* mp2
 -------------

 ------------------------------------------------------
 Input file generated by CHIRIPA (05-May-2021 14:55:19)
 ------------------------------------------------------
 Symbolic Z-matrix:
 Charge =  0 Multiplicity = 1

                         Standard orientation:
 ---------------------------------------------------------------------
 Center     Atomic      Atomic             Coordinates (Angstroms)
 Number     Number       Type             X           Y           Z
 ---------------------------------------------------------------------
      1          6           0        1.483667    1.789591    1.187927
      2          6           0        2.610478    2.105875    0.421909
      3          6           0        3.434213    1.094188   -0.080583
      4          6           0        3.099970   -0.229015    0.203505
      5          6           0        1.984153   -0.576108    0.963617
      6          6           0        1.174646    0.451968    1.455864
      7          1           0        0.849296    2.581859    1.574296
      8          1           0        2.852905    3.143812    0.212241
      9          1           0        4.312599    1.310833   -0.676336
     10          1           0        1.768177   -1.620038    1.155924
     11          1           0        0.300184    0.203381    2.050478
     12          7           0        3.964490   -1.308717   -0.323037
     13          8           0        3.648334   -2.466640   -0.058655
     14          8           0        4.941887   -0.976621   -0.990154
     15          6           0       -4.194406   -0.503512   -0.067143
     16          6           0       -5.690793   -0.199508    0.012812
     17          6           0       -6.495325   -1.347072    0.624056
     18          1           0       -4.043248   -1.415831   -0.660245
     19          1           0       -3.817004   -0.720481    0.941761
     20          1           0       -6.064974    0.018179   -0.995760
     21          1           0       -5.838393    0.712300    0.605632
     22          1           0       -6.149784   -1.561142    1.640607
     23          1           0       -6.377652   -2.259207    0.030116
     24          1           0       -7.562418   -1.108515    0.671637
     25          6           0       -3.376759    0.634242   -0.675989
     26          6           0       -1.880372    0.330239   -0.755945
     27          6           0       -1.075840    1.477803   -1.367189
     28          1           0       -3.754161    0.851212   -1.684894
     29          1           0       -3.527916    1.546561   -0.082888
     30          1           0       -1.732772   -0.581569   -1.348764
     31          1           0       -1.506190    0.112552    0.252627
     32          1           0       -1.193512    2.389938   -0.773249
     33          1           0       -1.421381    1.691872   -2.383740
     34          1           0       -0.008747    1.239246   -1.414770
 ---------------------------------------------------------------------

 SCF Done:  E(RHF) =  -669.534254423     A.U. after   15 cycles
 E2 =    -0.2093655111D+01 EUMP2 =    -0.67162790953408D+03

 The electronic state is 1-A.
 Alpha  occ. eigenvalues --  -20.60793 -20.60788 -15.85848 -11.31232 -11.27809
 Alpha  occ. eigenvalues --  -11.27797 -11.27529 -11.26802 -11.26787 -11.22073
 Alpha  occ. eigenvalues --  -11.21972 -11.21855 -11.21791 -11.21440 -11.21384
 Alpha  occ. eigenvalues --   -1.59869  -1.39421  -1.19416  -1.08894  -1.08777
 Alpha  occ. eigenvalues --   -1.04819  -1.03931  -0.96380  -0.95625  -0.87394
 Alpha  occ. eigenvalues --   -0.86212  -0.82464  -0.80008  -0.78689  -0.77503
 Alpha  occ. eigenvalues --   -0.72065  -0.71194  -0.70511  -0.65550  -0.65056
 Alpha  occ. eigenvalues --   -0.64802  -0.62183  -0.61336  -0.59779  -0.58025
 Alpha  occ. eigenvalues --   -0.55721  -0.55301  -0.53501  -0.52943  -0.52862
 Alpha  occ. eigenvalues --   -0.52466  -0.50330  -0.48829  -0.48819  -0.48312
 Alpha  occ. eigenvalues --   -0.47057  -0.46221  -0.46161  -0.44824  -0.44186
 Alpha  occ. eigenvalues --   -0.37315  -0.36387
 Alpha virt. eigenvalues --    0.05018   0.11153   0.16452   0.20346   0.22743
 Alpha virt. eigenvalues --    0.24146   0.25426   0.26322   0.27362   0.28165
 Alpha virt. eigenvalues --    0.28402   0.30334   0.31282   0.31586   0.31973

 Mulliken charges:
               1
     1  C   -0.167374
     2  C   -0.219346
     3  C   -0.171401
     4  C    0.157917
     5  C   -0.171671
     6  C   -0.214971
     7  H    0.225776
     8  H    0.223947
     9  H    0.275946
    10  H    0.276084
    11  H    0.223218
    12  N    0.488152
    13  O   -0.460231
    14  O   -0.460349
    15  C   -0.297868
    16  C   -0.299764
    17  C   -0.475892
    18  H    0.152042
    19  H    0.145576
    20  H    0.153328
    21  H    0.151061
    22  H    0.154505
    23  H    0.156536
    24  H    0.161295
    25  C   -0.297941
    26  C   -0.300048
    27  C   -0.476795
    28  H    0.151894
    29  H    0.146509
    30  H    0.155964
    31  H    0.143017
    32  H    0.145160
    33  H    0.156333
    34  H    0.169393
 Sum of Mulliken charges =  -0.00000

 Dipole moment (field-independent basis, Debye):
    X=             -3.0224    Y=              3.7828    Z=              1.8111  Tot=              5.1696
 Quadrupole moment (field-independent basis, Debye-Ang):
   XX=           -112.7642   YY=            -94.9572   ZZ=            -93.0077
   XY=             14.6829   XZ=              4.2709   YZ=             -0.5421

 Normal termination of Gaussian 16 at Thu May  6 02:54:17 2021.
