 Gaussian 16, Revision A.03,
 Gaussian 16:  EM64L-G16RevA.03 25-Dec-2016

 -------------
 #p 6-31g* mp2
 -------------

 ------------------------------------------------------
 Input file generated by CHIRIPA (05-May-2021 14:57:23)
 ------------------------------------------------------
 Symbolic Z-matrix:
 Charge =  0 Multiplicity = 1

                         Standard orientation:
 ---------------------------------------------------------------------
 Center     Atomic      Atomic             Coordinates (Angstroms)
 Number     Number       Type             X           Y           Z
 ---------------------------------------------------------------------
      1          6           0        2.708839    2.448289    0.892948
      2          6           0        1.749416    1.806885    0.102614
      3          6           0        2.021243    0.562760   -0.474285
      4          6           0        3.268449   -0.013788   -0.238997
      5          6           0        4.245051    0.600216    0.543650
      6          6           0        3.951404    1.843973    1.110560
      7          1           0        2.489201    3.414613    1.337217
      8          1           0        0.783572    2.273842   -0.068096
      9          1           0        1.296760    0.044109   -1.090356
     10          1           0        5.198879    0.109833    0.695816
     11          1           0        4.698419    2.339780    1.723902
     12          7           0        3.567770   -1.330693   -0.844446
     13          8           0        4.674135   -1.817613   -0.621956
     14          8           0        2.690346   -1.851026   -1.530023
     15          6           0       -4.676671    1.476483   -1.052403
     16          6           0       -3.301882    1.704010   -0.931130
     17          6           0       -2.484657    0.780165   -0.272948
     18          6           0       -3.078206   -0.365644    0.254412
     19          6           0       -4.444702   -0.620681    0.149854
     20          6           0       -5.242695    0.316908   -0.512476
     21          1           0       -5.304040    2.199487   -1.565306
     22          1           0       -2.859561    2.603674   -1.349465
     23          1           0       -1.417482    0.931297   -0.164707
     24          1           0       -4.856778   -1.526773    0.577184
     25          1           0       -6.310075    0.137586   -0.605154
     26          7           0       -2.223226   -1.350953    0.953395
     27          8           0       -2.770503   -2.352593    1.409293
     28          8           0       -1.022007   -1.102941    1.032126
 ---------------------------------------------------------------------

 SCF Done:  E(RHF) =  -868.336368296     A.U. after   16 cycles
 E2 =    -0.2600830966D+01 EUMP2 =    -0.87093719926209D+03

 The electronic state is 1-A.
 Alpha  occ. eigenvalues --  -20.61075 -20.61061 -20.60242 -20.60216 -15.86123
 Alpha  occ. eigenvalues --  -15.85295 -11.31634 -11.30753 -11.28324 -11.28144
 Alpha  occ. eigenvalues --  -11.27929 -11.27408 -11.27394 -11.27301 -11.27234
 Alpha  occ. eigenvalues --  -11.27185 -11.26559 -11.26417  -1.60132  -1.59301
 Alpha  occ. eigenvalues --   -1.39688  -1.38852  -1.19804  -1.18981  -1.09159
 Alpha  occ. eigenvalues --   -1.08367  -1.05245  -1.04433  -0.95982  -0.95175
 Alpha  occ. eigenvalues --   -0.86630  -0.85831  -0.82821  -0.82038  -0.77877
 Alpha  occ. eigenvalues --   -0.77033  -0.72340  -0.71523  -0.71452  -0.70922
 Alpha  occ. eigenvalues --   -0.70613  -0.70116  -0.65461  -0.65267  -0.64661
 Alpha  occ. eigenvalues --   -0.64502  -0.62661  -0.61738  -0.55707  -0.54961
 Alpha  occ. eigenvalues --   -0.53536  -0.53354  -0.52699  -0.52563  -0.49104
 Alpha  occ. eigenvalues --   -0.49086  -0.48291  -0.48257  -0.45057  -0.44237
 Alpha  occ. eigenvalues --   -0.37758  -0.36970  -0.36844  -0.35992
 Alpha virt. eigenvalues --    0.04687   0.05529   0.10794   0.11647   0.16178
 Alpha virt. eigenvalues --    0.16843   0.18924   0.22184   0.24954   0.27311
 Alpha virt. eigenvalues --    0.28297   0.29216   0.30892   0.31210   0.32668

 Mulliken charges:
               1
     1  C   -0.169752
     2  C   -0.217156
     3  C   -0.156529
     4  C    0.157562
     5  C   -0.169216
     6  C   -0.219069
     7  H    0.223060
     8  H    0.208305
     9  H    0.276151
    10  H    0.275518
    11  H    0.222273
    12  N    0.488952
    13  O   -0.462291
    14  O   -0.457610
    15  C   -0.170427
    16  C   -0.219294
    17  C   -0.176795
    18  C    0.160143
    19  C   -0.169166
    20  C   -0.218080
    21  H    0.227022
    22  H    0.220433
    23  H    0.272180
    24  H    0.277995
    25  H    0.225644
    26  N    0.488385
    27  O   -0.456193
    28  O   -0.462044
 Sum of Mulliken charges =  -0.00000

 Dipole moment (field-independent basis, Debye):
    X=             -4.2116    Y=              7.8444    Z=             -0.2809  Tot=              8.9079
 Quadrupole moment (field-independent basis, Debye-Ang):
   XX=            -85.0495   YY=           -107.2399   ZZ=           -107.5595
   XY=              8.3192   XZ=             15.6986   YZ=              0.0697

 Normal termination of Gaussian 16 at Thu May  6 16:17:17 2021.
