 Gaussian 16, Revision A.03,
 Gaussian 16:  EM64L-G16RevA.03 25-Dec-2016

 -------------
 #p 6-31g* mp2
 -------------

 ------------------------------------------------------
 Input file generated by CHIRIPA (05-May-2021 14:55:21)
 ------------------------------------------------------
 Symbolic Z-matrix:
 Charge =  0 Multiplicity = 1

                         Standard orientation:
 ---------------------------------------------------------------------
 Center     Atomic      Atomic             Coordinates (Angstroms)
 Number     Number       Type             X           Y           Z
 ---------------------------------------------------------------------
      1          6           0       -3.061727    0.301834   -1.672314
      2          6           0       -2.998665    0.947440   -0.433066
      3          6           0       -2.221744    0.420881    0.603117
      4          6           0       -1.517575   -0.758284    0.364358
      5          6           0       -1.560090   -1.424822   -0.859247
      6          6           0       -2.343504   -0.880153   -1.881082
      7          1           0       -3.667780    0.717912   -2.471673
      8          1           0       -3.555391    1.865528   -0.268089
      9          1           0       -2.154999    0.900124    1.572287
     10          1           0       -0.993994   -2.338534   -0.993726
     11          1           0       -2.390599   -1.383695   -2.842473
     12          7           0       -0.691646   -1.325315    1.453724
     13          8           0       -0.080664   -2.365413    1.218068
     14          8           0       -0.670904   -0.718919    2.522597
     15          6           0        1.513701    1.215232    0.058572
     16          6           0        1.609200    2.737048   -0.055181
     17          6           0        0.395403    3.451644    0.539667
     18          1           0        0.600535    0.872696   -0.447137
     19          1           0        1.407041    0.939601    1.116894
     20          1           0        1.717038    3.009648   -1.112856
     21          1           0        2.522344    3.075984    0.450692
     22          1           0        0.287568    3.208674    1.601712
     23          1           0       -0.522313    3.141961    0.029279
     24          1           0        0.484512    4.538590    0.447656
     25          6           0        2.719766    0.486734   -0.531704
     26          6           0        2.624266   -1.035083   -0.417952
     27          6           0        3.838063   -1.749678   -1.012799
     28          1           0        2.826426    0.762366   -1.590026
     29          1           0        3.632931    0.829271   -0.025996
     30          1           0        1.711122   -1.374018   -0.923824
     31          1           0        2.516427   -1.307682    0.639723
     32          1           0        4.755779   -1.439994   -0.502413
     33          1           0        3.945897   -1.506708   -2.074844
     34          1           0        3.748954   -2.836624   -0.920789
 ---------------------------------------------------------------------

 SCF Done:  E(RHF) =  -669.534085251     A.U. after   15 cycles
 E2 =    -0.2097778151D+01 EUMP2 =    -0.67163186340155D+03

 The electronic state is 1-A.
 Alpha  occ. eigenvalues --  -20.60957 -20.60914 -15.85907 -11.31222 -11.27842
 Alpha  occ. eigenvalues --  -11.27803 -11.27603 -11.26880 -11.26865 -11.21399
 Alpha  occ. eigenvalues --  -11.21037 -11.20913 -11.20849 -11.20757 -11.20469
 Alpha  occ. eigenvalues --   -1.59972  -1.39533  -1.19466  -1.08859  -1.07994
 Alpha  occ. eigenvalues --   -1.04862  -1.03105  -0.95703  -0.95599  -0.86634
 Alpha  occ. eigenvalues --   -0.86250  -0.82540  -0.79200  -0.77945  -0.77513
 Alpha  occ. eigenvalues --   -0.72174  -0.71213  -0.70562  -0.65115  -0.64861
 Alpha  occ. eigenvalues --   -0.64648  -0.62208  -0.60510  -0.58981  -0.57215
 Alpha  occ. eigenvalues --   -0.55362  -0.54933  -0.53293  -0.52942  -0.52296
 Alpha  occ. eigenvalues --   -0.52054  -0.49579  -0.48961  -0.48934  -0.47614
 Alpha  occ. eigenvalues --   -0.46214  -0.45391  -0.45161  -0.44620  -0.43347
 Alpha  occ. eigenvalues --   -0.37326  -0.36427
 Alpha virt. eigenvalues --    0.04866   0.11028   0.16305   0.21054   0.23428
 Alpha virt. eigenvalues --    0.24370   0.26708   0.26934   0.27251   0.28249
 Alpha virt. eigenvalues --    0.29252   0.30172   0.31375   0.32186   0.32329

 Mulliken charges:
               1
     1  C   -0.171534
     2  C   -0.218721
     3  C   -0.168220
     4  C    0.158868
     5  C   -0.172854
     6  C   -0.218330
     7  H    0.226262
     8  H    0.224780
     9  H    0.276821
    10  H    0.276140
    11  H    0.224049
    12  N    0.491207
    13  O   -0.456231
    14  O   -0.460073
    15  C   -0.317313
    16  C   -0.296132
    17  C   -0.480191
    18  H    0.152103
    19  H    0.161938
    20  H    0.149127
    21  H    0.153261
    22  H    0.158291
    23  H    0.149452
    24  H    0.158488
    25  C   -0.296106
    26  C   -0.303892
    27  C   -0.476155
    28  H    0.144128
    29  H    0.149278
    30  H    0.144705
    31  H    0.171210
    32  H    0.154383
    33  H    0.149235
    34  H    0.162027
 Sum of Mulliken charges =  -0.00000

 Dipole moment (field-independent basis, Debye):
    X=             -3.0129    Y=              1.8156    Z=             -3.6430  Tot=              5.0641
 Quadrupole moment (field-independent basis, Debye-Ang):
   XX=            -86.7506   YY=            -96.0187   ZZ=            -95.6025
   XY=             -1.6475   XZ=              5.2200   YZ=              5.9712

 Normal termination of Gaussian 16 at Wed May  5 23:49:47 2021.
