 Gaussian 16, Revision A.03,
 Gaussian 16:  EM64L-G16RevA.03 25-Dec-2016

 -------------
 #p 6-31g* mp2
 -------------

 ------------------------------------------------------
 Input file generated by CHIRIPA (05-May-2021 14:55:20)
 ------------------------------------------------------
 Symbolic Z-matrix:
 Charge =  0 Multiplicity = 1

                         Standard orientation:
 ---------------------------------------------------------------------
 Center     Atomic      Atomic             Coordinates (Angstroms)
 Number     Number       Type             X           Y           Z
 ---------------------------------------------------------------------
      1          6           0       -3.085867   -2.003410    0.391355
      2          6           0       -3.163060   -1.088612    1.446678
      3          6           0       -2.872950    0.262903    1.237417
      4          6           0       -2.507281    0.666893   -0.045692
      5          6           0       -2.421391   -0.220360   -1.117464
      6          6           0       -2.715931   -1.567134   -0.885098
      7          1           0       -3.312952   -3.051458    0.562888
      8          1           0       -3.450088   -1.424592    2.439037
      9          1           0       -2.924786    0.992448    2.036476
     10          1           0       -2.132434    0.144466   -2.095638
     11          1           0       -2.655152   -2.275341   -1.706555
     12          7           0       -2.197810    2.095172   -0.279457
     13          8           0       -1.878047    2.425840   -1.419215
     14          8           0       -2.280869    2.856944    0.681502
     15          6           0        3.915139   -0.236680   -0.261985
     16          6           0        4.555751    0.760547    0.704006
     17          6           0        5.836304    1.383547    0.147365
     18          1           0        4.639378   -1.029453   -0.494224
     19          1           0        3.694133    0.272390   -1.210351
     20          1           0        4.774218    0.250092    1.650750
     21          1           0        3.829838    1.550935    0.934123
     22          1           0        5.630764    1.917498   -0.786043
     23          1           0        6.580510    0.609264   -0.065344
     24          1           0        6.277589    2.093240    0.854091
     25          6           0        2.634073   -0.867947    0.280325
     26          6           0        1.993461   -1.865174   -0.685665
     27          6           0        0.712908   -2.488173   -0.129024
     28          1           0        2.855079   -1.377018    1.228691
     29          1           0        1.909835   -0.075174    0.512564
     30          1           0        2.719375   -2.655562   -0.915782
     31          1           0        1.774995   -1.354719   -1.632409
     32          1           0       -0.031298   -1.713890    0.083684
     33          1           0        0.918448   -3.022124    0.804384
     34          1           0        0.271623   -3.197867   -0.835750
 ---------------------------------------------------------------------

 SCF Done:  E(RHF) =  -669.534406307     A.U. after   15 cycles
 E2 =    -0.2093028982D+01 EUMP2 =    -0.67162743528860D+03

 The electronic state is 1-A.
 Alpha  occ. eigenvalues --  -20.60838 -20.60833 -15.85891 -11.31272 -11.27816
 Alpha  occ. eigenvalues --  -11.27778 -11.27507 -11.26831 -11.26782 -11.21691
 Alpha  occ. eigenvalues --  -11.21433 -11.21372 -11.21263 -11.21189 -11.20888
 Alpha  occ. eigenvalues --   -1.59914  -1.39466  -1.19432  -1.08816  -1.08384
 Alpha  occ. eigenvalues --   -1.04825  -1.03501  -0.95962  -0.95647  -0.86991
 Alpha  occ. eigenvalues --   -0.86207  -0.82476  -0.79577  -0.78188  -0.77531
 Alpha  occ. eigenvalues --   -0.72105  -0.71240  -0.70507  -0.65065  -0.65016
 Alpha  occ. eigenvalues --   -0.64814  -0.62164  -0.60925  -0.59349  -0.57581
 Alpha  occ. eigenvalues --   -0.55397  -0.55297  -0.53330  -0.52912  -0.52616
 Alpha  occ. eigenvalues --   -0.52234  -0.49807  -0.48866  -0.48861  -0.47870
 Alpha  occ. eigenvalues --   -0.46573  -0.45727  -0.45639  -0.44869  -0.43770
 Alpha  occ. eigenvalues --   -0.37367  -0.36365
 Alpha virt. eigenvalues --    0.04981   0.11202   0.16467   0.21175   0.22934
 Alpha virt. eigenvalues --    0.24320   0.26672   0.26870   0.27553   0.28149
 Alpha virt. eigenvalues --    0.28424   0.30453   0.31415   0.31748   0.32042

 Mulliken charges:
               1
     1  C   -0.169415
     2  C   -0.217661
     3  C   -0.172107
     4  C    0.159048
     5  C   -0.174202
     6  C   -0.214744
     7  H    0.226230
     8  H    0.223983
     9  H    0.275876
    10  H    0.275564
    11  H    0.223859
    12  N    0.487951
    13  O   -0.460383
    14  O   -0.460122
    15  C   -0.298540
    16  C   -0.300328
    17  C   -0.475870
    18  H    0.148382
    19  H    0.151662
    20  H    0.150519
    21  H    0.155424
    22  H    0.156675
    23  H    0.153862
    24  H    0.160648
    25  C   -0.298466
    26  C   -0.299288
    27  C   -0.479898
    28  H    0.148243
    29  H    0.151863
    30  H    0.150924
    31  H    0.151256
    32  H    0.166964
    33  H    0.152130
    34  H    0.149959
 Sum of Mulliken charges =  -0.00000

 Dipole moment (field-independent basis, Debye):
    X=             -1.1631    Y=             -4.9601    Z=              0.8472  Tot=              5.1646
 Quadrupole moment (field-independent basis, Debye-Ang):
   XX=            -90.4313   YY=           -101.9384   ZZ=            -90.1636
   XY=             11.3101   XZ=             -2.6569   YZ=              1.6351

 Normal termination of Gaussian 16 at Wed May  5 20:34:37 2021.
