 Gaussian 16, Revision A.03,
 Gaussian 16:  EM64L-G16RevA.03 25-Dec-2016

 -------------
 #p 6-31g* mp2
 -------------

 ------------------------------------------------------
 Input file generated by CHIRIPA (05-May-2021 14:55:19)
 ------------------------------------------------------
 Symbolic Z-matrix:
 Charge =  0 Multiplicity = 1

                         Standard orientation:
 ---------------------------------------------------------------------
 Center     Atomic      Atomic             Coordinates (Angstroms)
 Number     Number       Type             X           Y           Z
 ---------------------------------------------------------------------
      1          6           0       -1.641006    1.129507   -0.609476
      2          6           0       -2.835793    1.855084   -0.559055
      3          6           0       -4.047970    1.209585   -0.297318
      4          6           0       -4.028628   -0.168772   -0.089843
      5          6           0       -2.854736   -0.919339   -0.133639
      6          6           0       -1.654267   -0.252951   -0.396981
      7          1           0       -0.703905    1.639060   -0.813423
      8          1           0       -2.828505    2.928810   -0.723689
      9          1           0       -4.987498    1.746899   -0.252602
     10          1           0       -2.893728   -1.988727    0.034606
     11          1           0       -0.727906   -0.819002   -0.435543
     12          7           0       -5.305708   -0.863190    0.188096
     13          8           0       -5.261882   -2.078331    0.367395
     14          8           0       -6.326328   -0.179185    0.221382
     15          6           0        4.126667    0.003901    0.199416
     16          6           0        3.425798    1.266412    0.702242
     17          6           0        1.904573    1.119578    0.748179
     18          1           0        3.750197   -0.242302   -0.802881
     19          1           0        3.858295   -0.839897    0.850091
     20          1           0        3.696508    2.107859    0.051630
     21          1           0        3.804118    1.509746    1.703381
     22          1           0        1.616694    0.298428    1.412587
     23          1           0        1.508473    0.899939   -0.248549
     24          1           0        1.423776    2.033600    1.110476
     25          6           0        5.647797    0.135168    0.147850
     26          6           0        6.348666   -1.127342   -0.354978
     27          6           0        7.869891   -0.980509   -0.400913
     28          1           0        5.916169    0.978966   -0.502825
     29          1           0        6.024266    0.381371    1.150147
     30          1           0        5.970346   -1.370677   -1.356115
     31          1           0        6.077954   -1.968790    0.295635
     32          1           0        8.265989   -0.760871    0.595815
     33          1           0        8.157769   -0.159358   -1.065321
     34          1           0        8.350687   -1.894530   -0.763212
 ---------------------------------------------------------------------

 SCF Done:  E(RHF) =  -669.535235253     A.U. after   15 cycles
 E2 =    -0.2091371740D+01 EUMP2 =    -0.67162660699272D+03

 The electronic state is 1-A.
 Alpha  occ. eigenvalues --  -20.60686 -20.60681 -15.85739 -11.31078 -11.27652
 Alpha  occ. eigenvalues --  -11.27644 -11.27320 -11.26647 -11.26622 -11.22567
 Alpha  occ. eigenvalues --  -11.22395 -11.22210 -11.22140 -11.22012 -11.21512
 Alpha  occ. eigenvalues --   -1.59762  -1.39317  -1.19246  -1.09198  -1.08640
 Alpha  occ. eigenvalues --   -1.04650  -1.04330  -0.96815  -0.95478  -0.87841
 Alpha  occ. eigenvalues --   -0.86041  -0.82319  -0.80414  -0.78971  -0.77372
 Alpha  occ. eigenvalues --   -0.71957  -0.71086  -0.70363  -0.65825  -0.64897
 Alpha  occ. eigenvalues --   -0.64660  -0.62010  -0.61724  -0.60194  -0.58385
 Alpha  occ. eigenvalues --   -0.56186  -0.55107  -0.53482  -0.53252  -0.52944
 Alpha  occ. eigenvalues --   -0.52719  -0.50736  -0.48743  -0.48714  -0.48684
 Alpha  occ. eigenvalues --   -0.47418  -0.46522  -0.46414  -0.44728  -0.44562
 Alpha  occ. eigenvalues --   -0.37204  -0.36257
 Alpha virt. eigenvalues --    0.05156   0.11368   0.16639   0.20171   0.22358
 Alpha virt. eigenvalues --    0.23827   0.25618   0.26052   0.26874   0.27704
 Alpha virt. eigenvalues --    0.29215   0.30436   0.30704   0.31344   0.31626

 Mulliken charges:
               1
     1  C   -0.171863
     2  C   -0.219563
     3  C   -0.170975
     4  C    0.158145
     5  C   -0.171336
     6  C   -0.220205
     7  H    0.230115
     8  H    0.222852
     9  H    0.275080
    10  H    0.275069
    11  H    0.224410
    12  N    0.488093
    13  O   -0.460814
    14  O   -0.460786
    15  C   -0.299368
    16  C   -0.299964
    17  C   -0.480533
    18  H    0.148200
    19  H    0.150597
    20  H    0.153349
    21  H    0.156554
    22  H    0.160284
    23  H    0.144854
    24  H    0.162635
    25  C   -0.298813
    26  C   -0.300217
    27  C   -0.476125
    28  H    0.150390
    29  H    0.151429
    30  H    0.152037
    31  H    0.152773
    32  H    0.156119
    33  H    0.155706
    34  H    0.161871
 Sum of Mulliken charges =  -0.00000

 Dipole moment (field-independent basis, Debye):
    X=              4.7787    Y=              2.4610    Z=             -0.9067  Tot=              5.4511
 Quadrupole moment (field-independent basis, Debye-Ang):
   XX=           -130.8326   YY=            -91.8040   ZZ=            -94.4553
   XY=            -13.1006   XZ=              4.0749   YZ=             -0.6918

 Normal termination of Gaussian 16 at Thu May  6 02:54:47 2021.
