 Gaussian 16, Revision A.03,
 Gaussian 16:  EM64L-G16RevA.03 25-Dec-2016

 -------------
 #p 6-31g* mp2
 -------------

 ------------------------------------------------------
 Input file generated by CHIRIPA (05-May-2021 14:55:18)
 ------------------------------------------------------
 Symbolic Z-matrix:
 Charge =  0 Multiplicity = 1

                         Standard orientation:
 ---------------------------------------------------------------------
 Center     Atomic      Atomic             Coordinates (Angstroms)
 Number     Number       Type             X           Y           Z
 ---------------------------------------------------------------------
      1          6           0       -2.535913    0.463011    1.984426
      2          6           0       -2.717834    0.977995    0.696708
      3          6           0       -2.190669    0.313607   -0.414702
      4          6           0       -1.483730   -0.868690   -0.200927
      5          6           0       -1.285580   -1.407035    1.069589
      6          6           0       -1.821626   -0.725765    2.166436
      7          1           0       -2.948877    0.985681    2.842140
      8          1           0       -3.272122    1.901018    0.552357
      9          1           0       -2.316597    0.690007   -1.422613
     10          1           0       -0.728436   -2.329207    1.181876
     11          1           0       -1.678781   -1.128043    3.165341
     12          7           0       -0.920943   -1.580985   -1.369819
     13          8           0       -0.302014   -2.620854   -1.154796
     14          8           0       -1.109415   -1.085923   -2.478886
     15          6           0        1.575905    1.562495    0.175122
     16          6           0        0.874290    2.152340   -1.048726
     17          6           0       -0.006292    3.353663   -0.703484
     18          1           0        0.820308    1.264526    0.914874
     19          1           0        2.187527    2.342274    0.649738
     20          1           0        0.265260    1.371314   -1.521691
     21          1           0        1.631638    2.448763   -1.785730
     22          1           0        0.591237    4.152196   -0.251925
     23          1           0       -0.782904    3.068625    0.013614
     24          1           0       -0.498265    3.759608   -1.592883
     25          6           0        2.459893    0.360821   -0.153925
     26          6           0        3.161508   -0.229023    1.069922
     27          6           0        4.042090   -1.430346    0.724680
     28          1           0        1.848272   -0.418956   -0.628541
     29          1           0        3.215491    0.658790   -0.893677
     30          1           0        2.404161   -0.525446    1.806926
     31          1           0        3.770538    0.552003    1.542888
     32          1           0        4.818702   -1.145307    0.007583
     33          1           0        3.444562   -2.228879    0.273121
     34          1           0        4.534063   -1.836290    1.614079
 ---------------------------------------------------------------------

 SCF Done:  E(RHF) =  -669.534817197     A.U. after   15 cycles
 E2 =    -0.2097820062D+01 EUMP2 =    -0.67163263725981D+03

 The electronic state is 1-A.
 Alpha  occ. eigenvalues --  -20.61084 -20.61068 -15.86068 -11.31359 -11.27954
 Alpha  occ. eigenvalues --  -11.27927 -11.27686 -11.26948 -11.26922 -11.21388
 Alpha  occ. eigenvalues --  -11.21365 -11.21157 -11.21116 -11.21037 -11.20698
 Alpha  occ. eigenvalues --   -1.60121  -1.39678  -1.19569  -1.08968  -1.08205
 Alpha  occ. eigenvalues --   -1.04967  -1.03335  -0.95838  -0.95773  -0.86831
 Alpha  occ. eigenvalues --   -0.86347  -0.82640  -0.79405  -0.78021  -0.77685
 Alpha  occ. eigenvalues --   -0.72302  -0.71471  -0.70665  -0.65214  -0.64974
 Alpha  occ. eigenvalues --   -0.64842  -0.62340  -0.60775  -0.59170  -0.57405
 Alpha  occ. eigenvalues --   -0.55457  -0.55110  -0.53228  -0.53040  -0.52511
 Alpha  occ. eigenvalues --   -0.52214  -0.49767  -0.49076  -0.49059  -0.47720
 Alpha  occ. eigenvalues --   -0.46511  -0.45502  -0.45453  -0.44953  -0.43581
 Alpha  occ. eigenvalues --   -0.37499  -0.36467
 Alpha virt. eigenvalues --    0.04802   0.10970   0.16217   0.20882   0.22966
 Alpha virt. eigenvalues --    0.24222   0.26528   0.26911   0.27354   0.27957
 Alpha virt. eigenvalues --    0.29065   0.30366   0.31251   0.31868   0.32129

 Mulliken charges:
               1
     1  C   -0.171369
     2  C   -0.219363
     3  C   -0.169283
     4  C    0.159696
     5  C   -0.171672
     6  C   -0.218870
     7  H    0.227031
     8  H    0.225811
     9  H    0.277560
    10  H    0.276337
    11  H    0.224638
    12  N    0.489328
    13  O   -0.458192
    14  O   -0.457404
    15  C   -0.302820
    16  C   -0.304196
    17  C   -0.481487
    18  H    0.150470
    19  H    0.147260
    20  H    0.157000
    21  H    0.154849
    22  H    0.155251
    23  H    0.150968
    24  H    0.157806
    25  C   -0.302342
    26  C   -0.297834
    27  C   -0.477980
    28  H    0.155479
    29  H    0.151659
    30  H    0.145208
    31  H    0.149909
    32  H    0.155883
    33  H    0.163856
    34  H    0.156814
 Sum of Mulliken charges =  -0.00000

 Dipole moment (field-independent basis, Debye):
    X=             -2.1035    Y=              2.3193    Z=              4.0399  Tot=              5.1113
 Quadrupole moment (field-independent basis, Debye-Ang):
   XX=            -88.4981   YY=            -97.7873   ZZ=            -94.9204
   XY=             -2.5589   XZ=             -4.9510   YZ=             -6.6117

 Normal termination of Gaussian 16 at Thu May  6 07:38:27 2021.
