 Gaussian 16, Revision A.03,
 Gaussian 16:  EM64L-G16RevA.03 25-Dec-2016

 -------------
 #p 6-31g* mp2
 -------------

 ------------------------------------------------------
 Input file generated by CHIRIPA (05-May-2021 14:53:16)
 ------------------------------------------------------
 Symbolic Z-matrix:
 Charge =  0 Multiplicity = 1

                         Standard orientation:
 ---------------------------------------------------------------------
 Center     Atomic      Atomic             Coordinates (Angstroms)
 Number     Number       Type             X           Y           Z
 ---------------------------------------------------------------------
      1          6           0        3.742786    0.766744    0.511036
      2          6           0        2.984151    1.835358   -0.276698
      3          6           0        2.615431    3.048908    0.577197
      4          1           0        3.129537    0.444281    1.363613
      5          1           0        4.655341    1.210575    0.932525
      6          1           0        2.074002    1.389290   -0.697730
      7          1           0        3.599198    2.155177   -1.127608
      8          1           0        3.515195    3.520161    0.985786
      9          1           0        1.981333    2.749923    1.418107
     10          1           0        2.073788    3.800339   -0.005757
     11          6           0        4.118370   -0.452689   -0.328992
     12          6           0        4.877004   -1.521303    0.458742
     13          6           0        5.245725   -2.734852   -0.395153
     14          1           0        3.205815   -0.896520   -0.750481
     15          1           0        4.731619   -0.130226   -1.181569
     16          1           0        4.261958   -1.841122    1.309652
     17          1           0        5.787153   -1.075235    0.879774
     18          1           0        5.879822   -2.435868   -1.236063
     19          1           0        4.345961   -3.206106   -0.803742
     20          1           0        5.787367   -3.486284    0.187800
     21          6           0       -2.207865    2.221067   -0.429151
     22          6           0       -3.541673    2.014679   -0.061884
     23          6           0       -4.030636    0.720443    0.139155
     24          6           0       -3.154186   -0.349262   -0.036497
     25          6           0       -1.820137   -0.176070   -0.402019
     26          6           0       -1.352862    1.126962   -0.597749
     27          1           0       -1.836451    3.229876   -0.583260
     28          1           0       -4.207954    2.862490    0.069761
     29          1           0       -5.058686    0.532045    0.423828
     30          1           0       -1.179917   -1.041070   -0.525771
     31          1           0       -0.316534    1.284245   -0.882936
     32          7           0       -3.660349   -1.724068    0.173524
     33          8           0       -2.867964   -2.649714    0.012460
     34          8           0       -4.839881   -1.849963    0.495225
 ---------------------------------------------------------------------

 SCF Done:  E(RHF) =  -669.535534508     A.U. after   15 cycles
 E2 =    -0.2091141133D+01 EUMP2 =    -0.67162667564158D+03

 The electronic state is 1-A.
 Alpha  occ. eigenvalues --  -20.60760 -20.60755 -15.85813 -11.31174 -11.27743
 Alpha  occ. eigenvalues --  -11.27740 -11.27477 -11.26755 -11.26727 -11.22575
 Alpha  occ. eigenvalues --  -11.22051 -11.21983 -11.21960 -11.21890 -11.21305
 Alpha  occ. eigenvalues --   -1.59835  -1.39389  -1.19345  -1.09059  -1.08739
 Alpha  occ. eigenvalues --   -1.04750  -1.04147  -0.96573  -0.95575  -0.87591
 Alpha  occ. eigenvalues --   -0.86147  -0.82411  -0.80240  -0.78834  -0.77459
 Alpha  occ. eigenvalues --   -0.72031  -0.71158  -0.70451  -0.65737  -0.64996
 Alpha  occ. eigenvalues --   -0.64744  -0.62156  -0.61485  -0.59977  -0.58179
 Alpha  occ. eigenvalues --   -0.55849  -0.55244  -0.53287  -0.53076  -0.52999
 Alpha  occ. eigenvalues --   -0.52844  -0.50512  -0.48799  -0.48787  -0.48525
 Alpha  occ. eigenvalues --   -0.47271  -0.46373  -0.46277  -0.44796  -0.44393
 Alpha  occ. eigenvalues --   -0.37323  -0.36352
 Alpha virt. eigenvalues --    0.05077   0.11281   0.16560   0.19252   0.22797
 Alpha virt. eigenvalues --    0.23788   0.25116   0.26575   0.26991   0.28591
 Alpha virt. eigenvalues --    0.28886   0.29729   0.31112   0.31260   0.32224

 Mulliken charges:
               1
     1  C   -0.298844
     2  C   -0.304139
     3  C   -0.477351
     4  H    0.151752
     5  H    0.152654
     6  H    0.143188
     7  H    0.156016
     8  H    0.160574
     9  H    0.157497
    10  H    0.155525
    11  C   -0.298120
    12  C   -0.300440
    13  C   -0.476298
    14  H    0.146901
    15  H    0.150777
    16  H    0.153936
    17  H    0.152706
    18  H    0.155196
    19  H    0.156803
    20  H    0.162351
    21  C   -0.172841
    22  C   -0.218529
    23  C   -0.171156
    24  C    0.158783
    25  C   -0.173715
    26  C   -0.226159
    27  H    0.226380
    28  H    0.223372
    29  H    0.275536
    30  H    0.275130
    31  H    0.235518
    32  N    0.488126
    33  O   -0.460631
    34  O   -0.460498
 Sum of Mulliken charges =  -0.00000

 Dipole moment (field-independent basis, Debye):
    X=              1.9751    Y=              4.8337    Z=             -0.6745  Tot=              5.2650
 Quadrupole moment (field-independent basis, Debye-Ang):
   XX=           -100.4752   YY=            -98.5520   ZZ=            -95.4727
   XY=            -17.2937   XZ=              1.2336   YZ=              0.0506

 Normal termination of Gaussian 16 at Wed May  5 23:34:18 2021.
