 Gaussian 16, Revision A.03,
 Gaussian 16:  EM64L-G16RevA.03 25-Dec-2016

 -------------
 #p 6-31g* mp2
 -------------

 ------------------------------------------------------
 Input file generated by CHIRIPA (05-May-2021 14:57:26)
 ------------------------------------------------------
 Symbolic Z-matrix:
 Charge =  0 Multiplicity = 1

                         Standard orientation:
 ---------------------------------------------------------------------
 Center     Atomic      Atomic             Coordinates (Angstroms)
 Number     Number       Type             X           Y           Z
 ---------------------------------------------------------------------
      1          6           0       -5.456491    0.236120    0.163559
      2          6           0       -4.523316    1.275031    0.243356
      3          6           0       -3.153777    1.007359    0.158124
      4          6           0       -2.750701   -0.316790   -0.007551
      5          6           0       -3.656027   -1.373576   -0.090484
      6          6           0       -5.020637   -1.082543   -0.002812
      7          1           0       -6.518468    0.453127    0.230717
      8          1           0       -4.858923    2.300078    0.372554
      9          1           0       -2.409796    1.792508    0.216873
     10          1           0       -3.291094   -2.385324   -0.219359
     11          1           0       -5.743095   -1.891382   -0.065100
     12          7           0       -1.303441   -0.612528   -0.099073
     13          8           0       -0.973982   -1.787606   -0.244962
     14          8           0       -0.525941    0.336352   -0.023187
     15          6           0        4.009336   -2.024203    0.258706
     16          6           0        3.811789   -1.211415    1.379808
     17          6           0        3.247408    0.060440    1.244130
     18          6           0        2.890606    0.489655   -0.033272
     19          6           0        3.074773   -0.296721   -1.169488
     20          6           0        3.640848   -1.565072   -1.010127
     21          1           0        4.448418   -3.010848    0.373301
     22          1           0        4.097006   -1.565371    2.366423
     23          1           0        3.083308    0.710342    2.095080
     24          1           0        2.780385    0.083631   -2.140098
     25          1           0        3.793095   -2.194127   -1.882569
     26          7           0        2.292226    1.834256   -0.189444
     27          8           0        1.986385    2.189169   -1.325725
     28          8           0        2.140387    2.507781    0.827387
 ---------------------------------------------------------------------

 SCF Done:  E(RHF) =  -868.339060488     A.U. after   16 cycles
 E2 =    -0.2600745769D+01 EUMP2 =    -0.87093980625669D+03

 The electronic state is 1-A.
 Alpha  occ. eigenvalues --  -20.60789 -20.60729 -20.59240 -20.59227 -15.85796
 Alpha  occ. eigenvalues --  -15.84287 -11.31020 -11.29582 -11.27624 -11.27503
 Alpha  occ. eigenvalues --  -11.27330 -11.26609 -11.26534 -11.26211 -11.26167
 Alpha  occ. eigenvalues --  -11.26017 -11.25308 -11.25267  -1.59825  -1.58270
 Alpha  occ. eigenvalues --   -1.39381  -1.37850  -1.19189  -1.17768  -1.08620
 Alpha  occ. eigenvalues --   -1.07194  -1.04567  -1.03227  -0.95477  -0.94055
 Alpha  occ. eigenvalues --   -0.85974  -0.84639  -0.82317  -0.80933  -0.77360
 Alpha  occ. eigenvalues --   -0.75958  -0.72177  -0.71129  -0.70573  -0.70306
 Alpha  occ. eigenvalues --   -0.69351  -0.68990  -0.64840  -0.64573  -0.63489
 Alpha  occ. eigenvalues --   -0.63309  -0.61904  -0.60621  -0.55096  -0.53802
 Alpha  occ. eigenvalues --   -0.52913  -0.52657  -0.51523  -0.51384  -0.48767
 Alpha  occ. eigenvalues --   -0.48764  -0.47310  -0.47296  -0.44845  -0.43262
 Alpha  occ. eigenvalues --   -0.37178  -0.36166  -0.35694  -0.34804
 Alpha virt. eigenvalues --    0.05160   0.06693   0.11490   0.12847   0.16675
 Alpha virt. eigenvalues --    0.18136   0.21635   0.22708   0.27564   0.28546
 Alpha virt. eigenvalues --    0.28571   0.29612   0.31188   0.32170   0.32862

 Mulliken charges:
               1
     1  C   -0.170460
     2  C   -0.219205
     3  C   -0.170625
     4  C    0.156487
     5  C   -0.171096
     6  C   -0.219077
     7  H    0.225251
     8  H    0.225211
     9  H    0.284402
    10  H    0.273471
    11  H    0.222207
    12  N    0.493289
    13  O   -0.464062
    14  O   -0.463403
    15  C   -0.170108
    16  C   -0.218186
    17  C   -0.170206
    18  C    0.176442
    19  C   -0.164135
    20  C   -0.215728
    21  H    0.219349
    22  H    0.216751
    23  H    0.270070
    24  H    0.271211
    25  H    0.217779
    26  N    0.498335
    27  O   -0.465172
    28  O   -0.468791
 Sum of Mulliken charges =  -0.00000

 Dipole moment (field-independent basis, Debye):
    X=             -3.3168    Y=             -3.5628    Z=              0.8120  Tot=              4.9350
 Quadrupole moment (field-independent basis, Debye-Ang):
   XX=            -67.0064   YY=           -106.4895   ZZ=           -101.1523
   XY=            -13.0976   XZ=              0.9533   YZ=              1.7667

 Normal termination of Gaussian 16 at Fri May  7 11:16:34 2021.
