 Gaussian 16, Revision A.03,
 Gaussian 16:  EM64L-G16RevA.03 25-Dec-2016

 -------------
 #p 6-31g* mp2
 -------------

 ------------------------------------------------------
 Input file generated by CHIRIPA (05-May-2021 14:57:21)
 ------------------------------------------------------
 Symbolic Z-matrix:
 Charge =  0 Multiplicity = 1

                         Standard orientation:
 ---------------------------------------------------------------------
 Center     Atomic      Atomic             Coordinates (Angstroms)
 Number     Number       Type             X           Y           Z
 ---------------------------------------------------------------------
      1          6           0        6.064830   -1.282610   -0.489458
      2          6           0        5.983929    0.092308   -0.733542
      3          6           0        4.803091    0.792216   -0.468403
      4          6           0        3.717591    0.082495    0.042750
      5          6           0        3.767114   -1.287330    0.296550
      6          6           0        4.958116   -1.966835    0.023905
      7          1           0        6.986082   -1.818390   -0.698340
      8          1           0        6.841832    0.626276   -1.132196
      9          1           0        4.713033    1.856665   -0.648001
     10          1           0        2.895202   -1.792318    0.694263
     11          1           0        5.018071   -3.034610    0.214446
     12          7           0        2.462111    0.812657    0.327415
     13          8           0        1.519893    0.164345    0.777475
     14          8           0        2.444056    2.019443    0.095084
     15          6           0       -2.357893    1.970639    0.423621
     16          6           0       -2.203867    0.777241    1.136781
     17          6           0       -3.066072   -0.300204    0.912587
     18          6           0       -4.075964   -0.149012   -0.036385
     19          6           0       -4.255073    1.027152   -0.762918
     20          6           0       -3.381202    2.091572   -0.522285
     21          1           0       -1.683581    2.802565    0.604165
     22          1           0       -1.410045    0.680482    1.871989
     23          1           0       -2.969460   -1.235432    1.450579
     24          1           0       -5.055803    1.093682   -1.489434
     25          1           0       -3.503193    3.017193   -1.077614
     26          7           0       -4.994918   -1.282760   -0.282431
     27          8           0       -5.876691   -1.124296   -1.123860
     28          8           0       -4.816020   -2.308388    0.370806
 ---------------------------------------------------------------------

 SCF Done:  E(RHF) =  -868.340353037     A.U. after   16 cycles
 E2 =    -0.2598276606D+01 EUMP2 =    -0.87093862964269D+03

 The electronic state is 1-A.
 Alpha  occ. eigenvalues --  -20.61661 -20.61656 -20.59932 -20.59926 -15.86685
 Alpha  occ. eigenvalues --  -15.84973 -11.31769 -11.30069 -11.28307 -11.28298
 Alpha  occ. eigenvalues --  -11.27992 -11.27258 -11.27242 -11.26630 -11.26530
 Alpha  occ. eigenvalues --  -11.26148 -11.25589 -11.25345  -1.60724  -1.59013
 Alpha  occ. eigenvalues --   -1.40284  -1.38574  -1.19915  -1.18184  -1.09363
 Alpha  occ. eigenvalues --   -1.07603  -1.05275  -1.03538  -0.96246  -0.94497
 Alpha  occ. eigenvalues --   -0.86686  -0.84929  -0.83089  -0.81342  -0.78165
 Alpha  occ. eigenvalues --   -0.76446  -0.72930  -0.72017  -0.71199  -0.71019
 Alpha  occ. eigenvalues --   -0.70333  -0.69244  -0.65572  -0.65275  -0.63818
 Alpha  occ. eigenvalues --   -0.63497  -0.62625  -0.60891  -0.55786  -0.53971
 Alpha  occ. eigenvalues --   -0.53619  -0.53363  -0.51891  -0.51609  -0.49683
 Alpha  occ. eigenvalues --   -0.49655  -0.47970  -0.47924  -0.45746  -0.44041
 Alpha  occ. eigenvalues --   -0.37877  -0.36865  -0.36104  -0.35131
 Alpha virt. eigenvalues --    0.04351   0.06062   0.10794   0.12532   0.15905
 Alpha virt. eigenvalues --    0.17659   0.20964   0.22765   0.26894   0.27811
 Alpha virt. eigenvalues --    0.28641   0.29617   0.30564   0.31989   0.32394

 Mulliken charges:
               1
     1  C   -0.169761
     2  C   -0.218547
     3  C   -0.170474
     4  C    0.157816
     5  C   -0.170232
     6  C   -0.218475
     7  H    0.227830
     8  H    0.225054
     9  H    0.275470
    10  H    0.275819
    11  H    0.225872
    12  N    0.490462
    13  O   -0.466817
    14  O   -0.462281
    15  C   -0.170351
    16  C   -0.211454
    17  C   -0.174812
    18  C    0.157409
    19  C   -0.173711
    20  C   -0.219734
    21  H    0.232018
    22  H    0.236292
    23  H    0.271461
    24  H    0.271043
    25  H    0.219598
    26  N    0.488231
    27  O   -0.463996
    28  O   -0.463730
 Sum of Mulliken charges =  -0.00000

 Dipole moment (field-independent basis, Debye):
    X=              8.2498    Y=              1.4729    Z=             -0.0522  Tot=              8.3804
 Quadrupole moment (field-independent basis, Debye-Ang):
   XX=            -98.1294   YY=           -101.9169   ZZ=           -103.3830
   XY=            -26.1345   XZ=             -6.5977   YZ=             -4.0249

 Normal termination of Gaussian 16 at Thu May  6 16:07:03 2021.
