 Gaussian 16, Revision A.03,
 Gaussian 16:  EM64L-G16RevA.03 25-Dec-2016

 -------------
 #p 6-31g* mp2
 -------------

 ------------------------------------------------------
 Input file generated by CHIRIPA (05-May-2021 14:51:14)
 ------------------------------------------------------
 Symbolic Z-matrix:
 Charge =  0 Multiplicity = 1

                         Standard orientation:
 ---------------------------------------------------------------------
 Center     Atomic      Atomic             Coordinates (Angstroms)
 Number     Number       Type             X           Y           Z
 ---------------------------------------------------------------------
      1          6           0       -3.667460   -0.194580   -0.156095
      2          6           0       -3.534190   -1.622725   -0.685836
      3          6           0       -4.698957   -2.519974   -0.266246
      4          1           0       -3.734869   -0.221698    0.940110
      5          1           0       -4.611774    0.236219   -0.516761
      6          1           0       -2.589753   -2.050219   -0.325413
      7          1           0       -3.466898   -1.592191   -1.780895
      8          1           0       -5.647337   -2.119553   -0.638858
      9          1           0       -4.765208   -2.580183    0.824894
     10          1           0       -4.583391   -3.536254   -0.655707
     11          6           0       -2.510600    0.714481   -0.567202
     12          6           0       -2.643870    2.142626   -0.037461
     13          6           0       -1.479103    3.039875   -0.457050
     14          1           0       -1.566287    0.283682   -0.206536
     15          1           0       -2.443191    0.741599   -1.663407
     16          1           0       -2.711163    2.112092    1.057598
     17          1           0       -3.588307    2.570120   -0.397884
     18          1           0       -1.412852    3.100084   -1.548191
     19          1           0       -0.530723    2.639454   -0.084439
     20          1           0       -1.594670    4.056155   -0.067590
     21          6           0        3.550300   -0.039887   -0.206009
     22          6           0        4.868644   -0.813180   -0.250434
     23          6           0        5.780736   -0.361549   -1.391449
     24          1           0        3.028321   -0.162206   -1.164926
     25          1           0        3.765660    1.032579   -0.101937
     26          1           0        4.650830   -1.883998   -0.353000
     27          1           0        5.387455   -0.689163    0.708770
     28          1           0        6.027109    0.700380   -1.290403
     29          1           0        5.286298   -0.501244   -2.358205
     30          1           0        6.717488   -0.927395   -1.404580
     31          6           0        2.627761   -0.480013    0.929306
     32          6           0        1.309416    0.293278    0.973731
     33          6           0        0.397324   -0.158352    2.114745
     34          1           0        2.412400   -1.552480    0.825234
     35          1           0        3.149739   -0.357696    1.888222
     36          1           0        0.790605    0.169262    0.014527
     37          1           0        1.527230    1.364097    1.076297
     38          1           0        0.891762   -0.018657    3.081502
     39          1           0        0.150951   -1.220281    2.013700
     40          1           0       -0.539428    0.407494    2.127877
 ---------------------------------------------------------------------

 SCF Done:  E(RHF) =  -470.732448137     A.U. after   11 cycles
 E2 =    -0.1584554375D+01 EUMP2 =    -0.47231700251170D+03

 The electronic state is 1-A.
 Alpha  occ. eigenvalues --  -11.21688 -11.21627 -11.21588 -11.21568 -11.21457
 Alpha  occ. eigenvalues --  -11.21391 -11.21351 -11.21267 -11.21185 -11.21087
 Alpha  occ. eigenvalues --  -11.21057 -11.20981  -1.08509  -1.08378  -1.03629
 Alpha  occ. eigenvalues --   -1.03473  -0.96052  -0.95936  -0.87073  -0.86947
 Alpha  occ. eigenvalues --   -0.79731  -0.79515  -0.78380  -0.78134  -0.65241
 Alpha  occ. eigenvalues --   -0.64975  -0.61044  -0.60949  -0.59427  -0.59235
 Alpha  occ. eigenvalues --   -0.57626  -0.57552  -0.55427  -0.55138  -0.52741
 Alpha  occ. eigenvalues --   -0.52636  -0.52491  -0.52348  -0.50003  -0.49884
 Alpha  occ. eigenvalues --   -0.48089  -0.47801  -0.46763  -0.46584  -0.46020
 Alpha  occ. eigenvalues --   -0.45769  -0.45724  -0.45315  -0.43842  -0.43743
 Alpha virt. eigenvalues --    0.20192   0.23035   0.23667   0.24643   0.26107
 Alpha virt. eigenvalues --    0.26354   0.26491   0.27486   0.28293   0.29676
 Alpha virt. eigenvalues --    0.30286   0.30956   0.31438   0.31954   0.32071

 Mulliken charges:
               1
     1  C   -0.297529
     2  C   -0.299660
     3  C   -0.475701
     4  H    0.149520
     5  H    0.149382
     6  H    0.151448
     7  H    0.151707
     8  H    0.155209
     9  H    0.155349
    10  H    0.160019
    11  C   -0.309381
    12  C   -0.299797
    13  C   -0.482409
    14  H    0.162035
    15  H    0.148931
    16  H    0.151073
    17  H    0.152000
    18  H    0.154723
    19  H    0.163041
    20  H    0.159585
    21  C   -0.298627
    22  C   -0.299711
    23  C   -0.475755
    24  H    0.150144
    25  H    0.149757
    26  H    0.151980
    27  H    0.151983
    28  H    0.155300
    29  H    0.155310
    30  H    0.160335
    31  C   -0.297314
    32  C   -0.307171
    33  C   -0.480609
    34  H    0.149641
    35  H    0.149841
    36  H    0.156696
    37  H    0.153289
    38  H    0.156690
    39  H    0.155393
    40  H    0.163283
 Sum of Mulliken charges =  -0.00000

 Dipole moment (field-independent basis, Debye):
    X=              0.0609    Y=             -0.0150    Z=              0.0108  Tot=              0.0637
 Quadrupole moment (field-independent basis, Debye-Ang):
   XX=            -85.6207   YY=            -84.9774   ZZ=            -84.3294
   XY=             -0.5255   XZ=              1.4430   YZ=              0.5615

 Normal termination of Gaussian 16 at Wed May  5 20:00:34 2021.
