 Gaussian 16, Revision A.03,
 Gaussian 16:  EM64L-G16RevA.03 25-Dec-2016

 -------------
 #p 6-31g* mp2
 -------------

 ------------------------------------------------------
 Input file generated by CHIRIPA (05-May-2021 14:57:25)
 ------------------------------------------------------
 Symbolic Z-matrix:
 Charge =  0 Multiplicity = 1

                         Standard orientation:
 ---------------------------------------------------------------------
 Center     Atomic      Atomic             Coordinates (Angstroms)
 Number     Number       Type             X           Y           Z
 ---------------------------------------------------------------------
      1          6           0        4.037376    1.996699    1.289913
      2          6           0        4.703494    1.586076    0.130518
      3          6           0        4.257081    0.473251   -0.588430
      4          6           0        3.136275   -0.208755   -0.117312
      5          6           0        2.451203    0.175700    1.034278
      6          6           0        2.915335    1.291444    1.737304
      7          1           0        4.391043    2.862301    1.842224
      8          1           0        5.575154    2.131875   -0.219278
      9          1           0        4.753882    0.133602   -1.489121
     10          1           0        1.585104   -0.388512    1.358247
     11          1           0        2.396039    1.608059    2.637378
     12          7           0        2.654299   -1.388397   -0.870001
     13          8           0        1.664491   -1.972249   -0.434071
     14          8           0        3.275459   -1.706813   -1.881638
     15          6           0       -4.068430    2.114816   -1.114341
     16          6           0       -4.855328    1.455506   -0.164276
     17          6           0       -4.392991    0.290902    0.455798
     18          6           0       -3.133273   -0.188731    0.100338
     19          6           0       -2.325756    0.445529   -0.842487
     20          6           0       -2.808376    1.608615   -1.449822
     21          1           0       -4.435463    3.018918   -1.591081
     22          1           0       -5.834300    1.846342    0.098226
     23          1           0       -4.981437   -0.239477    1.194613
     24          1           0       -1.354056    0.031846   -1.083490
     25          1           0       -2.195086    2.118551   -2.187308
     26          7           0       -2.633081   -1.420842    0.750039
     27          8           0       -1.519734   -1.823072    0.419427
     28          8           0       -3.363850   -1.961009    1.577586
 ---------------------------------------------------------------------

 SCF Done:  E(RHF) =  -868.336626132     A.U. after   16 cycles
 E2 =    -0.2600384668D+01 EUMP2 =    -0.87093701080002D+03

 The electronic state is 1-A.
 Alpha  occ. eigenvalues --  -20.60354 -20.60322 -20.60290 -20.60223 -15.85361
 Alpha  occ. eigenvalues --  -15.85309 -11.30922 -11.30890 -11.27535 -11.27518
 Alpha  occ. eigenvalues --  -11.27472 -11.27408 -11.27308 -11.27289 -11.26586
 Alpha  occ. eigenvalues --  -11.26571 -11.26559 -11.26524  -1.59410  -1.59361
 Alpha  occ. eigenvalues --   -1.38952  -1.38890  -1.19120  -1.19092  -1.08486
 Alpha  occ. eigenvalues --   -1.08455  -1.04544  -1.04513  -0.95296  -0.95225
 Alpha  occ. eigenvalues --   -0.85932  -0.85899  -0.82146  -0.82000  -0.77182
 Alpha  occ. eigenvalues --   -0.76990  -0.71703  -0.71339  -0.70756  -0.70705
 Alpha  occ. eigenvalues --   -0.70220  -0.70175  -0.64776  -0.64705  -0.64547
 Alpha  occ. eigenvalues --   -0.64509  -0.61882  -0.61830  -0.55047  -0.55017
 Alpha  occ. eigenvalues --   -0.52878  -0.52855  -0.52633  -0.52593  -0.48405
 Alpha  occ. eigenvalues --   -0.48339  -0.48312  -0.48207  -0.44317  -0.44231
 Alpha  occ. eigenvalues --   -0.37126  -0.37106  -0.36167  -0.36132
 Alpha virt. eigenvalues --    0.05367   0.05452   0.11449   0.11538   0.16824
 Alpha virt. eigenvalues --    0.16875   0.21507   0.21763   0.27397   0.27613
 Alpha virt. eigenvalues --    0.28240   0.28808   0.30816   0.31399   0.32326

 Mulliken charges:
               1
     1  C   -0.171760
     2  C   -0.219158
     3  C   -0.172219
     4  C    0.155486
     5  C   -0.176482
     6  C   -0.219530
     7  H    0.223997
     8  H    0.221840
     9  H    0.274584
    10  H    0.286693
    11  H    0.223340
    12  N    0.485404
    13  O   -0.446501
    14  O   -0.465631
    15  C   -0.171568
    16  C   -0.218871
    17  C   -0.171755
    18  C    0.156811
    19  C   -0.174108
    20  C   -0.218989
    21  H    0.224200
    22  H    0.222195
    23  H    0.274937
    24  H    0.281621
    25  H    0.222903
    26  N    0.486781
    27  O   -0.449905
    28  O   -0.464316
 Sum of Mulliken charges =  -0.00000

 Dipole moment (field-independent basis, Debye):
    X=             -0.0919    Y=              8.2681    Z=              0.3886  Tot=              8.2778
 Quadrupole moment (field-independent basis, Debye-Ang):
   XX=            -78.7369   YY=           -109.4637   ZZ=           -103.5012
   XY=              0.1472   XZ=             10.1599   YZ=             -0.8744

 Normal termination of Gaussian 16 at Wed May  5 21:08:44 2021.
