 Gaussian 16, Revision A.03,
 Gaussian 16:  EM64L-G16RevA.03 25-Dec-2016

 -------------
 #p 6-31g* mp2
 -------------

 ------------------------------------------------------
 Input file generated by CHIRIPA (05-May-2021 14:53:14)
 ------------------------------------------------------
 Symbolic Z-matrix:
 Charge =  0 Multiplicity = 1

                         Standard orientation:
 ---------------------------------------------------------------------
 Center     Atomic      Atomic             Coordinates (Angstroms)
 Number     Number       Type             X           Y           Z
 ---------------------------------------------------------------------
      1          6           0       -4.563048    0.190766   -0.220985
      2          6           0       -3.655969    0.771221    0.864494
      3          6           0       -2.214519    0.960976    0.391198
      4          1           0       -4.155013   -0.773383   -0.553957
      5          1           0       -4.547887    0.855468   -1.095820
      6          1           0       -3.673919    0.106333    1.737545
      7          1           0       -4.066315    1.734009    1.195056
      8          1           0       -2.176802    1.641446   -0.465621
      9          1           0       -1.782177    0.004521    0.079950
     10          1           0       -1.583507    1.376937    1.182816
     11          6           0       -6.007250   -0.004744    0.237037
     12          6           0       -6.914328   -0.585199   -0.848443
     13          6           0       -8.355778   -0.774955   -0.375146
     14          1           0       -6.022410   -0.669447    1.111871
     15          1           0       -6.415284    0.959405    0.570008
     16          1           0       -6.503983   -1.547988   -1.179004
     17          1           0       -6.896378    0.079689   -1.721493
     18          1           0       -8.788120    0.181500   -0.063898
     19          1           0       -8.393496   -1.455425    0.481673
     20          1           0       -8.986791   -1.190916   -1.166764
     21          6           0        1.671755    0.303761    0.425080
     22          6           0        2.241400   -0.950073    0.669875
     23          6           0        3.601825   -1.170034    0.434481
     24          6           0        4.366582   -0.109057   -0.047971
     25          6           0        3.828239    1.151543   -0.301677
     26          6           0        2.465593    1.348725   -0.059061
     27          1           0        0.614081    0.465785    0.610746
     28          1           0        1.627315   -1.763443    1.045874
     29          1           0        4.068598   -2.130677    0.615335
     30          1           0        4.465887    1.943000   -0.676402
     31          1           0        2.025900    2.323521   -0.250077
     32          7           0        5.807979   -0.329862   -0.300996
     33          8           0        6.460204    0.621198   -0.726112
     34          8           0        6.258226   -1.449809   -0.069408
 ---------------------------------------------------------------------

 SCF Done:  E(RHF) =  -669.535369684     A.U. after   15 cycles
 E2 =    -0.2091072895D+01 EUMP2 =    -0.67162644257850D+03

 The electronic state is 1-A.
 Alpha  occ. eigenvalues --  -20.60677 -20.60672 -15.85731 -11.31066 -11.27644
 Alpha  occ. eigenvalues --  -11.27639 -11.27265 -11.26633 -11.26618 -11.22652
 Alpha  occ. eigenvalues --  -11.22526 -11.22205 -11.22138 -11.22019 -11.21516
 Alpha  occ. eigenvalues --   -1.59754  -1.39308  -1.19234  -1.09219  -1.08624
 Alpha  occ. eigenvalues --   -1.04639  -1.04376  -0.96866  -0.95464  -0.87900
 Alpha  occ. eigenvalues --   -0.86032  -0.82310  -0.80460  -0.78973  -0.77365
 Alpha  occ. eigenvalues --   -0.71948  -0.71078  -0.70337  -0.65843  -0.64881
 Alpha  occ. eigenvalues --   -0.64648  -0.61994  -0.61768  -0.60290  -0.58425
 Alpha  occ. eigenvalues --   -0.56203  -0.55183  -0.53440  -0.53274  -0.52960
 Alpha  occ. eigenvalues --   -0.52728  -0.50777  -0.48758  -0.48706  -0.48702
 Alpha  occ. eigenvalues --   -0.47449  -0.46529  -0.46416  -0.44721  -0.44605
 Alpha  occ. eigenvalues --   -0.37195  -0.36254
 Alpha virt. eigenvalues --    0.05168   0.11400   0.16641   0.20676   0.22262
 Alpha virt. eigenvalues --    0.23716   0.25843   0.26223   0.26738   0.27309
 Alpha virt. eigenvalues --    0.29053   0.30167   0.30577   0.31081   0.32128

 Mulliken charges:
               1
     1  C   -0.299550
     2  C   -0.298510
     3  C   -0.485710
     4  H    0.150333
     5  H    0.151172
     6  H    0.154014
     7  H    0.155816
     8  H    0.160438
     9  H    0.153151
    10  H    0.156549
    11  C   -0.299060
    12  C   -0.300191
    13  C   -0.476123
    14  H    0.150354
    15  H    0.150957
    16  H    0.152524
    17  H    0.152804
    18  H    0.155893
    19  H    0.155740
    20  H    0.161895
    21  C   -0.180098
    22  C   -0.222625
    23  C   -0.170578
    24  C    0.157875
    25  C   -0.170725
    26  C   -0.222793
    27  H    0.244182
    28  H    0.222820
    29  H    0.274990
    30  H    0.275065
    31  H    0.223059
    32  N    0.488030
    33  O   -0.460831
    34  O   -0.460869
 Sum of Mulliken charges =  -0.00000

 Dipole moment (field-independent basis, Debye):
    X=             -5.4309    Y=              0.8020    Z=              0.8768  Tot=              5.5593
 Quadrupole moment (field-independent basis, Debye-Ang):
   XX=           -139.9513   YY=            -89.5972   ZZ=            -95.1561
   XY=              4.0034   XZ=              4.2848   YZ=             -2.0932

 Normal termination of Gaussian 16 at Thu May  6 07:23:06 2021.
