 Gaussian 16, Revision A.03,
 Gaussian 16:  EM64L-G16RevA.03 25-Dec-2016

 -------------
 #p 6-31g* mp2
 -------------

 ------------------------------------------------------
 Input file generated by CHIRIPA (05-May-2021 14:55:21)
 ------------------------------------------------------
 Symbolic Z-matrix:
 Charge =  0 Multiplicity = 1

                         Standard orientation:
 ---------------------------------------------------------------------
 Center     Atomic      Atomic             Coordinates (Angstroms)
 Number     Number       Type             X           Y           Z
 ---------------------------------------------------------------------
      1          6           0        0.845831   -1.309684    0.691135
      2          6           0        1.214668   -0.049607    1.173512
      3          6           0        2.467428    0.489519    0.866131
      4          6           0        3.330458   -0.262130    0.070208
      5          6           0        2.992031   -1.520331   -0.425462
      6          6           0        1.734123   -2.039736   -0.105408
      7          1           0       -0.129343   -1.720830    0.934838
      8          1           0        0.526843    0.519607    1.792331
      9          1           0        2.778607    1.462597    1.226278
     10          1           0        3.699127   -2.064089   -1.040082
     11          1           0        1.450366   -3.018583   -0.481422
     12          7           0        4.659424    0.298180   -0.261910
     13          8           0        5.401654   -0.384001   -0.965017
     14          8           0        4.933672    1.408923    0.187172
     15          6           0       -4.398476   -0.164181    0.009446
     16          6           0       -5.885249   -0.000077   -0.307671
     17          6           0       -6.704020   -1.244601    0.036666
     18          1           0       -4.005284   -1.028125   -0.543677
     19          1           0       -4.281925   -0.397112    1.076945
     20          1           0       -5.998870    0.233841   -1.373968
     21          1           0       -6.274903    0.863693    0.246122
     22          1           0       -6.620341   -1.477893    1.103050
     23          1           0       -6.342740   -2.111324   -0.526246
     24          1           0       -7.763934   -1.105447   -0.198022
     25          6           0       -3.566779    1.071640   -0.329307
     26          6           0       -2.080008    0.907536   -0.012189
     27          6           0       -1.261237    2.152060   -0.356527
     28          1           0       -3.683331    1.304572   -1.396805
     29          1           0       -3.959973    1.935584    0.223816
     30          1           0       -1.690353    0.043767   -0.565982
     31          1           0       -1.966385    0.673618    1.054108
     32          1           0       -1.622516    3.018782    0.206386
     33          1           0       -1.344915    2.385351   -1.422910
     34          1           0       -0.201323    2.012906   -0.121837
 ---------------------------------------------------------------------

 SCF Done:  E(RHF) =  -669.534143174     A.U. after   15 cycles
 E2 =    -0.2093753479D+01 EUMP2 =    -0.67162789665309D+03

 The electronic state is 1-A.
 Alpha  occ. eigenvalues --  -20.60763 -20.60758 -15.85817 -11.31193 -11.27755
 Alpha  occ. eigenvalues --  -11.27750 -11.27457 -11.26775 -11.26732 -11.22535
 Alpha  occ. eigenvalues --  -11.22199 -11.22137 -11.22081 -11.21677 -11.21607
 Alpha  occ. eigenvalues --   -1.59838  -1.39391  -1.19370  -1.09178  -1.08749
 Alpha  occ. eigenvalues --   -1.04798  -1.04217  -0.96649  -0.95586  -0.87664
 Alpha  occ. eigenvalues --   -0.86169  -0.82428  -0.80327  -0.79004  -0.77474
 Alpha  occ. eigenvalues --   -0.72034  -0.71162  -0.70452  -0.65809  -0.65015
 Alpha  occ. eigenvalues --   -0.64815  -0.62205  -0.61600  -0.60008  -0.58285
 Alpha  occ. eigenvalues --   -0.55922  -0.55257  -0.53538  -0.53189  -0.52924
 Alpha  occ. eigenvalues --   -0.52620  -0.50581  -0.48795  -0.48791  -0.48626
 Alpha  occ. eigenvalues --   -0.47357  -0.46524  -0.46448  -0.44796  -0.44489
 Alpha  occ. eigenvalues --   -0.37296  -0.36326
 Alpha virt. eigenvalues --    0.05023   0.11228   0.16399   0.20173   0.22503
 Alpha virt. eigenvalues --    0.24008   0.25461   0.25927   0.26662   0.28367
 Alpha virt. eigenvalues --    0.28805   0.30151   0.31001   0.31424   0.32078

 Mulliken charges:
               1
     1  C   -0.170477
     2  C   -0.216878
     3  C   -0.173292
     4  C    0.158944
     5  C   -0.170962
     6  C   -0.219967
     7  H    0.227679
     8  H    0.227692
     9  H    0.275896
    10  H    0.275584
    11  H    0.223413
    12  N    0.488084
    13  O   -0.460440
    14  O   -0.460314
    15  C   -0.298722
    16  C   -0.300047
    17  C   -0.476091
    18  H    0.147458
    19  H    0.147241
    20  H    0.153778
    21  H    0.153532
    22  H    0.154978
    23  H    0.154909
    24  H    0.162503
    25  C   -0.298111
    26  C   -0.302510
    27  C   -0.481272
    28  H    0.153159
    29  H    0.151873
    30  H    0.153278
    31  H    0.139993
    32  H    0.155666
    33  H    0.160343
    34  H    0.163080
 Sum of Mulliken charges =  -0.00000

 Dipole moment (field-independent basis, Debye):
    X=             -4.7804    Y=             -1.9557    Z=              1.0974  Tot=              5.2802
 Quadrupole moment (field-independent basis, Debye-Ang):
   XX=           -126.4683   YY=            -91.0517   ZZ=            -92.9362
   XY=             -7.1542   XZ=              3.1490   YZ=              2.4886

 Normal termination of Gaussian 16 at Thu May  6 12:31:54 2021.
