 Gaussian 16, Revision A.03,
 Gaussian 16:  EM64L-G16RevA.03 25-Dec-2016

 -------------
 #p 6-31g* mp2
 -------------

 ------------------------------------------------------
 Input file generated by CHIRIPA (05-May-2021 14:57:21)
 ------------------------------------------------------
 Symbolic Z-matrix:
 Charge =  0 Multiplicity = 1

                         Standard orientation:
 ---------------------------------------------------------------------
 Center     Atomic      Atomic             Coordinates (Angstroms)
 Number     Number       Type             X           Y           Z
 ---------------------------------------------------------------------
      1          6           0       -2.921767    2.657047    0.086958
      2          6           0       -4.244273    2.318155   -0.217429
      3          6           0       -4.632127    0.977683   -0.302577
      4          6           0       -3.667190   -0.002642   -0.076413
      5          6           0       -2.341799    0.303143    0.228750
      6          6           0       -1.976417    1.650234    0.308685
      7          1           0       -2.629201    3.700929    0.151078
      8          1           0       -4.980577    3.097952   -0.390111
      9          1           0       -5.649132    0.687210   -0.536551
     10          1           0       -1.630290   -0.496406    0.395770
     11          1           0       -0.948625    1.910475    0.545251
     12          7           0       -4.065898   -1.425244   -0.163796
     13          8           0       -3.196812   -2.270161    0.039776
     14          8           0       -5.239942   -1.668425   -0.434204
     15          6           0        1.801527   -1.928151    0.560575
     16          6           0        1.627614   -0.592048    0.936214
     17          6           0        2.618267    0.356440    0.665060
     18          6           0        3.775490   -0.067825    0.013812
     19          6           0        3.978191   -1.391662   -0.373046
     20          6           0        2.974194   -2.322997   -0.091707
     21          1           0        1.026781   -2.658296    0.775170
     22          1           0        0.717936   -0.282550    1.442911
     23          1           0        2.509594    1.397295    0.944751
     24          1           0        4.895854   -1.670100   -0.876816
     25          1           0        3.111979   -3.359952   -0.384598
     26          7           0        4.831314    0.927217   -0.278639
     27          8           0        5.841668    0.528040   -0.853512
     28          8           0        4.628523    2.087467    0.072551
 ---------------------------------------------------------------------

 SCF Done:  E(RHF) =  -868.337642940     A.U. after   16 cycles
 E2 =    -0.2600028510D+01 EUMP2 =    -0.87093767144989D+03

 The electronic state is 1-A.
 Alpha  occ. eigenvalues --  -20.61453 -20.61420 -20.61137 -20.61119 -15.86493
 Alpha  occ. eigenvalues --  -15.86190 -11.31833 -11.31591 -11.28483 -11.28349
 Alpha  occ. eigenvalues --  -11.28282 -11.28136 -11.28088 -11.27859 -11.27458
 Alpha  occ. eigenvalues --  -11.27337 -11.27305 -11.27081  -1.60508  -1.60206
 Alpha  occ. eigenvalues --   -1.40067  -1.39759  -1.19997  -1.19776  -1.09381
 Alpha  occ. eigenvalues --   -1.09142  -1.05423  -1.05201  -0.96229  -0.95969
 Alpha  occ. eigenvalues --   -0.86807  -0.86594  -0.83088  -0.82812  -0.78172
 Alpha  occ. eigenvalues --   -0.77854  -0.72716  -0.72406  -0.71826  -0.71530
 Alpha  occ. eigenvalues --   -0.71105  -0.70820  -0.65675  -0.65489  -0.65376
 Alpha  occ. eigenvalues --   -0.65224  -0.62926  -0.62398  -0.55875  -0.55607
 Alpha  occ. eigenvalues --   -0.53717  -0.53538  -0.53485  -0.53284  -0.49479
 Alpha  occ. eigenvalues --   -0.49455  -0.49167  -0.49157  -0.45478  -0.45158
 Alpha  occ. eigenvalues --   -0.37940  -0.37711  -0.37017  -0.36806
 Alpha virt. eigenvalues --    0.04411   0.04681   0.10635   0.10745   0.15895
 Alpha virt. eigenvalues --    0.16092   0.18346   0.22261   0.24920   0.25520
 Alpha virt. eigenvalues --    0.28034   0.29837   0.30208   0.31142   0.32250

 Mulliken charges:
               1
     1  C   -0.169811
     2  C   -0.218196
     3  C   -0.169683
     4  C    0.160126
     5  C   -0.173297
     6  C   -0.218187
     7  H    0.229374
     8  H    0.226437
     9  H    0.277499
    10  H    0.268118
    11  H    0.219263
    12  N    0.488798
    13  O   -0.465464
    14  O   -0.456871
    15  C   -0.170848
    16  C   -0.224956
    17  C   -0.171569
    18  C    0.158684
    19  C   -0.169322
    20  C   -0.218430
    21  H    0.236302
    22  H    0.217364
    23  H    0.271349
    24  H    0.277586
    25  H    0.227781
    26  N    0.488270
    27  O   -0.458280
    28  O   -0.462037
 Sum of Mulliken charges =  -0.00000

 Dipole moment (field-independent basis, Debye):
    X=             -2.3615    Y=              1.4367    Z=              1.2190  Tot=              3.0210
 Quadrupole moment (field-independent basis, Debye-Ang):
   XX=           -136.3069   YY=           -101.5196   ZZ=           -105.3280
   XY=            -36.2652   XZ=              2.4528   YZ=              0.8476

 Normal termination of Gaussian 16 at Wed May  5 20:57:12 2021.
