 Gaussian 16, Revision A.03,
 Gaussian 16:  EM64L-G16RevA.03 25-Dec-2016

 -------------
 #p 6-31g* mp2
 -------------

 ------------------------------------------------------
 Input file generated by CHIRIPA (05-May-2021 14:57:25)
 ------------------------------------------------------
 Symbolic Z-matrix:
 Charge =  0 Multiplicity = 1

                         Standard orientation:
 ---------------------------------------------------------------------
 Center     Atomic      Atomic             Coordinates (Angstroms)
 Number     Number       Type             X           Y           Z
 ---------------------------------------------------------------------
      1          6           0       -2.169673    2.302658    0.110959
      2          6           0       -2.539946    1.687648   -1.089533
      3          6           0       -3.173656    0.441487   -1.082940
      4          6           0       -3.422905   -0.163989    0.147736
      5          6           0       -3.066146    0.423297    1.360628
      6          6           0       -2.433490    1.669636    1.330059
      7          1           0       -1.677801    3.270774    0.096525
      8          1           0       -2.336320    2.176928   -2.037787
      9          1           0       -3.471032   -0.057102   -1.997486
     10          1           0       -3.282382   -0.089020    2.290247
     11          1           0       -2.147055    2.144906    2.263932
     12          7           0       -4.093228   -1.483338    0.167407
     13          8           0       -4.301627   -1.996013    1.264845
     14          8           0       -4.397534   -1.979786   -0.914986
     15          6           0        1.169234    1.078072   -0.846128
     16          6           0        1.409925   -0.251404   -1.208183
     17          6           0        2.593929   -0.888429   -0.824935
     18          6           0        3.519623   -0.162848   -0.076662
     19          6           0        3.308772    1.162789    0.299530
     20          6           0        2.117754    1.779688   -0.094752
     21          1           0        0.246746    1.565111   -1.148129
     22          1           0        0.675081   -0.798744   -1.791680
     23          1           0        2.805813   -1.916741   -1.091577
     24          1           0        4.060149    1.682534    0.881523
     25          1           0        1.933508    2.812273    0.187857
     26          7           0        4.776789   -0.826585    0.334906
     27          8           0        5.576415   -0.165505    0.993853
     28          8           0        4.938726   -1.995333   -0.009248
 ---------------------------------------------------------------------

 SCF Done:  E(RHF) =  -868.335768943     A.U. after   16 cycles
 E2 =    -0.2602190258D+01 EUMP2 =    -0.87093795920094D+03

 The electronic state is 1-A.
 Alpha  occ. eigenvalues --  -20.61590 -20.61576 -20.60931 -20.60920 -15.86648
 Alpha  occ. eigenvalues --  -15.85987 -11.32245 -11.31396 -11.28886 -11.28792
 Alpha  occ. eigenvalues --  -11.28677 -11.28031 -11.27966 -11.27965 -11.27844
 Alpha  occ. eigenvalues --  -11.27660 -11.27074 -11.26956  -1.60657  -1.60004
 Alpha  occ. eigenvalues --   -1.40204  -1.39556  -1.20463  -1.19589  -1.09842
 Alpha  occ. eigenvalues --   -1.08969  -1.05885  -1.05008  -0.96623  -0.95795
 Alpha  occ. eigenvalues --   -0.87286  -0.86408  -0.83427  -0.82638  -0.78419
 Alpha  occ. eigenvalues --   -0.77673  -0.72861  -0.72203  -0.71987  -0.71618
 Alpha  occ. eigenvalues --   -0.71330  -0.70723  -0.66108  -0.65879  -0.65243
 Alpha  occ. eigenvalues --   -0.65037  -0.63200  -0.62362  -0.56420  -0.55818
 Alpha  occ. eigenvalues --   -0.53986  -0.53946  -0.53283  -0.53107  -0.49637
 Alpha  occ. eigenvalues --   -0.49600  -0.48968  -0.48954  -0.45557  -0.44952
 Alpha  occ. eigenvalues --   -0.38537  -0.37487  -0.37453  -0.36621
 Alpha virt. eigenvalues --    0.04048   0.04905   0.09969   0.11026   0.15432
 Alpha virt. eigenvalues --    0.16384   0.19479   0.21901   0.25847   0.26061
 Alpha virt. eigenvalues --    0.27710   0.29295   0.29847   0.30904   0.32281

 Mulliken charges:
               1
     1  C   -0.175621
     2  C   -0.230868
     3  C   -0.172159
     4  C    0.159649
     5  C   -0.168061
     6  C   -0.214620
     7  H    0.225085
     8  H    0.224802
     9  H    0.278129
    10  H    0.280393
    11  H    0.227846
    12  N    0.487797
    13  O   -0.456088
    14  O   -0.458933
    15  C   -0.167067
    16  C   -0.222866
    17  C   -0.169722
    18  C    0.157852
    19  C   -0.170161
    20  C   -0.222994
    21  H    0.225552
    22  H    0.224530
    23  H    0.277615
    24  H    0.275214
    25  H    0.216454
    26  N    0.488031
    27  O   -0.460860
    28  O   -0.458929
 Sum of Mulliken charges =  -0.00000

 Dipole moment (field-independent basis, Debye):
    X=             -2.3512    Y=              6.7795    Z=             -1.3503  Tot=              7.3016
 Quadrupole moment (field-independent basis, Debye-Ang):
   XX=           -152.4438   YY=           -104.6440   ZZ=            -99.0001
   XY=             -6.0245   XZ=             -3.5736   YZ=              3.1721

 Normal termination of Gaussian 16 at Fri May  7 01:57:17 2021.
