 Gaussian 16, Revision A.03,
 Gaussian 16:  EM64L-G16RevA.03 25-Dec-2016

 -------------
 #p 6-31g* mp2
 -------------

 ------------------------------------------------------
 Input file generated by CHIRIPA (05-May-2021 14:55:24)
 ------------------------------------------------------
 Symbolic Z-matrix:
 Charge =  0 Multiplicity = 1

                         Standard orientation:
 ---------------------------------------------------------------------
 Center     Atomic      Atomic             Coordinates (Angstroms)
 Number     Number       Type             X           Y           Z
 ---------------------------------------------------------------------
      1          6           0       -5.526663   -1.120771   -0.027735
      2          6           0       -4.429272   -1.958535    0.196778
      3          6           0       -3.130754   -1.440547    0.206139
      4          6           0       -2.965377   -0.073916   -0.013541
      5          6           0       -4.038526    0.786502   -0.240084
      6          6           0       -5.328138    0.246663   -0.245067
      7          1           0       -6.531923   -1.531644   -0.033307
      8          1           0       -4.580451   -3.020893    0.365851
      9          1           0       -2.263359   -2.066410    0.377430
     10          1           0       -3.856229    1.841398   -0.405558
     11          1           0       -6.178517    0.899662   -0.419691
     12          7           0       -1.595409    0.486021   -0.005948
     13          8           0       -1.476387    1.693500   -0.202075
     14          8           0       -0.666591   -0.293181    0.195986
     15          6           0        4.563189   -0.210720   -0.399583
     16          6           0        5.417116   -1.165167    0.435776
     17          6           0        6.369315   -2.005498   -0.415668
     18          1           0        3.986477   -0.791107   -1.132726
     19          1           0        5.223556    0.452295   -0.975535
     20          1           0        4.755329   -1.825266    1.011034
     21          1           0        5.991718   -0.582459    1.167143
     22          1           0        7.052945   -1.361620   -0.978404
     23          1           0        5.809530   -2.611490   -1.135401
     24          1           0        6.970074   -2.680693    0.201632
     25          6           0        3.606193    0.636193    0.437451
     26          6           0        2.752265    1.590640   -0.397908
     27          6           0        1.800067    2.430970    0.453536
     28          1           0        2.945825   -0.026822    1.013403
     29          1           0        4.182905    1.216580    1.170594
     30          1           0        2.177663    1.007931   -1.129276
     31          1           0        3.414053    2.250739   -0.973167
     32          1           0        2.359851    3.036962    1.173269
     33          1           0        1.116437    1.787093    1.016272
     34          1           0        1.199307    3.106166   -0.163764
 ---------------------------------------------------------------------

 SCF Done:  E(RHF) =  -669.536085328     A.U. after   15 cycles
 E2 =    -0.2092405230D+01 EUMP2 =    -0.67162849055782D+03

 The electronic state is 1-A.
 Alpha  occ. eigenvalues --  -20.61128 -20.61115 -15.86129 -11.31403 -11.27955
 Alpha  occ. eigenvalues --  -11.27950 -11.27681 -11.26947 -11.26937 -11.20668
 Alpha  occ. eigenvalues --  -11.20333 -11.20186 -11.19815 -11.19665 -11.18621
 Alpha  occ. eigenvalues --   -1.60167  -1.39724  -1.19561  -1.08977  -1.07041
 Alpha  occ. eigenvalues --   -1.04947  -1.02029  -0.95831  -0.94467  -0.86351
 Alpha  occ. eigenvalues --   -0.85498  -0.82660  -0.78203  -0.77724  -0.76762
 Alpha  occ. eigenvalues --   -0.72337  -0.71475  -0.70669  -0.65216  -0.64955
 Alpha  occ. eigenvalues --   -0.63674  -0.62294  -0.59432  -0.57981  -0.56063
 Alpha  occ. eigenvalues --   -0.55466  -0.53802  -0.53281  -0.53038  -0.51195
 Alpha  occ. eigenvalues --   -0.50926  -0.49282  -0.49091  -0.48125  -0.46472
 Alpha  occ. eigenvalues --   -0.45223  -0.45146  -0.44307  -0.44122  -0.42277
 Alpha  occ. eigenvalues --   -0.37535  -0.36545
 Alpha virt. eigenvalues --    0.04786   0.11111   0.16301   0.21248   0.24133
 Alpha virt. eigenvalues --    0.25957   0.27177   0.27930   0.28206   0.28786
 Alpha virt. eigenvalues --    0.29634   0.30851   0.32339   0.32859   0.32910

 Mulliken charges:
               1
     1  C   -0.170345
     2  C   -0.218598
     3  C   -0.170625
     4  C    0.159893
     5  C   -0.170694
     6  C   -0.218602
     7  H    0.226406
     8  H    0.224188
     9  H    0.275834
    10  H    0.276130
    11  H    0.224239
    12  N    0.487727
    13  O   -0.455823
    14  O   -0.460731
    15  C   -0.297231
    16  C   -0.298520
    17  C   -0.474798
    18  H    0.149191
    19  H    0.145807
    20  H    0.150971
    21  H    0.149819
    22  H    0.153694
    23  H    0.153713
    24  H    0.156849
    25  C   -0.298674
    26  C   -0.296904
    27  C   -0.471643
    28  H    0.155516
    29  H    0.143401
    30  H    0.157379
    31  H    0.140973
    32  H    0.137088
    33  H    0.171773
    34  H    0.162595
 Sum of Mulliken charges =  -0.00000

 Dipole moment (field-independent basis, Debye):
    X=             -5.4169    Y=             -2.0374    Z=             -0.0458  Tot=              5.7876
 Quadrupole moment (field-independent basis, Debye-Ang):
   XX=            -67.7456   YY=            -90.8951   ZZ=            -95.8852
   XY=              5.1025   XZ=              0.9395   YZ=             -1.3594

 Normal termination of Gaussian 16 at Thu May  6 09:30:03 2021.
