 Gaussian 16, Revision A.03,
 Gaussian 16:  EM64L-G16RevA.03 25-Dec-2016

 -------------
 #p 6-31g* mp2
 -------------

 ------------------------------------------------------
 Input file generated by CHIRIPA (05-May-2021 14:57:24)
 ------------------------------------------------------
 Symbolic Z-matrix:
 Charge =  0 Multiplicity = 1

                         Standard orientation:
 ---------------------------------------------------------------------
 Center     Atomic      Atomic             Coordinates (Angstroms)
 Number     Number       Type             X           Y           Z
 ---------------------------------------------------------------------
      1          6           0        2.488527    1.783770   -1.187617
      2          6           0        2.206571    0.427346   -1.380323
      3          6           0        3.042049   -0.555158   -0.840683
      4          6           0        4.155955   -0.143817   -0.110407
      5          6           0        4.463566    1.199621    0.098976
      6          6           0        3.614140    2.164906   -0.449884
      7          1           0        1.834090    2.540314   -1.610404
      8          1           0        1.333105    0.128427   -1.952817
      9          1           0        2.847320   -1.612316   -0.974527
     10          1           0        5.341658    1.466796    0.674294
     11          1           0        3.835579    3.217583   -0.298618
     12          7           0        5.047822   -1.174835    0.465766
     13          8           0        6.022946   -0.786439    1.105233
     14          8           0        4.754855   -2.351822    0.266993
     15          6           0       -1.763537    0.680184    1.113733
     16          6           0       -1.864762    0.172715   -0.185785
     17          6           0       -3.103751   -0.221718   -0.699478
     18          6           0       -4.226045   -0.094389    0.117550
     19          6           0       -4.157578    0.407490    1.416288
     20          6           0       -2.908249    0.795748    1.909220
     21          1           0       -0.797045    0.984191    1.504718
     22          1           0       -0.977449    0.081839   -0.805834
     23          1           0       -3.210694   -0.617871   -1.701996
     24          1           0       -5.059845    0.486200    2.010541
     25          1           0       -2.832631    1.189512    2.918813
     26          7           0       -5.543180   -0.508690   -0.415283
     27          8           0       -6.516937   -0.386483    0.324648
     28          8           0       -5.576851   -0.947779   -1.562760
 ---------------------------------------------------------------------

 SCF Done:  E(RHF) =  -868.337082005     A.U. after   16 cycles
 E2 =    -0.2599731186D+01 EUMP2 =    -0.87093681319111D+03

 The electronic state is 1-A.
 Alpha  occ. eigenvalues --  -20.61451 -20.61446 -20.61124 -20.61117 -15.86513
 Alpha  occ. eigenvalues --  -15.86182 -11.32050 -11.31622 -11.28693 -11.28635
 Alpha  occ. eigenvalues --  -11.28460 -11.28253 -11.28186 -11.27964 -11.27797
 Alpha  occ. eigenvalues --  -11.27650 -11.27317 -11.27194  -1.60524  -1.60198
 Alpha  occ. eigenvalues --   -1.40072  -1.39749  -1.20265  -1.19813  -1.09627
 Alpha  occ. eigenvalues --   -1.09189  -1.05697  -1.05240  -0.96420  -0.96007
 Alpha  occ. eigenvalues --   -0.87094  -0.86628  -0.83253  -0.82849  -0.78274
 Alpha  occ. eigenvalues --   -0.77883  -0.72725  -0.72397  -0.71854  -0.71523
 Alpha  occ. eigenvalues --   -0.71348  -0.70904  -0.65914  -0.65813  -0.65467
 Alpha  occ. eigenvalues --   -0.65194  -0.63059  -0.62556  -0.56182  -0.55714
 Alpha  occ. eigenvalues --   -0.54030  -0.53834  -0.53552  -0.53276  -0.49500
 Alpha  occ. eigenvalues --   -0.49469  -0.49162  -0.49148  -0.45439  -0.45138
 Alpha  occ. eigenvalues --   -0.38265  -0.37789  -0.37308  -0.36848
 Alpha virt. eigenvalues --    0.04282   0.04671   0.10188   0.10803   0.15664
 Alpha virt. eigenvalues --    0.16140   0.18798   0.21736   0.24665   0.27431
 Alpha virt. eigenvalues --    0.27825   0.28301   0.29453   0.31294   0.31784

 Mulliken charges:
               1
     1  C   -0.173226
     2  C   -0.225848
     3  C   -0.170299
     4  C    0.158386
     5  C   -0.169555
     6  C   -0.219433
     7  H    0.228008
     8  H    0.220114
     9  H    0.278363
    10  H    0.278511
    11  H    0.226443
    12  N    0.487969
    13  O   -0.458202
    14  O   -0.458270
    15  C   -0.172412
    16  C   -0.220894
    17  C   -0.171437
    18  C    0.159019
    19  C   -0.170060
    20  C   -0.218421
    21  H    0.228115
    22  H    0.216491
    23  H    0.275175
    24  H    0.277225
    25  H    0.225301
    26  N    0.488103
    27  O   -0.458942
    28  O   -0.460223
 Sum of Mulliken charges =  -0.00000

 Dipole moment (field-independent basis, Debye):
    X=              1.6515    Y=              5.1203    Z=             -0.0243  Tot=              5.3801
 Quadrupole moment (field-independent basis, Debye-Ang):
   XX=           -167.1024   YY=           -104.0859   ZZ=           -100.2148
   XY=             10.8443   XZ=            -16.5441   YZ=              2.8174

 Normal termination of Gaussian 16 at Thu May  6 11:22:38 2021.
