 Gaussian 16, Revision A.03,
 Gaussian 16:  EM64L-G16RevA.03 25-Dec-2016

 -------------
 #p 6-31g* mp2
 -------------

 ------------------------------------------------------
 Input file generated by CHIRIPA (05-May-2021 14:57:23)
 ------------------------------------------------------
 Symbolic Z-matrix:
 Charge =  0 Multiplicity = 1

                         Standard orientation:
 ---------------------------------------------------------------------
 Center     Atomic      Atomic             Coordinates (Angstroms)
 Number     Number       Type             X           Y           Z
 ---------------------------------------------------------------------
      1          6           0        5.509313   -0.287167   -0.052646
      2          6           0        4.700294   -1.426773    0.004870
      3          6           0        3.307218   -1.310126   -0.011861
      4          6           0        2.754256   -0.032680   -0.087060
      5          6           0        3.533519    1.121707   -0.145618
      6          6           0        4.924375    0.981199   -0.127575
      7          1           0        6.590626   -0.387049   -0.039140
      8          1           0        5.151807   -2.413074    0.063111
      9          1           0        2.657270   -2.175632    0.031561
     10          1           0        3.054361    2.091509   -0.203143
     11          1           0        5.550193    1.867987   -0.172358
     12          7           0        1.280644    0.103438   -0.105466
     13          8           0        0.818025    1.240175   -0.172166
     14          8           0        0.616149   -0.929187   -0.052845
     15          6           0       -3.460517   -2.420361   -0.068327
     16          6           0       -2.820016   -1.896197    1.059295
     17          6           0       -2.558184   -0.526185    1.154466
     18          6           0       -2.952326    0.294434    0.098754
     19          6           0       -3.592207   -0.197703   -1.037750
     20          6           0       -3.843893   -1.570939   -1.111412
     21          1           0       -3.659974   -3.485872   -0.133905
     22          1           0       -2.521155   -2.553495    1.870890
     23          1           0       -2.063859   -0.093835    2.015938
     24          1           0       -3.878260    0.482553   -1.830747
     25          1           0       -4.341475   -1.975227   -1.988343
     26          7           0       -2.680507    1.746511    0.188123
     27          8           0       -3.037764    2.448347   -0.755503
     28          8           0       -2.115345    2.155319    1.200104
 ---------------------------------------------------------------------

 SCF Done:  E(RHF) =  -868.337713188     A.U. after   16 cycles
 E2 =    -0.2601553984D+01 EUMP2 =    -0.87093926717203D+03

 The electronic state is 1-A.
 Alpha  occ. eigenvalues --  -20.60855 -20.60739 -20.59049 -20.58991 -15.85805
 Alpha  occ. eigenvalues --  -15.84079 -11.31174 -11.29438 -11.27782 -11.27696
 Alpha  occ. eigenvalues --  -11.27494 -11.26784 -11.26729 -11.26141 -11.26070
 Alpha  occ. eigenvalues --  -11.25956 -11.25211 -11.25136  -1.59867  -1.58061
 Alpha  occ. eigenvalues --   -1.39413  -1.37632  -1.19350  -1.17657  -1.08751
 Alpha  occ. eigenvalues --   -1.07078  -1.04749  -1.03118  -0.95584  -0.93916
 Alpha  occ. eigenvalues --   -0.86148  -0.84541  -0.82409  -0.80785  -0.77459
 Alpha  occ. eigenvalues --   -0.75795  -0.72040  -0.71180  -0.70458  -0.70349
 Alpha  occ. eigenvalues --   -0.69306  -0.68895  -0.65000  -0.64754  -0.63377
 Alpha  occ. eigenvalues --   -0.63210  -0.62094  -0.60519  -0.55262  -0.53718
 Alpha  occ. eigenvalues --   -0.53082  -0.52843  -0.51451  -0.51288  -0.48812
 Alpha  occ. eigenvalues --   -0.48737  -0.47095  -0.47073  -0.44820  -0.43007
 Alpha  occ. eigenvalues --   -0.37334  -0.36353  -0.35642  -0.34624
 Alpha virt. eigenvalues --    0.05043   0.06854   0.11301   0.12975   0.16570
 Alpha virt. eigenvalues --    0.18265   0.21440   0.22760   0.27347   0.28343
 Alpha virt. eigenvalues --    0.28628   0.29659   0.30987   0.32206   0.32597

 Mulliken charges:
               1
     1  C   -0.170750
     2  C   -0.218638
     3  C   -0.171593
     4  C    0.158218
     5  C   -0.170344
     6  C   -0.218719
     7  H    0.225537
     8  H    0.222316
     9  H    0.272714
    10  H    0.280220
    11  H    0.224625
    12  N    0.487581
    13  O   -0.450966
    14  O   -0.467825
    15  C   -0.170822
    16  C   -0.214179
    17  C   -0.149363
    18  C    0.166851
    19  C   -0.171208
    20  C   -0.219211
    21  H    0.217684
    22  H    0.215485
    23  H    0.270440
    24  H    0.270348
    25  H    0.215882
    26  N    0.494357
    27  O   -0.468967
    28  O   -0.459673
 Sum of Mulliken charges =  -0.00000

 Dipole moment (field-independent basis, Debye):
    X=              4.6256    Y=             -5.3310    Z=             -0.1719  Tot=              7.0601
 Quadrupole moment (field-independent basis, Debye-Ang):
   XX=            -72.3928   YY=           -103.9609   ZZ=           -102.1991
   XY=             13.5689   XZ=              2.4590   YZ=             -1.5709

 Normal termination of Gaussian 16 at Thu May  6 09:45:52 2021.
