 Gaussian 16, Revision A.03,
 Gaussian 16:  EM64L-G16RevA.03 25-Dec-2016

 -------------
 #p 6-31g* mp2
 -------------

 ------------------------------------------------------
 Input file generated by CHIRIPA (05-May-2021 14:53:13)
 ------------------------------------------------------
 Symbolic Z-matrix:
 Charge =  0 Multiplicity = 1

                         Standard orientation:
 ---------------------------------------------------------------------
 Center     Atomic      Atomic             Coordinates (Angstroms)
 Number     Number       Type             X           Y           Z
 ---------------------------------------------------------------------
      1          6           0        3.448415   -0.626795   -0.596402
      2          6           0        4.055244   -1.832998    0.121106
      3          6           0        3.936120   -3.124221   -0.689046
      4          1           0        2.390414   -0.830172   -0.811380
      5          1           0        3.945695   -0.498457   -1.567813
      6          1           0        3.557917   -1.958188    1.091472
      7          1           0        5.111874   -1.626649    0.334572
      8          1           0        4.448274   -3.023804   -1.651447
      9          1           0        2.885487   -3.357227   -0.890246
     10          1           0        4.376252   -3.973709   -0.157525
     11          6           0        3.559793    0.671498    0.200943
     12          6           0        2.952965    1.877701   -0.516565
     13          6           0        3.072089    3.168924    0.293587
     14          1           0        3.062514    0.543160    1.172353
     15          1           0        4.617795    0.874874    0.415921
     16          1           0        1.896334    1.671352   -0.730031
     17          1           0        3.450292    2.002891   -1.486931
     18          1           0        4.122721    3.401929    0.494787
     19          1           0        2.559934    3.068507    1.255988
     20          1           0        2.631957    4.018411   -0.237935
     21          6           0       -0.386303    0.374566    0.981352
     22          6           0       -0.969752    1.270681    0.079640
     23          6           0       -2.271878    1.063422   -0.385181
     24          6           0       -2.964894   -0.055362    0.074536
     25          6           0       -2.411017   -0.966251    0.972752
     26          6           0       -1.107525   -0.739077    1.424250
     27          1           0        0.625751    0.543305    1.337262
     28          1           0       -0.412004    2.136405   -0.266026
     29          1           0       -2.747766    1.741222   -1.083419
     30          1           0       -2.991914   -1.820249    1.299349
     31          1           0       -0.656948   -1.436683    2.124514
     32          7           0       -4.344120   -0.285320   -0.410496
     33          8           0       -4.933641   -1.278567    0.009696
     34          8           0       -4.809519    0.532041   -1.201674
 ---------------------------------------------------------------------

 SCF Done:  E(RHF) =  -669.534753894     A.U. after   15 cycles
 E2 =    -0.2093411438D+01 EUMP2 =    -0.67162816533194D+03

 The electronic state is 1-A.
 Alpha  occ. eigenvalues --  -20.60778 -20.60773 -15.85832 -11.31212 -11.27781
 Alpha  occ. eigenvalues --  -11.27772 -11.27493 -11.26796 -11.26767 -11.22788
 Alpha  occ. eigenvalues --  -11.22572 -11.22412 -11.22264 -11.22235 -11.21698
 Alpha  occ. eigenvalues --   -1.59853  -1.39406  -1.19385  -1.09485  -1.08770
 Alpha  occ. eigenvalues --   -1.04793  -1.04510  -0.96947  -0.95610  -0.87954
 Alpha  occ. eigenvalues --   -0.86193  -0.82441  -0.80591  -0.79252  -0.77487
 Alpha  occ. eigenvalues --   -0.72051  -0.71176  -0.70571  -0.66187  -0.65032
 Alpha  occ. eigenvalues --   -0.64755  -0.62256  -0.61772  -0.60319  -0.58542
 Alpha  occ. eigenvalues --   -0.56309  -0.55217  -0.53618  -0.53345  -0.53117
 Alpha  occ. eigenvalues --   -0.52881  -0.50882  -0.48892  -0.48807  -0.48799
 Alpha  occ. eigenvalues --   -0.47642  -0.46774  -0.46711  -0.44809  -0.44764
 Alpha  occ. eigenvalues --   -0.37341  -0.36385
 Alpha virt. eigenvalues --    0.05021   0.11141   0.16427   0.18527   0.22680
 Alpha virt. eigenvalues --    0.23786   0.24791   0.25788   0.26911   0.28214
 Alpha virt. eigenvalues --    0.29640   0.29923   0.30865   0.31191   0.31794

 Mulliken charges:
               1
     1  C   -0.301953
     2  C   -0.299207
     3  C   -0.476522
     4  H    0.152497
     5  H    0.153806
     6  H    0.147405
     7  H    0.154214
     8  H    0.157559
     9  H    0.156587
    10  H    0.162236
    11  C   -0.301289
    12  C   -0.309195
    13  C   -0.477534
    14  H    0.140152
    15  H    0.156207
    16  H    0.148799
    17  H    0.159414
    18  H    0.161542
    19  H    0.150917
    20  H    0.162434
    21  C   -0.174633
    22  C   -0.223797
    23  C   -0.171097
    24  C    0.158413
    25  C   -0.170593
    26  C   -0.221469
    27  H    0.234983
    28  H    0.227373
    29  H    0.275878
    30  H    0.275721
    31  H    0.223728
    32  N    0.487995
    33  O   -0.460328
    34  O   -0.460243
 Sum of Mulliken charges =  -0.00000

 Dipole moment (field-independent basis, Debye):
    X=              5.0460    Y=              0.7862    Z=              1.6027  Tot=              5.3525
 Quadrupole moment (field-independent basis, Debye-Ang):
   XX=           -122.5040   YY=            -92.2911   ZZ=            -93.5510
   XY=             -2.1927   XZ=             -5.6621   YZ=             -3.2983

 Normal termination of Gaussian 16 at Wed May  5 21:48:37 2021.
