 Gaussian 16, Revision A.03,
 Gaussian 16:  EM64L-G16RevA.03 25-Dec-2016

 -------------
 #p 6-31g* mp2
 -------------

 ------------------------------------------------------
 Input file generated by CHIRIPA (05-May-2021 14:51:09)
 ------------------------------------------------------
 Symbolic Z-matrix:
 Charge =  0 Multiplicity = 1

                         Standard orientation:
 ---------------------------------------------------------------------
 Center     Atomic      Atomic             Coordinates (Angstroms)
 Number     Number       Type             X           Y           Z
 ---------------------------------------------------------------------
      1          6           0       -3.049497    1.011241    0.374738
      2          6           0       -2.036008    1.609121   -0.601665
      3          6           0       -0.994055    2.487285    0.091845
      4          1           0       -3.553861    1.824909    0.913725
      5          1           0       -2.514845    0.419766    1.130846
      6          1           0       -2.572525    2.198158   -1.356516
      7          1           0       -1.534134    0.793942   -1.138527
      8          1           0       -0.433122    1.907787    0.832208
      9          1           0       -1.477414    3.319982    0.612981
     10          1           0       -0.279576    2.904398   -0.624672
     11          6           0       -4.097624    0.130870   -0.303573
     12          6           0       -5.111113   -0.467010    0.672830
     13          6           0       -6.153066   -1.345174   -0.020681
     14          1           0       -4.632276    0.722345   -1.059682
     15          1           0       -3.593259   -0.682797   -0.842560
     16          1           0       -5.612987    0.348170    1.209692
     17          1           0       -4.574596   -1.056047    1.427681
     18          1           0       -5.669707   -2.177871   -0.541816
     19          1           0       -6.713998   -0.765676   -0.761044
     20          1           0       -6.867545   -1.762286    0.695836
     21          6           0        2.866937   -0.529325   -0.322590
     22          6           0        1.960456   -1.674949    0.128878
     23          6           0        0.550123   -1.577559   -0.453593
     24          1           0        2.412602    0.426843   -0.028874
     25          1           0        2.921946   -0.525210   -1.420020
     26          1           0        1.908280   -1.677755    1.225183
     27          1           0        2.417095   -2.628507   -0.165778
     28          1           0        0.582977   -1.597531   -1.547724
     29          1           0        0.071270   -0.641376   -0.148859
     30          1           0       -0.080974   -2.406362   -0.117944
     31          6           0        4.280184   -0.612786    0.251426
     32          6           0        5.186665    0.532838   -0.200042
     33          6           0        6.596996    0.435447    0.382428
     34          1           0        4.225175   -0.616901    1.348856
     35          1           0        4.734518   -1.568953   -0.042290
     36          1           0        4.730026    1.486397    0.094614
     37          1           0        5.238842    0.535643   -1.296348
     38          1           0        7.075851   -0.500735    0.077694
     39          1           0        6.564144    0.455420    1.476560
     40          1           0        7.228094    1.264250    0.046779
 ---------------------------------------------------------------------

 SCF Done:  E(RHF) =  -470.733097836     A.U. after   11 cycles
 E2 =    -0.1583231274D+01 EUMP2 =    -0.47231632911061D+03

 The electronic state is 1-A.
 Alpha  occ. eigenvalues --  -11.21637 -11.21602 -11.21573 -11.21541 -11.21414
 Alpha  occ. eigenvalues --  -11.21372 -11.21355 -11.21311 -11.21109 -11.21107
 Alpha  occ. eigenvalues --  -11.21071 -11.21047  -1.08452  -1.08397  -1.03578
 Alpha  occ. eigenvalues --   -1.03491  -0.96015  -0.95959  -0.87037  -0.86973
 Alpha  occ. eigenvalues --   -0.79650  -0.79544  -0.78263  -0.78205  -0.65182
 Alpha  occ. eigenvalues --   -0.64963  -0.61174  -0.60736  -0.59373  -0.59327
 Alpha  occ. eigenvalues --   -0.57622  -0.57558  -0.55367  -0.55177  -0.52701
 Alpha  occ. eigenvalues --   -0.52661  -0.52457  -0.52368  -0.50006  -0.49852
 Alpha  occ. eigenvalues --   -0.48055  -0.47787  -0.46678  -0.46550  -0.45872
 Alpha  occ. eigenvalues --   -0.45748  -0.45677  -0.45588  -0.43804  -0.43762
 Alpha virt. eigenvalues --    0.20436   0.22977   0.23734   0.25016   0.26039
 Alpha virt. eigenvalues --    0.26388   0.27208   0.27473   0.28540   0.29114
 Alpha virt. eigenvalues --    0.30731   0.31356   0.31665   0.31754   0.32116

 Mulliken charges:
               1
     1  C   -0.298701
     2  C   -0.305367
     3  C   -0.477613
     4  H    0.149479
     5  H    0.149651
     6  H    0.152619
     7  H    0.157416
     8  H    0.154498
     9  H    0.155687
    10  H    0.160917
    11  C   -0.298545
    12  C   -0.299648
    13  C   -0.475702
    14  H    0.149343
    15  H    0.150751
    16  H    0.151745
    17  H    0.151919
    18  H    0.155256
    19  H    0.155115
    20  H    0.160108
    21  C   -0.299592
    22  C   -0.299375
    23  C   -0.483768
    24  H    0.151133
    25  H    0.149500
    26  H    0.151669
    27  H    0.152072
    28  H    0.155151
    29  H    0.164207
    30  H    0.159856
    31  C   -0.298267
    32  C   -0.299733
    33  C   -0.475717
    34  H    0.149509
    35  H    0.149644
    36  H    0.152248
    37  H    0.151896
    38  H    0.155134
    39  H    0.155208
    40  H    0.160299
 Sum of Mulliken charges =  -0.00000

 Dipole moment (field-independent basis, Debye):
    X=              0.0076    Y=              0.0021    Z=             -0.0145  Tot=              0.0165
 Quadrupole moment (field-independent basis, Debye-Ang):
   XX=            -86.1806   YY=            -84.2908   ZZ=            -84.3602
   XY=             -1.2555   XZ=             -0.7974   YZ=              0.0900

 Normal termination of Gaussian 16 at Wed May  5 19:45:10 2021.
