 Gaussian 16, Revision A.03,
 Gaussian 16:  EM64L-G16RevA.03 25-Dec-2016

 -------------
 #p 6-31g* mp2
 -------------

 ------------------------------------------------------
 Input file generated by CHIRIPA (05-May-2021 14:51:09)
 ------------------------------------------------------
 Symbolic Z-matrix:
 Charge =  0 Multiplicity = 1

                         Standard orientation:
 ---------------------------------------------------------------------
 Center     Atomic      Atomic             Coordinates (Angstroms)
 Number     Number       Type             X           Y           Z
 ---------------------------------------------------------------------
      1          6           0       -2.652896   -0.256483   -0.489656
      2          6           0       -4.087108    0.273628   -0.491326
      3          6           0       -4.345642    1.275732   -1.616822
      4          1           0       -1.956607    0.588284   -0.397493
      5          1           0       -2.443284   -0.730015   -1.458792
      6          1           0       -4.294404    0.744795    0.478027
      7          1           0       -4.780070   -0.572516   -0.583303
      8          1           0       -4.166109    0.813551   -2.592915
      9          1           0       -3.677684    2.138347   -1.525556
     10          1           0       -5.376907    1.641854   -1.599341
     11          6           0       -2.378998   -1.259326    0.629726
     12          6           0       -0.944786   -1.789437    0.631397
     13          6           0       -0.686252   -2.791541    1.756893
     14          1           0       -2.588610   -0.785795    1.598862
     15          1           0       -3.075287   -2.104093    0.537564
     16          1           0       -0.251824   -0.943293    0.723373
     17          1           0       -0.737490   -2.260604   -0.337957
     18          1           0       -1.354210   -3.654156    1.665626
     19          1           0       -0.865785   -2.329360    2.732986
     20          1           0        0.345013   -3.157663    1.739411
     21          6           0        2.586822    0.225236   -0.612873
     22          6           0        3.905774   -0.544700   -0.538368
     23          6           0        4.032792   -1.606822   -1.630870
     24          1           0        1.750986   -0.483585   -0.536090
     25          1           0        2.503379    0.701184   -1.599740
     26          1           0        3.987340   -1.017914    0.448562
     27          1           0        4.738568    0.166056   -0.615145
     28          1           0        3.977259   -1.147440   -2.623082
     29          1           0        3.221763   -2.338136   -1.553331
     30          1           0        4.983017   -2.145110   -1.558934
     31          6           0        2.445072    1.290574    0.472803
     32          6           0        1.126121    2.060509    0.398298
     33          6           0        0.999103    3.122631    1.490799
     34          1           0        2.528515    0.814625    1.459669
     35          1           0        3.280908    1.999394    0.396020
     36          1           0        0.293326    1.349753    0.475074
     37          1           0        1.044554    2.533723   -0.588633
     38          1           0        1.810132    3.853946    1.413261
     39          1           0        1.054636    2.663249    2.483012
     40          1           0        0.048877    3.660920    1.418864
 ---------------------------------------------------------------------

 SCF Done:  E(RHF) =  -470.732393841     A.U. after   11 cycles
 E2 =    -0.1584672768D+01 EUMP2 =    -0.47231706660939D+03

 The electronic state is 1-A.
 Alpha  occ. eigenvalues --  -11.21657 -11.21628 -11.21612 -11.21578 -11.21439
 Alpha  occ. eigenvalues --  -11.21399 -11.21365 -11.21295 -11.21146 -11.21119
 Alpha  occ. eigenvalues --  -11.21074 -11.21055  -1.08506  -1.08404  -1.03576
 Alpha  occ. eigenvalues --   -1.03541  -0.96026  -0.95979  -0.87036  -0.87003
 Alpha  occ. eigenvalues --   -0.79665  -0.79616  -0.78464  -0.78069  -0.65363
 Alpha  occ. eigenvalues --   -0.64860  -0.61040  -0.60876  -0.59392  -0.59356
 Alpha  occ. eigenvalues --   -0.57685  -0.57550  -0.55356  -0.55223  -0.52732
 Alpha  occ. eigenvalues --   -0.52674  -0.52456  -0.52399  -0.49967  -0.49933
 Alpha  occ. eigenvalues --   -0.48033  -0.47964  -0.46920  -0.46644  -0.46272
 Alpha  occ. eigenvalues --   -0.45755  -0.45729  -0.44882  -0.43820  -0.43774
 Alpha virt. eigenvalues --    0.20634   0.22716   0.24004   0.24567   0.25454
 Alpha virt. eigenvalues --    0.26711   0.26961   0.27519   0.27847   0.29685
 Alpha virt. eigenvalues --    0.30823   0.31624   0.31690   0.31826   0.32569

 Mulliken charges:
               1
     1  C   -0.304856
     2  C   -0.299307
     3  C   -0.475753
     4  H    0.155791
     5  H    0.149700
     6  H    0.151838
     7  H    0.151964
     8  H    0.155260
     9  H    0.155377
    10  H    0.160244
    11  C   -0.297186
    12  C   -0.310806
    13  C   -0.475250
    14  H    0.149175
    15  H    0.149949
    16  H    0.161765
    17  H    0.152073
    18  H    0.155748
    19  H    0.155196
    20  H    0.159878
    21  C   -0.305753
    22  C   -0.299137
    23  C   -0.475711
    24  H    0.157786
    25  H    0.149279
    26  H    0.151528
    27  H    0.151729
    28  H    0.155171
    29  H    0.155148
    30  H    0.160117
    31  C   -0.297594
    32  C   -0.311338
    33  C   -0.475047
    34  H    0.148996
    35  H    0.149944
    36  H    0.161293
    37  H    0.152375
    38  H    0.155673
    39  H    0.154963
    40  H    0.159777
 Sum of Mulliken charges =  -0.00000

 Dipole moment (field-independent basis, Debye):
    X=             -0.0205    Y=             -0.0059    Z=             -0.0071  Tot=              0.0225
 Quadrupole moment (field-independent basis, Debye-Ang):
   XX=            -84.7815   YY=            -84.9402   ZZ=            -85.1415
   XY=              0.9762   XZ=             -0.1724   YZ=              0.0115

 Normal termination of Gaussian 16 at Wed May  5 22:59:07 2021.
