 Gaussian 16, Revision A.03,
 Gaussian 16:  EM64L-G16RevA.03 25-Dec-2016

 -------------
 #p 6-31g* mp2
 -------------

 ------------------------------------------------------
 Input file generated by CHIRIPA (05-May-2021 14:51:10)
 ------------------------------------------------------
 Symbolic Z-matrix:
 Charge =  0 Multiplicity = 1

                         Standard orientation:
 ---------------------------------------------------------------------
 Center     Atomic      Atomic             Coordinates (Angstroms)
 Number     Number       Type             X           Y           Z
 ---------------------------------------------------------------------
      1          6           0        4.266135   -0.045991   -0.090876
      2          6           0        3.362857    1.186434   -0.034282
      3          6           0        1.878556    0.837142   -0.146704
      4          1           0        4.084591   -0.582886   -1.032009
      5          1           0        3.987856   -0.733482    0.719872
      6          1           0        3.643673    1.872026   -0.844049
      7          1           0        3.546711    1.720562    0.906739
      8          1           0        1.576509    0.171916    0.668675
      9          1           0        1.674022    0.324240   -1.092060
     10          1           0        1.250999    1.732802   -0.103974
     11          6           0        5.752911    0.286983    0.020270
     12          6           0        6.656189   -0.945442   -0.036324
     13          6           0        8.140491   -0.596151    0.076098
     14          1           0        6.031191    0.974473   -0.790478
     15          1           0        5.934456    0.823878    0.961403
     16          1           0        6.472335   -1.479570   -0.977345
     17          1           0        6.375373   -1.631034    0.773443
     18          1           0        8.345024   -0.083249    1.021454
     19          1           0        8.442537    0.069076   -0.739281
     20          1           0        8.768048   -1.491810    0.033368
     21          6           0       -5.686543    0.232590    0.055456
     22          6           0       -6.871720   -0.718482   -0.114252
     23          6           0       -8.219244    0.002744   -0.071729
     24          1           0       -5.787695    0.767689    1.009596
     25          1           0       -5.720725    0.994640   -0.735435
     26          1           0       -6.834536   -1.479331    0.675902
     27          1           0       -6.767636   -1.251519   -1.068009
     28          1           0       -8.281762    0.749675   -0.869719
     29          1           0       -8.349043    0.520568    0.884101
     30          1           0       -9.052615   -0.695944   -0.194971
     31          6           0       -4.332504   -0.473582    0.015150
     32          6           0       -3.147326    0.477490    0.184858
     33          6           0       -1.799802   -0.243736    0.142335
     34          1           0       -4.298322   -1.235631    0.806041
     35          1           0       -4.231353   -1.008681   -0.938990
     36          1           0       -3.251410    1.010527    1.138615
     37          1           0       -3.184510    1.238340   -0.605296
     38          1           0       -1.670003   -0.761560   -0.813496
     39          1           0       -1.737284   -0.990666    0.940324
     40          1           0       -0.966432    0.454952    0.265576
 ---------------------------------------------------------------------

 SCF Done:  E(RHF) =  -470.732982993     A.U. after   11 cycles
 E2 =    -0.1582343773D+01 EUMP2 =    -0.47231532676551D+03

 The electronic state is 1-A.
 Alpha  occ. eigenvalues --  -11.21595 -11.21584 -11.21565 -11.21508 -11.21397
 Alpha  occ. eigenvalues --  -11.21348 -11.21337 -11.21285 -11.21066 -11.21060
 Alpha  occ. eigenvalues --  -11.21044 -11.20875  -1.08423  -1.08366  -1.03535
 Alpha  occ. eigenvalues --   -1.03446  -0.96024  -0.95860  -0.87093  -0.86830
 Alpha  occ. eigenvalues --   -0.79661  -0.79454  -0.78236  -0.78179  -0.65053
 Alpha  occ. eigenvalues --   -0.64998  -0.60930  -0.60849  -0.59493  -0.59162
 Alpha  occ. eigenvalues --   -0.57586  -0.57516  -0.55282  -0.55171  -0.53023
 Alpha  occ. eigenvalues --   -0.52509  -0.52322  -0.52131  -0.49937  -0.49818
 Alpha  occ. eigenvalues --   -0.47905  -0.47831  -0.46629  -0.46546  -0.45779
 Alpha  occ. eigenvalues --   -0.45721  -0.45701  -0.45651  -0.43926  -0.43517
 Alpha virt. eigenvalues --    0.22635   0.22968   0.23689   0.24748   0.26591
 Alpha virt. eigenvalues --    0.26712   0.26844   0.27408   0.27629   0.29014
 Alpha virt. eigenvalues --    0.30283   0.31096   0.31383   0.31760   0.32160

 Mulliken charges:
               1
     1  C   -0.298506
     2  C   -0.300488
     3  C   -0.476984
     4  H    0.149686
     5  H    0.149689
     6  H    0.151734
     7  H    0.151797
     8  H    0.157253
     9  H    0.156671
    10  H    0.159078
    11  C   -0.298302
    12  C   -0.299612
    13  C   -0.475698
    14  H    0.149495
    15  H    0.149612
    16  H    0.151947
    17  H    0.151949
    18  H    0.155160
    19  H    0.155161
    20  H    0.160244
    21  C   -0.298126
    22  C   -0.299552
    23  C   -0.475654
    24  H    0.149459
    25  H    0.149351
    26  H    0.151831
    27  H    0.151852
    28  H    0.155108
    29  H    0.155101
    30  H    0.160115
    31  C   -0.298346
    32  C   -0.299374
    33  C   -0.483112
    34  H    0.149268
    35  H    0.149422
    36  H    0.151232
    37  H    0.151353
    38  H    0.154153
    39  H    0.153485
    40  H    0.172547
 Sum of Mulliken charges =  -0.00000

 Dipole moment (field-independent basis, Debye):
    X=              0.0477    Y=              0.0046    Z=             -0.0017  Tot=              0.0480
 Quadrupole moment (field-independent basis, Debye-Ang):
   XX=            -87.4198   YY=            -84.9686   ZZ=            -82.6854
   XY=              0.2611   XZ=             -0.1616   YZ=             -0.2332

 Normal termination of Gaussian 16 at Wed May  5 18:11:44 2021.
