 Gaussian 16, Revision A.03,
 Gaussian 16:  EM64L-G16RevA.03 25-Dec-2016

 -------------
 #p 6-31g* mp2
 -------------

 ------------------------------------------------------
 Input file generated by CHIRIPA (05-May-2021 14:55:24)
 ------------------------------------------------------
 Symbolic Z-matrix:
 Charge =  0 Multiplicity = 1

                         Standard orientation:
 ---------------------------------------------------------------------
 Center     Atomic      Atomic             Coordinates (Angstroms)
 Number     Number       Type             X           Y           Z
 ---------------------------------------------------------------------
      1          6           0       -2.499527   -2.273206    1.239851
      2          6           0       -3.084560   -2.112363   -0.020461
      3          6           0       -2.986501   -0.893650   -0.698450
      4          6           0       -2.292944    0.147798   -0.083913
      5          6           0       -1.699282    0.018554    1.170739
      6          6           0       -1.809971   -1.209111    1.830388
      7          1           0       -2.580608   -3.223409    1.759406
      8          1           0       -3.620683   -2.937021   -0.481500
      9          1           0       -3.429902   -0.741770   -1.675049
     10          1           0       -1.171217    0.858874    1.604820
     11          1           0       -1.354630   -1.331156    2.809068
     12          7           0       -2.182448    1.442733   -0.791961
     13          8           0       -1.566047    2.344832   -0.229019
     14          8           0       -2.714335    1.531084   -1.896465
     15          6           0        2.898419   -0.486230   -0.546628
     16          6           0        3.644911   -1.751673   -0.123086
     17          6           0        3.515757   -2.883498   -1.142932
     18          1           0        1.837108   -0.727146   -0.696706
     19          1           0        3.283248   -0.150159   -1.519438
     20          1           0        3.259746   -2.084474    0.849287
     21          1           0        4.704533   -1.507675    0.026187
     22          1           0        3.917894   -2.575305   -2.113449
     23          1           0        2.464898   -3.155381   -1.285673
     24          1           0        4.056899   -3.778406   -0.820183
     25          6           0        3.018139    0.654226    0.462706
     26          6           0        2.271647    1.919668    0.039163
     27          6           0        2.400801    3.051494    1.059009
     28          1           0        2.633310    0.318155    1.435515
     29          1           0        4.079450    0.895141    0.612783
     30          1           0        1.212025    1.675671   -0.110110
     31          1           0        2.656812    2.252469   -0.933210
     32          1           0        3.451660    3.323376    1.201750
     33          1           0        1.998664    2.743301    2.029526
     34          1           0        1.859659    3.946401    0.736260
 ---------------------------------------------------------------------

 SCF Done:  E(RHF) =  -669.536245029     A.U. after   15 cycles
 E2 =    -0.2092088835D+01 EUMP2 =    -0.67162833386337D+03

 The electronic state is 1-A.
 Alpha  occ. eigenvalues --  -20.60973 -20.60967 -15.85987 -11.31324 -11.27887
 Alpha  occ. eigenvalues --  -11.27875 -11.27613 -11.26892 -11.26881 -11.21597
 Alpha  occ. eigenvalues --  -11.21239 -11.21127 -11.21115 -11.20942 -11.20508
 Alpha  occ. eigenvalues --   -1.60024  -1.39581  -1.19489  -1.08890  -1.08201
 Alpha  occ. eigenvalues --   -1.04884  -1.03246  -0.95741  -0.95711  -0.86745
 Alpha  occ. eigenvalues --   -0.86283  -0.82563  -0.79328  -0.77991  -0.77607
 Alpha  occ. eigenvalues --   -0.72213  -0.71334  -0.70591  -0.65146  -0.64917
 Alpha  occ. eigenvalues --   -0.64812  -0.62233  -0.60649  -0.59096  -0.57296
 Alpha  occ. eigenvalues --   -0.55384  -0.55038  -0.53213  -0.52973  -0.52393
 Alpha  occ. eigenvalues --   -0.52145  -0.49703  -0.48989  -0.48969  -0.47642
 Alpha  occ. eigenvalues --   -0.46408  -0.45634  -0.45510  -0.44722  -0.43508
 Alpha  occ. eigenvalues --   -0.37464  -0.36482
 Alpha virt. eigenvalues --    0.04881   0.11105   0.16355   0.20861   0.22873
 Alpha virt. eigenvalues --    0.24163   0.26522   0.27413   0.27701   0.27976
 Alpha virt. eigenvalues --    0.28720   0.30591   0.31523   0.31957   0.32319

 Mulliken charges:
               1
     1  C   -0.170647
     2  C   -0.218501
     3  C   -0.170812
     4  C    0.158383
     5  C   -0.172335
     6  C   -0.218718
     7  H    0.226232
     8  H    0.224058
     9  H    0.276011
    10  H    0.277004
    11  H    0.224111
    12  N    0.487980
    13  O   -0.458475
    14  O   -0.458242
    15  C   -0.297916
    16  C   -0.298540
    17  C   -0.475435
    18  H    0.148009
    19  H    0.151513
    20  H    0.147901
    21  H    0.152424
    22  H    0.156631
    23  H    0.153503
    24  H    0.158791
    25  C   -0.297167
    26  C   -0.306696
    27  C   -0.473650
    28  H    0.141484
    29  H    0.148699
    30  H    0.163616
    31  H    0.152919
    32  H    0.151361
    33  H    0.147011
    34  H    0.169493
 Sum of Mulliken charges =  -0.00000

 Dipole moment (field-independent basis, Debye):
    X=             -0.5729    Y=             -4.4730    Z=              2.3865  Tot=              5.1021
 Quadrupole moment (field-independent basis, Debye-Ang):
   XX=            -91.7507   YY=            -96.4660   ZZ=            -92.8246
   XY=             12.1076   XZ=             -4.0597   YZ=              1.3950

 Normal termination of Gaussian 16 at Thu May  6 01:36:50 2021.
