 Gaussian 16, Revision A.03,
 Gaussian 16:  EM64L-G16RevA.03 25-Dec-2016

 -------------
 #p 6-31g* mp2
 -------------

 ------------------------------------------------------
 Input file generated by CHIRIPA (05-May-2021 14:57:27)
 ------------------------------------------------------
 Symbolic Z-matrix:
 Charge =  0 Multiplicity = 1

                         Standard orientation:
 ---------------------------------------------------------------------
 Center     Atomic      Atomic             Coordinates (Angstroms)
 Number     Number       Type             X           Y           Z
 ---------------------------------------------------------------------
      1          6           0       -1.925149    1.570137    0.279926
      2          6           0       -1.811206    0.245902    0.715746
      3          6           0       -2.895858   -0.630448    0.615309
      4          6           0       -4.084905   -0.146932    0.071554
      5          6           0       -4.229588    1.166884   -0.371442
      6          6           0       -3.131849    2.025599   -0.261323
      7          1           0       -1.077482    2.244057    0.361709
      8          1           0       -0.875289   -0.110565    1.136503
      9          1           0       -2.835141   -1.660526    0.944962
     10          1           0       -5.175439    1.493255   -0.786492
     11          1           0       -3.223221    3.053504   -0.600598
     12          7           0       -5.240105   -1.065349   -0.039900
     13          8           0       -6.276780   -0.614910   -0.522648
     14          8           0       -5.087002   -2.218254    0.357602
     15          6           0        2.284805    1.938363   -0.107110
     16          6           0        1.840111    0.657783   -0.451904
     17          6           0        2.723195   -0.426040   -0.445844
     18          6           0        4.050135   -0.192258   -0.088261
     19          6           0        4.523438    1.071800    0.260208
     20          6           0        3.622691    2.140928    0.247221
     21          1           0        1.591943    2.774595   -0.114508
     22          1           0        0.801649    0.497513   -0.727503
     23          1           0        2.405614   -1.427848   -0.708411
     24          1           0        5.564505    1.200416    0.530500
     25          1           0        3.970843    3.134351    0.515450
     26          7           0        4.994366   -1.331873   -0.078179
     27          8           0        6.158442   -1.099611    0.240600
     28          8           0        4.552501   -2.435789   -0.389247
 ---------------------------------------------------------------------

 SCF Done:  E(RHF) =  -868.336247662     A.U. after   16 cycles
 E2 =    -0.2601458849D+01 EUMP2 =    -0.87093770651150D+03

 The electronic state is 1-A.
 Alpha  occ. eigenvalues --  -20.61360 -20.61355 -20.61353 -20.61348 -15.86418
 Alpha  occ. eigenvalues --  -15.86412 -11.31989 -11.31968 -11.28567 -11.28562
 Alpha  occ. eigenvalues --  -11.28554 -11.28533 -11.28479 -11.28443 -11.27660
 Alpha  occ. eigenvalues --  -11.27650 -11.27619 -11.27607  -1.60431  -1.60423
 Alpha  occ. eigenvalues --   -1.39979  -1.39971  -1.20201  -1.20163  -1.09616
 Alpha  occ. eigenvalues --   -1.09522  -1.05642  -1.05561  -0.96405  -0.96322
 Alpha  occ. eigenvalues --   -0.87128  -0.86892  -0.83214  -0.83140  -0.78238
 Alpha  occ. eigenvalues --   -0.78102  -0.72642  -0.72622  -0.71757  -0.71748
 Alpha  occ. eigenvalues --   -0.71562  -0.71158  -0.65999  -0.65824  -0.65793
 Alpha  occ. eigenvalues --   -0.65310  -0.63069  -0.62754  -0.56389  -0.55989
 Alpha  occ. eigenvalues --   -0.54071  -0.53938  -0.53722  -0.53488  -0.49419
 Alpha  occ. eigenvalues --   -0.49392  -0.49377  -0.49367  -0.45343  -0.45328
 Alpha  occ. eigenvalues --   -0.38252  -0.38176  -0.37252  -0.37131
 Alpha virt. eigenvalues --    0.04325   0.04348   0.10128   0.10467   0.15661
 Alpha virt. eigenvalues --    0.15777   0.18432   0.22018   0.24576   0.26145
 Alpha virt. eigenvalues --    0.27393   0.29346   0.29718   0.31461   0.32177

 Mulliken charges:
               1
     1  C   -0.176854
     2  C   -0.226754
     3  C   -0.170188
     4  C    0.159660
     5  C   -0.169619
     6  C   -0.218042
     7  H    0.220458
     8  H    0.228151
     9  H    0.279471
    10  H    0.278545
    11  H    0.225180
    12  N    0.487845
    13  O   -0.458145
    14  O   -0.457508
    15  C   -0.175633
    16  C   -0.229316
    17  C   -0.172427
    18  C    0.159877
    19  C   -0.169711
    20  C   -0.217299
    21  H    0.219686
    22  H    0.228538
    23  H    0.278340
    24  H    0.278442
    25  H    0.225753
    26  N    0.487872
    27  O   -0.458101
    28  O   -0.458220
 Sum of Mulliken charges =  -0.00000

 Dipole moment (field-independent basis, Debye):
    X=              0.6906    Y=              7.1000    Z=              0.3618  Tot=              7.1427
 Quadrupole moment (field-independent basis, Debye-Ang):
   XX=           -159.1722   YY=           -103.3557   ZZ=           -105.0281
   XY=              3.4456   XZ=              1.3328   YZ=             -0.9019

 Normal termination of Gaussian 16 at Thu May  6 19:49:57 2021.
