 Gaussian 16, Revision A.03,
 Gaussian 16:  EM64L-G16RevA.03 25-Dec-2016

 -------------
 #p 6-31g* mp2
 -------------

 ------------------------------------------------------
 Input file generated by CHIRIPA (05-May-2021 14:55:25)
 ------------------------------------------------------
 Symbolic Z-matrix:
 Charge =  0 Multiplicity = 1

                         Standard orientation:
 ---------------------------------------------------------------------
 Center     Atomic      Atomic             Coordinates (Angstroms)
 Number     Number       Type             X           Y           Z
 ---------------------------------------------------------------------
      1          6           0       -5.186919    0.446783   -0.528515
      2          6           0       -4.279917    1.410149   -0.074870
      3          6           0       -2.982976    1.044537    0.297714
      4          6           0       -2.625018   -0.299453    0.203660
      5          6           0       -3.505883   -1.282596   -0.244442
      6          6           0       -4.797694   -0.894151   -0.611707
      7          1           0       -6.192422    0.739668   -0.815881
      8          1           0       -4.579435    2.452274   -0.009230
      9          1           0       -2.260684    1.769768    0.652330
     10          1           0       -3.178230   -2.313657   -0.298991
     11          1           0       -5.499975   -1.644470   -0.963655
     12          7           0       -1.254720   -0.698596    0.595282
     13          8           0       -0.963908   -1.889223    0.503231
     14          8           0       -0.497438    0.186740    0.986871
     15          6           0        4.138771   -0.264231   -0.015845
     16          6           0        3.644902   -1.642603   -0.456486
     17          6           0        4.635419   -2.759223   -0.125080
     18          1           0        5.103401   -0.055826   -0.498550
     19          1           0        4.327574   -0.278848    1.066530
     20          1           0        3.455768   -1.624991   -1.537473
     21          1           0        2.681244   -1.847669    0.027176
     22          1           0        4.816811   -2.805674    0.953595
     23          1           0        5.595736   -2.581731   -0.619944
     24          1           0        4.262379   -3.735923   -0.448742
     25          6           0        3.159428    0.862424   -0.340291
     26          6           0        3.653298    2.240796    0.100350
     27          6           0        2.662780    3.357416   -0.231056
     28          1           0        2.970625    0.877042   -1.422665
     29          1           0        2.194799    0.654019    0.142415
     30          1           0        4.616955    2.445862   -0.383311
     31          1           0        3.842432    2.223184    1.181337
     32          1           0        1.702464    3.179924    0.263808
     33          1           0        2.481388    3.403868   -1.309731
     34          1           0        3.035821    4.334116    0.092607
 ---------------------------------------------------------------------

 SCF Done:  E(RHF) =  -669.536837216     A.U. after   15 cycles
 E2 =    -0.2091402014D+01 EUMP2 =    -0.67162823923034D+03

 The electronic state is 1-A.
 Alpha  occ. eigenvalues --  -20.61092 -20.61086 -15.86100 -11.31363 -11.27917
 Alpha  occ. eigenvalues --  -11.27914 -11.27646 -11.26911 -11.26901 -11.20531
 Alpha  occ. eigenvalues --  -11.20215 -11.20210 -11.20094 -11.19968 -11.19864
 Alpha  occ. eigenvalues --   -1.60133  -1.39692  -1.19524  -1.08940  -1.07145
 Alpha  occ. eigenvalues --   -1.04911  -1.02374  -0.95792  -0.94842  -0.86314
 Alpha  occ. eigenvalues --   -0.85871  -0.82629  -0.78428  -0.77688  -0.76929
 Alpha  occ. eigenvalues --   -0.72323  -0.71435  -0.70633  -0.65182  -0.64915
 Alpha  occ. eigenvalues --   -0.63759  -0.62259  -0.59770  -0.58216  -0.56449
 Alpha  occ. eigenvalues --   -0.55420  -0.54131  -0.53245  -0.53002  -0.51592
 Alpha  occ. eigenvalues --   -0.51284  -0.49134  -0.49081  -0.48761  -0.46762
 Alpha  occ. eigenvalues --   -0.45472  -0.45122  -0.44511  -0.44211  -0.42586
 Alpha  occ. eigenvalues --   -0.37499  -0.36508
 Alpha virt. eigenvalues --    0.04814   0.11148   0.16307   0.21242   0.24141
 Alpha virt. eigenvalues --    0.25326   0.27147   0.27672   0.28173   0.28945
 Alpha virt. eigenvalues --    0.29241   0.30875   0.31947   0.32617   0.32965

 Mulliken charges:
               1
     1  C   -0.170380
     2  C   -0.218574
     3  C   -0.170418
     4  C    0.157952
     5  C   -0.170441
     6  C   -0.218623
     7  H    0.226288
     8  H    0.224214
     9  H    0.275817
    10  H    0.276006
    11  H    0.224063
    12  N    0.490319
    13  O   -0.458783
    14  O   -0.461445
    15  C   -0.296217
    16  C   -0.304170
    17  C   -0.474763
    18  H    0.142868
    19  H    0.148406
    20  H    0.146572
    21  H    0.170254
    22  H    0.154032
    23  H    0.150241
    24  H    0.158012
    25  C   -0.312562
    26  C   -0.297278
    27  C   -0.475968
    28  H    0.141928
    29  H    0.180378
    30  H    0.146785
    31  H    0.151053
    32  H    0.158507
    33  H    0.151031
    34  H    0.154895
 Sum of Mulliken charges =  -0.00000

 Dipole moment (field-independent basis, Debye):
    X=             -5.2721    Y=              1.2872    Z=             -1.2589  Tot=              5.5711
 Quadrupole moment (field-independent basis, Debye-Ang):
   XX=            -71.4037   YY=            -92.6208   ZZ=            -95.3016
   XY=             -0.7539   XZ=              2.9935   YZ=              2.0178

 Normal termination of Gaussian 16 at Thu May  6 06:23:14 2021.
