 Gaussian 16, Revision A.03,
 Gaussian 16:  EM64L-G16RevA.03 25-Dec-2016

 -------------
 #p 6-31g* mp2
 -------------

 ------------------------------------------------------
 Input file generated by CHIRIPA (05-May-2021 14:51:13)
 ------------------------------------------------------
 Symbolic Z-matrix:
 Charge =  0 Multiplicity = 1

                         Standard orientation:
 ---------------------------------------------------------------------
 Center     Atomic      Atomic             Coordinates (Angstroms)
 Number     Number       Type             X           Y           Z
 ---------------------------------------------------------------------
      1          6           0        2.563978    0.105606   -0.485009
      2          6           0        3.688531    1.141624   -0.479412
      3          6           0        3.602829    2.113485   -1.656670
      4          1           0        2.595913   -0.455765   -1.428825
      5          1           0        1.596042    0.625231   -0.462994
      6          1           0        4.654077    0.620172   -0.500034
      7          1           0        3.654034    1.700465    0.464581
      8          1           0        2.654183    2.659643   -1.637073
      9          1           0        3.659908    1.573212   -2.607169
     10          1           0        4.416224    2.845394   -1.633082
     11          6           0        2.636062   -0.873074    0.685767
     12          6           0        1.511508   -1.909092    0.680170
     13          6           0        1.597211   -2.880952    1.857428
     14          1           0        3.603998   -1.392698    0.663752
     15          1           0        2.604127   -0.311703    1.629583
     16          1           0        1.546006   -2.467932   -0.263823
     17          1           0        0.545963   -1.387639    0.700792
     18          1           0        1.540132   -2.340679    2.807927
     19          1           0        2.545857   -3.427110    1.837831
     20          1           0        0.783816   -3.612862    1.833840
     21          6           0       -2.884292    1.018168    0.216029
     22          6           0       -1.809120    1.953875    0.769603
     23          6           0       -2.393424    3.218693    1.399379
     24          1           0       -3.482579    1.558403   -0.530392
     25          1           0       -3.572157    0.741039    1.026854
     26          1           0       -1.122685    2.228053   -0.041721
     27          1           0       -1.213202    1.411291    1.514654
     28          1           0       -3.062891    2.963005    2.227049
     29          1           0       -2.971861    3.784408    0.661830
     30          1           0       -1.607405    3.873309    1.788625
     31          6           0       -2.315747   -0.250701   -0.416787
     32          6           0       -3.390920   -1.186406   -0.970362
     33          6           0       -2.806616   -2.451226   -1.600136
     34          1           0       -1.627883    0.026429   -1.227613
     35          1           0       -1.717460   -0.790936    0.329634
     36          1           0       -3.986839   -0.643824   -1.715413
     37          1           0       -4.077355   -1.460586   -0.159036
     38          1           0       -2.228179   -3.016940   -0.862588
     39          1           0       -2.137148   -2.195538   -2.427807
     40          1           0       -3.592635   -3.105842   -1.989382
 ---------------------------------------------------------------------

 SCF Done:  E(RHF) =  -470.733330604     A.U. after   11 cycles
 E2 =    -0.1583625332D+01 EUMP2 =    -0.47231695593651D+03

 The electronic state is 1-A.
 Alpha  occ. eigenvalues --  -11.21695 -11.21623 -11.21572 -11.21519 -11.21447
 Alpha  occ. eigenvalues --  -11.21380 -11.21357 -11.21297 -11.21137 -11.21070
 Alpha  occ. eigenvalues --  -11.21061 -11.21060  -1.08488  -1.08382  -1.03575
 Alpha  occ. eigenvalues --   -1.03497  -0.96019  -0.95952  -0.87037  -0.86965
 Alpha  occ. eigenvalues --   -0.79665  -0.79543  -0.78414  -0.78083  -0.65152
 Alpha  occ. eigenvalues --   -0.64987  -0.60978  -0.60897  -0.59407  -0.59303
 Alpha  occ. eigenvalues --   -0.57632  -0.57561  -0.55322  -0.55225  -0.52718
 Alpha  occ. eigenvalues --   -0.52648  -0.52461  -0.52363  -0.49988  -0.49876
 Alpha  occ. eigenvalues --   -0.48054  -0.47822  -0.46768  -0.46639  -0.46186
 Alpha  occ. eigenvalues --   -0.45718  -0.45702  -0.45154  -0.43827  -0.43746
 Alpha virt. eigenvalues --    0.20648   0.22841   0.23600   0.24531   0.24882
 Alpha virt. eigenvalues --    0.26292   0.27026   0.27465   0.28286   0.30236
 Alpha virt. eigenvalues --    0.30944   0.31296   0.31675   0.31889   0.32227

 Mulliken charges:
               1
     1  C   -0.300973
     2  C   -0.299515
     3  C   -0.475609
     4  H    0.149269
     5  H    0.152579
     6  H    0.151835
     7  H    0.151925
     8  H    0.154748
     9  H    0.155036
    10  H    0.160200
    11  C   -0.297395
    12  C   -0.308404
    13  C   -0.475354
    14  H    0.149237
    15  H    0.149130
    16  H    0.152032
    17  H    0.160351
    18  H    0.154594
    19  H    0.155350
    20  H    0.159372
    21  C   -0.297723
    22  C   -0.301432
    23  C   -0.475712
    24  H    0.149962
    25  H    0.149628
    26  H    0.152490
    27  H    0.151609
    28  H    0.155523
    29  H    0.155599
    30  H    0.160342
    31  C   -0.305555
    32  C   -0.299185
    33  C   -0.475893
    34  H    0.150671
    35  H    0.156217
    36  H    0.152002
    37  H    0.151774
    38  H    0.155625
    39  H    0.155482
    40  H    0.160168
 Sum of Mulliken charges =  -0.00000

 Dipole moment (field-independent basis, Debye):
    X=             -0.0442    Y=              0.0099    Z=             -0.0108  Tot=              0.0465
 Quadrupole moment (field-independent basis, Debye-Ang):
   XX=            -84.5504   YY=            -85.7317   ZZ=            -84.5336
   XY=             -0.1499   XZ=             -0.2032   YZ=              0.1216

 Normal termination of Gaussian 16 at Wed May  5 18:23:05 2021.
