 Gaussian 16, Revision A.03,
 Gaussian 16:  EM64L-G16RevA.03 25-Dec-2016

 -------------
 #p 6-31g* mp2
 -------------

 ------------------------------------------------------
 Input file generated by CHIRIPA (05-May-2021 14:53:14)
 ------------------------------------------------------
 Symbolic Z-matrix:
 Charge =  0 Multiplicity = 1

                         Standard orientation:
 ---------------------------------------------------------------------
 Center     Atomic      Atomic             Coordinates (Angstroms)
 Number     Number       Type             X           Y           Z
 ---------------------------------------------------------------------
      1          6           0        3.996023   -0.453922    0.328181
      2          6           0        4.571988   -1.240125   -0.850010
      3          6           0        5.202561   -2.566281   -0.424004
      4          1           0        4.793864   -0.264119    1.059187
      5          1           0        3.244149   -1.071058    0.839282
      6          1           0        5.321558   -0.621167   -1.359570
      7          1           0        3.772726   -1.427912   -1.578387
      8          1           0        4.460915   -3.205883    0.065356
      9          1           0        6.018548   -2.394554    0.285416
     10          1           0        5.607960   -3.111931   -1.281778
     11          6           0        3.362150    0.874201   -0.081725
     12          6           0        2.786186    1.660405    1.096466
     13          6           0        2.155612    2.986561    0.670460
     14          1           0        4.114024    1.491338   -0.592826
     15          1           0        2.564310    0.684399   -0.812731
     16          1           0        3.585448    1.848191    1.824843
     17          1           0        2.036615    1.041447    1.606026
     18          1           0        1.339625    2.814834   -0.038960
     19          1           0        2.897258    3.626162    0.181100
     20          1           0        1.750213    3.532211    1.528234
     21          6           0       -3.551916   -2.508482    0.544782
     22          6           0       -4.529337   -1.530872    0.331596
     23          6           0       -4.165421   -0.228683   -0.023952
     24          6           0       -2.808775    0.062468   -0.158246
     25          6           0       -1.811481   -0.889581    0.047414
     26          6           0       -2.198493   -2.185286    0.402261
     27          1           0       -3.843586   -3.517536    0.820709
     28          1           0       -5.581181   -1.779017    0.441568
     29          1           0       -4.901402    0.547534   -0.194943
     30          1           0       -0.770939   -0.612145   -0.069719
     31          1           0       -1.437245   -2.942479    0.567201
     32          7           0       -2.411288    1.437605   -0.534279
     33          8           0       -1.209338    1.668719   -0.646255
     34          8           0       -3.309215    2.258285   -0.709918
 ---------------------------------------------------------------------

 SCF Done:  E(RHF) =  -669.536098939     A.U. after   15 cycles
 E2 =    -0.2091155753D+01 EUMP2 =    -0.67162725469226D+03

 The electronic state is 1-A.
 Alpha  occ. eigenvalues --  -20.60944 -20.60936 -15.85988 -11.31303 -11.27870
 Alpha  occ. eigenvalues --  -11.27861 -11.27601 -11.26873 -11.26863 -11.21529
 Alpha  occ. eigenvalues --  -11.21226 -11.21099 -11.20983 -11.20914 -11.19889
 Alpha  occ. eigenvalues --   -1.60006  -1.39563  -1.19471  -1.08875  -1.08102
 Alpha  occ. eigenvalues --   -1.04868  -1.03099  -0.95722  -0.95523  -0.86539
 Alpha  occ. eigenvalues --   -0.86267  -0.82555  -0.79207  -0.77875  -0.77604
 Alpha  occ. eigenvalues --   -0.72218  -0.71321  -0.70580  -0.65132  -0.64874
 Alpha  occ. eigenvalues --   -0.64739  -0.62216  -0.60487  -0.58964  -0.57134
 Alpha  occ. eigenvalues --   -0.55370  -0.54800  -0.53198  -0.52960  -0.52210
 Alpha  occ. eigenvalues --   -0.51941  -0.49479  -0.48964  -0.48930  -0.47492
 Alpha  occ. eigenvalues --   -0.46257  -0.45413  -0.45314  -0.44956  -0.43376
 Alpha  occ. eigenvalues --   -0.37448  -0.36469
 Alpha virt. eigenvalues --    0.04920   0.11184   0.16415   0.20533   0.22743
 Alpha virt. eigenvalues --    0.24414   0.26276   0.27459   0.27777   0.28534
 Alpha virt. eigenvalues --    0.28897   0.30833   0.31625   0.32075   0.32435

 Mulliken charges:
               1
     1  C   -0.296699
     2  C   -0.299217
     3  C   -0.474935
     4  H    0.149852
     5  H    0.142222
     6  H    0.153609
     7  H    0.150175
     8  H    0.151423
     9  H    0.155810
    10  H    0.159931
    11  C   -0.300055
    12  C   -0.296914
    13  C   -0.485706
    14  H    0.150053
    15  H    0.152742
    16  H    0.147918
    17  H    0.146110
    18  H    0.184221
    19  H    0.149631
    20  H    0.157260
    21  C   -0.170561
    22  C   -0.218578
    23  C   -0.170523
    24  C    0.157790
    25  C   -0.171301
    26  C   -0.218559
    27  H    0.226088
    28  H    0.223881
    29  H    0.275926
    30  H    0.275642
    31  H    0.223908
    32  N    0.494457
    33  O   -0.466903
    34  O   -0.458699
 Sum of Mulliken charges =  -0.00000

 Dipole moment (field-independent basis, Debye):
    X=             -1.6118    Y=             -4.7529    Z=              1.2321  Tot=              5.1678
 Quadrupole moment (field-independent basis, Debye-Ang):
   XX=            -81.9562   YY=            -96.3241   ZZ=            -96.2606
   XY=             13.2163   XZ=             -3.6376   YZ=              0.7509

 Normal termination of Gaussian 16 at Wed May  5 15:35:27 2021.
