 Gaussian 16, Revision A.03,
 Gaussian 16:  EM64L-G16RevA.03 25-Dec-2016

 -------------
 #p 6-31g* mp2
 -------------

 ------------------------------------------------------
 Input file generated by CHIRIPA (05-May-2021 14:57:20)
 ------------------------------------------------------
 Symbolic Z-matrix:
 Charge =  0 Multiplicity = 1

                         Standard orientation:
 ---------------------------------------------------------------------
 Center     Atomic      Atomic             Coordinates (Angstroms)
 Number     Number       Type             X           Y           Z
 ---------------------------------------------------------------------
      1          6           0        3.368740   -1.600636    0.696737
      2          6           0        3.702014   -0.980301   -0.511830
      3          6           0        3.110038    0.233394   -0.873850
      4          6           0        2.184659    0.801329    0.000457
      5          6           0        1.831849    0.207779    1.211454
      6          6           0        2.436365   -1.005665    1.553012
      7          1           0        3.833472   -2.543365    0.970015
      8          1           0        4.425778   -1.440065   -1.178784
      9          1           0        3.349728    0.735258   -1.803419
     10          1           0        1.106887    0.690312    1.855666
     11          1           0        2.175621   -1.485158    2.492237
     12          7           0        1.551322    2.086080   -0.371966
     13          8           0        0.738998    2.565986    0.415724
     14          8           0        1.879231    2.588836   -1.444510
     15          6           0       -3.818108    1.295428    0.627073
     16          6           0       -3.872962    0.790261   -0.676123
     17          6           0       -3.030476   -0.254021   -1.068857
     18          6           0       -2.141215   -0.771822   -0.128438
     19          6           0       -2.062827   -0.289993    1.177313
     20          6           0       -2.914808    0.754642    1.548007
     21          1           0       -4.476260    2.106788    0.923597
     22          1           0       -4.573485    1.208300   -1.393448
     23          1           0       -3.051997   -0.664057   -2.071266
     24          1           0       -1.354064   -0.727178    1.870091
     25          1           0       -2.870013    1.144975    2.560766
     26          7           0       -1.244287   -1.877544   -0.532542
     27          8           0       -0.469668   -2.316452    0.314785
     28          8           0       -1.332876   -2.284362   -1.688953
 ---------------------------------------------------------------------

 SCF Done:  E(RHF) =  -868.338191875     A.U. after   16 cycles
 E2 =    -0.2602233020D+01 EUMP2 =    -0.87094042489483D+03

 The electronic state is 1-A.
 Alpha  occ. eigenvalues --  -20.60807 -20.60785 -20.60477 -20.60464 -15.85821
 Alpha  occ. eigenvalues --  -15.85512 -11.30990 -11.30600 -11.27601 -11.27494
 Alpha  occ. eigenvalues --  -11.27181 -11.27164 -11.27096 -11.26739 -11.26507
 Alpha  occ. eigenvalues --  -11.26462 -11.26071 -11.26057  -1.59864  -1.59551
 Alpha  occ. eigenvalues --   -1.39429  -1.39114  -1.19121  -1.18714  -1.08549
 Alpha  occ. eigenvalues --   -1.08152  -1.04511  -1.04091  -0.95434  -0.95052
 Alpha  occ. eigenvalues --   -0.85928  -0.85508  -0.82292  -0.81907  -0.77393
 Alpha  occ. eigenvalues --   -0.76992  -0.72077  -0.71747  -0.71201  -0.70850
 Alpha  occ. eigenvalues --   -0.70269  -0.69834  -0.64794  -0.64540  -0.64380
 Alpha  occ. eigenvalues --   -0.64117  -0.61935  -0.61453  -0.55006  -0.54587
 Alpha  occ. eigenvalues --   -0.52808  -0.52640  -0.52380  -0.52199  -0.48849
 Alpha  occ. eigenvalues --   -0.48791  -0.48515  -0.48471  -0.44878  -0.44571
 Alpha  occ. eigenvalues --   -0.37083  -0.36591  -0.36077  -0.35544
 Alpha virt. eigenvalues --    0.04994   0.05683   0.11331   0.12230   0.16631
 Alpha virt. eigenvalues --    0.17169   0.20902   0.22360   0.26236   0.27988
 Alpha virt. eigenvalues --    0.28603   0.29713   0.31165   0.31690   0.32566

 Mulliken charges:
               1
     1  C   -0.165231
     2  C   -0.215753
     3  C   -0.170884
     4  C    0.155003
     5  C   -0.171282
     6  C   -0.198916
     7  H    0.225771
     8  H    0.222542
     9  H    0.273316
    10  H    0.263770
    11  H    0.220513
    12  N    0.488252
    13  O   -0.466557
    14  O   -0.461429
    15  C   -0.166914
    16  C   -0.216003
    17  C   -0.169794
    18  C    0.158113
    19  C   -0.169198
    20  C   -0.210869
    21  H    0.226895
    22  H    0.224159
    23  H    0.274992
    24  H    0.264471
    25  H    0.222583
    26  N    0.488981
    27  O   -0.466096
    28  O   -0.460436
 Sum of Mulliken charges =  -0.00000

 Dipole moment (field-independent basis, Debye):
    X=             -0.9940    Y=             -0.7370    Z=              2.6747  Tot=              2.9470
 Quadrupole moment (field-independent basis, Debye-Ang):
   XX=            -79.7000   YY=           -119.6268   ZZ=            -97.7807
   XY=            -15.3804   XZ=             -0.1717   YZ=             -0.7323

 Normal termination of Gaussian 16 at Thu May  6 04:52:38 2021.
