 Gaussian 16, Revision A.03,
 Gaussian 16:  EM64L-G16RevA.03 25-Dec-2016

 -------------
 #p 6-31g* mp2
 -------------

 ------------------------------------------------------
 Input file generated by CHIRIPA (05-May-2021 14:51:11)
 ------------------------------------------------------
 Symbolic Z-matrix:
 Charge =  0 Multiplicity = 1

                         Standard orientation:
 ---------------------------------------------------------------------
 Center     Atomic      Atomic             Coordinates (Angstroms)
 Number     Number       Type             X           Y           Z
 ---------------------------------------------------------------------
      1          6           0        3.962308   -0.217609    0.089111
      2          6           0        4.816883   -1.274797   -0.610917
      3          6           0        5.603708   -2.143767    0.370709
      4          1           0        4.610853    0.419136    0.706274
      5          1           0        3.266494   -0.716052    0.778163
      6          1           0        5.509930   -0.774595   -1.299467
      7          1           0        4.166253   -1.908979   -1.226636
      8          1           0        4.924642   -2.668867    1.050224
      9          1           0        6.275954   -1.528037    0.976980
     10          1           0        6.207681   -2.892670   -0.151039
     11          6           0        3.169777    0.658990   -0.878978
     12          6           0        2.315202    1.716177   -0.178949
     13          6           0        1.528377    2.585148   -1.160576
     14          1           0        3.865591    1.157433   -1.568030
     15          1           0        2.521231    0.022245   -1.496141
     16          1           0        2.965832    2.350360    0.436769
     17          1           0        1.622155    1.215976    0.509600
     18          1           0        0.856131    1.969418   -1.766846
     19          1           0        2.207443    3.110247   -1.840091
     20          1           0        0.924404    3.334051   -0.638828
     21          6           0       -2.821691   -0.185936    0.562761
     22          6           0       -2.538028    0.414692    1.939993
     23          6           0       -1.044503    0.477518    2.261292
     24          1           0       -2.392032   -1.195899    0.514673
     25          1           0       -2.305752    0.410008   -0.202779
     26          1           0       -3.055476   -0.181394    2.702584
     27          1           0       -2.968577    1.423269    1.984873
     28          1           0       -0.516854    1.089061    1.522238
     29          1           0       -0.604246   -0.524718    2.244026
     30          1           0       -0.864485    0.910151    3.250373
     31          6           0       -4.310393   -0.255444    0.227106
     32          6           0       -4.594058   -0.856072   -1.150126
     33          6           0       -6.087582   -0.918898   -1.471426
     34          1           0       -4.826332   -0.851389    0.992646
     35          1           0       -4.740052    0.754519    0.275193
     36          1           0       -4.163507   -1.864649   -1.195006
     37          1           0       -4.076609   -0.259987   -1.912717
     38          1           0       -6.527839    0.083337   -1.454159
     39          1           0       -6.615230   -1.530442   -0.732371
     40          1           0       -6.267599   -1.351532   -2.460506
 ---------------------------------------------------------------------

 SCF Done:  E(RHF) =  -470.733308792     A.U. after   11 cycles
 E2 =    -0.1582603721D+01 EUMP2 =    -0.47231591251296D+03

 The electronic state is 1-A.
 Alpha  occ. eigenvalues --  -11.21630 -11.21619 -11.21575 -11.21536 -11.21430
 Alpha  occ. eigenvalues --  -11.21370 -11.21368 -11.21309 -11.21098 -11.21086
 Alpha  occ. eigenvalues --  -11.21083 -11.21051  -1.08456  -1.08397  -1.03564
 Alpha  occ. eigenvalues --   -1.03500  -0.96013  -0.95956  -0.87031  -0.86971
 Alpha  occ. eigenvalues --   -0.79664  -0.79529  -0.78280  -0.78195  -0.65114
 Alpha  occ. eigenvalues --   -0.65008  -0.61057  -0.60824  -0.59378  -0.59326
 Alpha  occ. eigenvalues --   -0.57660  -0.57532  -0.55348  -0.55196  -0.52700
 Alpha  occ. eigenvalues --   -0.52660  -0.52450  -0.52379  -0.50019  -0.49847
 Alpha  occ. eigenvalues --   -0.48062  -0.47798  -0.46754  -0.46475  -0.45877
 Alpha  occ. eigenvalues --   -0.45755  -0.45722  -0.45524  -0.43809  -0.43759
 Alpha virt. eigenvalues --    0.21459   0.23087   0.23604   0.24877   0.26050
 Alpha virt. eigenvalues --    0.26526   0.27062   0.27470   0.28115   0.28966
 Alpha virt. eigenvalues --    0.30693   0.31435   0.31669   0.31756   0.32147

 Mulliken charges:
               1
     1  C   -0.298447
     2  C   -0.299650
     3  C   -0.475672
     4  H    0.149600
     5  H    0.150046
     6  H    0.151829
     7  H    0.151864
     8  H    0.155139
     9  H    0.155168
    10  H    0.160129
    11  C   -0.297618
    12  C   -0.307588
    13  C   -0.476210
    14  H    0.149210
    15  H    0.149566
    16  H    0.151874
    17  H    0.160004
    18  H    0.154790
    19  H    0.155572
    20  H    0.159700
    21  C   -0.298545
    22  C   -0.299363
    23  C   -0.482047
    24  H    0.149329
    25  H    0.149672
    26  H    0.152018
    27  H    0.152142
    28  H    0.161901
    29  H    0.154450
    30  H    0.160824
    31  C   -0.298291
    32  C   -0.299697
    33  C   -0.475723
    34  H    0.149592
    35  H    0.149829
    36  H    0.151832
    37  H    0.151994
    38  H    0.155277
    39  H    0.155198
    40  H    0.160303
 Sum of Mulliken charges =  -0.00000

 Dipole moment (field-independent basis, Debye):
    X=             -0.0155    Y=              0.0024    Z=              0.0152  Tot=              0.0218
 Quadrupole moment (field-independent basis, Debye-Ang):
   XX=            -85.6829   YY=            -84.0110   ZZ=            -85.1083
   XY=              0.8896   XZ=             -0.7907   YZ=             -0.0255

 Normal termination of Gaussian 16 at Wed May  5 21:27:12 2021.
