 Gaussian 16, Revision A.03,
 Gaussian 16:  EM64L-G16RevA.03 25-Dec-2016

 -------------
 #p 6-31g* mp2
 -------------

 ------------------------------------------------------
 Input file generated by CHIRIPA (05-May-2021 14:53:12)
 ------------------------------------------------------
 Symbolic Z-matrix:
 Charge =  0 Multiplicity = 1

                         Standard orientation:
 ---------------------------------------------------------------------
 Center     Atomic      Atomic             Coordinates (Angstroms)
 Number     Number       Type             X           Y           Z
 ---------------------------------------------------------------------
      1          6           0        3.545011   -0.379556   -0.125081
      2          6           0        4.604804   -1.388853    0.317803
      3          6           0        4.193398   -2.836008    0.045259
      4          1           0        2.601009   -0.597634    0.392845
      5          1           0        3.350043   -0.510343   -1.198523
      6          1           0        4.798719   -1.255274    1.389796
      7          1           0        5.546445   -1.168229   -0.201093
      8          1           0        4.019125   -2.992060   -1.024263
      9          1           0        3.267151   -3.079600    0.575665
     10          1           0        4.965441   -3.540732    0.369564
     11          6           0        3.941780    1.071516    0.140798
     12          6           0        2.881988    2.080812   -0.302086
     13          6           0        3.293394    3.527968   -0.029542
     14          1           0        4.136748    1.202303    1.214239
     15          1           0        4.885782    1.289594   -0.377128
     16          1           0        1.940347    1.860188    0.216810
     17          1           0        2.688073    1.947234   -1.374080
     18          1           0        4.219640    3.771560   -0.559949
     19          1           0        3.467666    3.684020    1.039980
     20          1           0        2.521350    4.232691   -0.353848
     21          6           0       -1.163618   -2.071368   -0.151953
     22          6           0       -2.518164   -2.418178   -0.113887
     23          6           0       -3.502439   -1.428619   -0.033118
     24          6           0       -3.094766   -0.096176    0.007957
     25          6           0       -1.753275    0.281151   -0.028293
     26          6           0       -0.786162   -0.725184   -0.109110
     27          1           0       -0.405676   -2.846597   -0.214714
     28          1           0       -2.814225   -3.462829   -0.147009
     29          1           0       -4.558210   -1.669056   -0.002169
     30          1           0       -1.488947    1.331080    0.006294
     31          1           0        0.265050   -0.452907   -0.138518
     32          7           0       -4.127689    0.960306    0.093489
     33          8           0       -3.742525    2.126955    0.128352
     34          8           0       -5.302901    0.601723    0.124048
 ---------------------------------------------------------------------

 SCF Done:  E(RHF) =  -669.535663243     A.U. after   15 cycles
 E2 =    -0.2091627837D+01 EUMP2 =    -0.67162729108002D+03

 The electronic state is 1-A.
 Alpha  occ. eigenvalues --  -20.60706 -20.60701 -15.85758 -11.31107 -11.27676
 Alpha  occ. eigenvalues --  -11.27658 -11.27402 -11.26691 -11.26617 -11.22524
 Alpha  occ. eigenvalues --  -11.22466 -11.22462 -11.22218 -11.22012 -11.21636
 Alpha  occ. eigenvalues --   -1.59782  -1.39336  -1.19273  -1.09356  -1.08671
 Alpha  occ. eigenvalues --   -1.04672  -1.04369  -0.96815  -0.95510  -0.87826
 Alpha  occ. eigenvalues --   -0.86074  -0.82344  -0.80449  -0.79218  -0.77386
 Alpha  occ. eigenvalues --   -0.71977  -0.71105  -0.70383  -0.66008  -0.64923
 Alpha  occ. eigenvalues --   -0.64660  -0.62026  -0.61756  -0.60182  -0.58433
 Alpha  occ. eigenvalues --   -0.56106  -0.55172  -0.53475  -0.53259  -0.53006
 Alpha  occ. eigenvalues --   -0.52753  -0.50748  -0.48771  -0.48734  -0.48730
 Alpha  occ. eigenvalues --   -0.47487  -0.46696  -0.46624  -0.44745  -0.44644
 Alpha  occ. eigenvalues --   -0.37256  -0.36276
 Alpha virt. eigenvalues --    0.05137   0.11353   0.16625   0.19200   0.22677
 Alpha virt. eigenvalues --    0.22861   0.24705   0.26013   0.26694   0.27413
 Alpha virt. eigenvalues --    0.29892   0.30669   0.30899   0.31321   0.31910

 Mulliken charges:
               1
     1  C   -0.305036
     2  C   -0.299248
     3  C   -0.476448
     4  H    0.143454
     5  H    0.150585
     6  H    0.155121
     7  H    0.156119
     8  H    0.155579
     9  H    0.149674
    10  H    0.164770
    11  C   -0.298215
    12  C   -0.302330
    13  C   -0.476387
    14  H    0.152660
    15  H    0.153836
    16  H    0.145326
    17  H    0.153521
    18  H    0.157557
    19  H    0.157553
    20  H    0.164375
    21  C   -0.173894
    22  C   -0.218442
    23  C   -0.171440
    24  C    0.159086
    25  C   -0.173634
    26  C   -0.228654
    27  H    0.226012
    28  H    0.223065
    29  H    0.275251
    30  H    0.275751
    31  H    0.237807
    32  N    0.487999
    33  O   -0.460612
    34  O   -0.460766
 Sum of Mulliken charges =  -0.00000

 Dipole moment (field-independent basis, Debye):
    X=              3.9406    Y=             -3.6354    Z=             -0.3104  Tot=              5.3704
 Quadrupole moment (field-independent basis, Debye-Ang):
   XX=           -113.6816   YY=            -92.6342   ZZ=            -94.8101
   XY=             14.1895   XZ=              0.5759   YZ=             -0.1873

 Normal termination of Gaussian 16 at Wed May  5 15:29:41 2021.
