 Gaussian 16, Revision A.03,
 Gaussian 16:  EM64L-G16RevA.03 25-Dec-2016

 -------------
 #p 6-31g* mp2
 -------------

 ------------------------------------------------------
 Input file generated by CHIRIPA (05-May-2021 14:51:10)
 ------------------------------------------------------
 Symbolic Z-matrix:
 Charge =  0 Multiplicity = 1

                         Standard orientation:
 ---------------------------------------------------------------------
 Center     Atomic      Atomic             Coordinates (Angstroms)
 Number     Number       Type             X           Y           Z
 ---------------------------------------------------------------------
      1          6           0       -3.801562   -0.580561    0.196072
      2          6           0       -4.535997    0.460774   -0.649038
      3          6           0       -6.056476    0.354965   -0.527621
      4          1           0       -4.126071   -1.585182   -0.107861
      5          1           0       -4.095431   -0.462136    1.248219
      6          1           0       -4.239776    0.341318   -1.699086
      7          1           0       -4.209561    1.463027   -0.343189
      8          1           0       -6.370679    0.495801    0.511630
      9          1           0       -6.401066   -0.632282   -0.851970
     10          1           0       -6.561521    1.108607   -1.139841
     11          6           0       -2.280781   -0.487507    0.085201
     12          6           0       -1.546346   -1.528842    0.930311
     13          6           0       -0.025867   -1.423033    0.808894
     14          1           0       -1.986912   -0.605932   -0.966946
     15          1           0       -1.956273    0.517114    0.389134
     16          1           0       -1.872783   -2.531095    0.624462
     17          1           0       -1.842567   -1.409386    1.980359
     18          1           0        0.318723   -0.435787    1.133243
     19          1           0        0.288335   -1.563869   -0.230357
     20          1           0        0.479178   -2.176675    1.421114
     21          6           0        3.377113   -0.095793    0.131197
     22          6           0        3.667487   -1.141264   -0.946141
     23          6           0        4.339637   -2.395527   -0.386825
     24          1           0        4.317321    0.180738    0.627669
     25          1           0        2.735865   -0.543289    0.903170
     26          1           0        4.306862   -0.691516   -1.716557
     27          1           0        2.726505   -1.415197   -1.440235
     28          1           0        3.703148   -2.870063    0.367030
     29          1           0        5.292485   -2.142270    0.089138
     30          1           0        4.538138   -3.129573   -1.173994
     31          6           0        2.705230    1.163861   -0.412470
     32          6           0        2.414857    2.209332    0.664868
     33          6           0        1.742707    3.463596    0.105553
     34          1           0        3.346479    1.611358   -1.184443
     35          1           0        1.765022    0.887331   -0.908942
     36          1           0        3.355839    2.483265    1.158962
     37          1           0        1.775481    1.759585    1.435284
     38          1           0        0.789857    3.210338   -0.370411
     39          1           0        2.379195    3.938131   -0.648303
     40          1           0        1.544205    4.197642    0.892721
 ---------------------------------------------------------------------

 SCF Done:  E(RHF) =  -470.732349721     A.U. after   11 cycles
 E2 =    -0.1584499842D+01 EUMP2 =    -0.47231684956357D+03

 The electronic state is 1-A.
 Alpha  occ. eigenvalues --  -11.21682 -11.21643 -11.21578 -11.21498 -11.21480
 Alpha  occ. eigenvalues --  -11.21414 -11.21275 -11.21187 -11.21168 -11.21102
 Alpha  occ. eigenvalues --  -11.21055 -11.20994  -1.08512  -1.08328  -1.03607
 Alpha  occ. eigenvalues --   -1.03462  -0.96092  -0.95880  -0.87103  -0.86914
 Alpha  occ. eigenvalues --   -0.79695  -0.79525  -0.78320  -0.78142  -0.65154
 Alpha  occ. eigenvalues --   -0.64982  -0.61101  -0.60792  -0.59433  -0.59266
 Alpha  occ. eigenvalues --   -0.57668  -0.57519  -0.55434  -0.55139  -0.52772
 Alpha  occ. eigenvalues --   -0.52614  -0.52467  -0.52308  -0.50051  -0.49816
 Alpha  occ. eigenvalues --   -0.47993  -0.47850  -0.46758  -0.46563  -0.45965
 Alpha  occ. eigenvalues --   -0.45814  -0.45561  -0.45435  -0.43828  -0.43696
 Alpha virt. eigenvalues --    0.20404   0.22773   0.23362   0.24672   0.25790
 Alpha virt. eigenvalues --    0.26104   0.27102   0.27721   0.27782   0.29681
 Alpha virt. eigenvalues --    0.30212   0.30430   0.31707   0.32226   0.32548

 Mulliken charges:
               1
     1  C   -0.298274
     2  C   -0.299756
     3  C   -0.475761
     4  H    0.149889
     5  H    0.149762
     6  H    0.152000
     7  H    0.152104
     8  H    0.155275
     9  H    0.155242
    10  H    0.160461
    11  C   -0.298790
    12  C   -0.300666
    13  C   -0.482679
    14  H    0.149359
    15  H    0.149501
    16  H    0.152260
    17  H    0.152246
    18  H    0.160464
    19  H    0.158265
    20  H    0.160273
    21  C   -0.302972
    22  C   -0.300694
    23  C   -0.475926
    24  H    0.148638
    25  H    0.158422
    26  H    0.151266
    27  H    0.152548
    28  H    0.155381
    29  H    0.154921
    30  H    0.159611
    31  C   -0.300170
    32  C   -0.302197
    33  C   -0.475775
    34  H    0.149378
    35  H    0.151517
    36  H    0.152245
    37  H    0.152171
    38  H    0.155196
    39  H    0.155431
    40  H    0.159833
 Sum of Mulliken charges =  -0.00000

 Dipole moment (field-independent basis, Debye):
    X=             -0.0523    Y=             -0.0197    Z=              0.0160  Tot=              0.0582
 Quadrupole moment (field-independent basis, Debye-Ang):
   XX=            -85.5774   YY=            -85.1906   ZZ=            -84.2125
   XY=              0.9328   XZ=             -0.2212   YZ=              0.6718

 Normal termination of Gaussian 16 at Wed May  5 19:49:27 2021.
