 Gaussian 16, Revision A.03,
 Gaussian 16:  EM64L-G16RevA.03 25-Dec-2016

 -------------
 #p 6-31g* mp2
 -------------

 ------------------------------------------------------
 Input file generated by CHIRIPA (05-May-2021 14:55:24)
 ------------------------------------------------------
 Symbolic Z-matrix:
 Charge =  0 Multiplicity = 1

                         Standard orientation:
 ---------------------------------------------------------------------
 Center     Atomic      Atomic             Coordinates (Angstroms)
 Number     Number       Type             X           Y           Z
 ---------------------------------------------------------------------
      1          6           0        0.319218   -1.545142    0.871458
      2          6           0        1.046855   -2.056859   -0.207992
      3          6           0        2.234246   -1.443493   -0.618397
      4          6           0        2.666747   -0.314995    0.076387
      5          6           0        1.964085    0.218658    1.155633
      6          6           0        0.779344   -0.411016    1.548631
      7          1           0       -0.602147   -2.027953    1.183509
      8          1           0        0.691913   -2.937501   -0.735753
      9          1           0        2.817236   -1.818632   -1.450751
     10          1           0        2.343183    1.097948    1.662142
     11          1           0        0.216315   -0.011407    2.387294
     12          7           0        3.922382    0.342980   -0.348877
     13          8           0        4.282076    1.335988    0.279767
     14          8           0        4.523078   -0.146766   -1.302789
     15          6           0       -2.613688    1.056099   -0.005668
     16          6           0       -2.966808    2.478536   -0.441516
     17          6           0       -1.887074    3.495643   -0.070755
     18          1           0       -2.452096    1.041814    1.080901
     19          1           0       -1.660104    0.764680   -0.467346
     20          1           0       -3.920133    2.766675    0.019745
     21          1           0       -3.127766    2.489398   -1.527145
     22          1           0       -0.934240    3.235381   -0.542954
     23          1           0       -1.731110    3.514233    1.012725
     24          1           0       -2.159970    4.505811   -0.391612
     25          6           0       -3.683407    0.027901   -0.369311
     26          6           0       -3.330288   -1.394537    0.066539
     27          6           0       -4.410021   -2.411643   -0.304222
     28          1           0       -4.636992    0.319320    0.092369
     29          1           0       -3.844999    0.042185   -1.455877
     30          1           0       -3.169330   -1.405399    1.152167
     31          1           0       -2.376961   -1.682676   -0.394723
     32          1           0       -4.565985   -2.430234   -1.387703
     33          1           0       -5.362855   -2.151381    0.167977
     34          1           0       -4.137126   -3.421811    0.016634
 ---------------------------------------------------------------------

 SCF Done:  E(RHF) =  -669.534659703     A.U. after   15 cycles
 E2 =    -0.2093408929D+01 EUMP2 =    -0.67162806863233D+03

 The electronic state is 1-A.
 Alpha  occ. eigenvalues --  -20.60741 -20.60735 -15.85796 -11.31148 -11.27737
 Alpha  occ. eigenvalues --  -11.27722 -11.27382 -11.26730 -11.26703 -11.22671
 Alpha  occ. eigenvalues --  -11.22147 -11.22069 -11.21971 -11.21963 -11.21438
 Alpha  occ. eigenvalues --   -1.59818  -1.39371  -1.19329  -1.09174  -1.08706
 Alpha  occ. eigenvalues --   -1.04731  -1.04243  -0.96649  -0.95555  -0.87672
 Alpha  occ. eigenvalues --   -0.86124  -0.82401  -0.80372  -0.78975  -0.77437
 Alpha  occ. eigenvalues --   -0.72013  -0.71143  -0.70417  -0.65790  -0.64973
 Alpha  occ. eigenvalues --   -0.64733  -0.62080  -0.61632  -0.60072  -0.58283
 Alpha  occ. eigenvalues --   -0.55917  -0.55242  -0.53382  -0.53128  -0.52987
 Alpha  occ. eigenvalues --   -0.52812  -0.50593  -0.48793  -0.48769  -0.48596
 Alpha  occ. eigenvalues --   -0.47402  -0.46492  -0.46368  -0.44780  -0.44477
 Alpha  occ. eigenvalues --   -0.37217  -0.36332
 Alpha virt. eigenvalues --    0.05074   0.11214   0.16501   0.20334   0.22616
 Alpha virt. eigenvalues --    0.23459   0.24878   0.26485   0.27159   0.27830
 Alpha virt. eigenvalues --    0.29158   0.29838   0.30979   0.31426   0.31832

 Mulliken charges:
               1
     1  C   -0.169690
     2  C   -0.222634
     3  C   -0.170726
     4  C    0.157682
     5  C   -0.171713
     6  C   -0.218420
     7  H    0.233066
     8  H    0.223219
     9  H    0.275361
    10  H    0.275632
    11  H    0.223324
    12  N    0.488105
    13  O   -0.460489
    14  O   -0.460748
    15  C   -0.301562
    16  C   -0.300249
    17  C   -0.476136
    18  H    0.141955
    19  H    0.157310
    20  H    0.152160
    21  H    0.154042
    22  H    0.158583
    23  H    0.152065
    24  H    0.163038
    25  C   -0.297441
    26  C   -0.305805
    27  C   -0.475450
    28  H    0.151625
    29  H    0.152989
    30  H    0.144963
    31  H    0.150226
    32  H    0.158698
    33  H    0.158829
    34  H    0.158192
 Sum of Mulliken charges =  -0.00000

 Dipole moment (field-independent basis, Debye):
    X=             -4.5338    Y=             -2.2449    Z=              1.4166  Tot=              5.2538
 Quadrupole moment (field-independent basis, Debye-Ang):
   XX=           -119.0943   YY=            -91.9735   ZZ=            -91.4999
   XY=             -5.9424   XZ=              2.9812   YZ=              2.0983

 Normal termination of Gaussian 16 at Thu May  6 12:40:47 2021.
