 Gaussian 16, Revision A.03,
 Gaussian 16:  EM64L-G16RevA.03 25-Dec-2016

 -------------
 #p 6-31g* mp2
 -------------

 ------------------------------------------------------
 Input file generated by CHIRIPA (05-May-2021 14:51:13)
 ------------------------------------------------------
 Symbolic Z-matrix:
 Charge =  0 Multiplicity = 1

                         Standard orientation:
 ---------------------------------------------------------------------
 Center     Atomic      Atomic             Coordinates (Angstroms)
 Number     Number       Type             X           Y           Z
 ---------------------------------------------------------------------
      1          6           0       -2.663648   -1.113059    0.514697
      2          6           0       -1.186519   -0.821334    0.781103
      3          6           0       -0.454460   -2.006018    1.412297
      4          1           0       -3.152899   -1.387115    1.459404
      5          1           0       -2.744235   -1.988488   -0.144487
      6          1           0       -1.108708    0.054125    1.438472
      7          1           0       -0.700771   -0.547754   -0.164316
      8          1           0       -0.502410   -2.881882    0.757191
      9          1           0       -0.912665   -2.276583    2.369086
     10          1           0        0.599931   -1.775711    1.594173
     11          6           0       -3.408994    0.061757   -0.116173
     12          6           0       -4.886122   -0.229968   -0.382579
     13          6           0       -5.618182    0.954716   -1.013773
     14          1           0       -3.328406    0.937187    0.543011
     15          1           0       -2.919743    0.335813   -1.060880
     16          1           0       -5.371871   -0.503548    0.562841
     17          1           0       -4.963934   -1.105427   -1.039947
     18          1           0       -5.159977    1.225282   -1.970561
     19          1           0       -5.570232    1.830580   -0.358666
     20          1           0       -6.672573    0.724409   -1.195648
     21          6           0        2.922196   -0.191211   -0.436994
     22          6           0        4.197423   -1.034713   -0.453897
     23          6           0        3.952928   -2.466374   -0.931766
     24          1           0        2.179274   -0.674211    0.212408
     25          1           0        2.489654   -0.172819   -1.446926
     26          1           0        4.628181   -1.050368    0.555470
     27          1           0        4.937464   -0.549549   -1.103182
     28          1           0        3.544951   -2.469016   -1.947713
     29          1           0        3.233911   -2.972679   -0.279638
     30          1           0        4.877753   -3.051645   -0.936036
     31          6           0        3.150445    1.242513    0.038469
     32          6           0        1.875218    2.086015    0.055372
     33          6           0        2.119714    3.517676    0.533242
     34          1           0        3.582988    1.224120    1.048402
     35          1           0        3.893367    1.725513   -0.610933
     36          1           0        1.135178    1.600851    0.704658
     37          1           0        1.444460    2.101670   -0.953994
     38          1           0        2.838731    4.023981   -0.118886
     39          1           0        2.527691    3.520317    1.549189
     40          1           0        1.194890    4.102947    0.537512
 ---------------------------------------------------------------------

 SCF Done:  E(RHF) =  -470.732992330     A.U. after   11 cycles
 E2 =    -0.1583793368D+01 EUMP2 =    -0.47231678569823D+03

 The electronic state is 1-A.
 Alpha  occ. eigenvalues --  -11.21608 -11.21606 -11.21583 -11.21538 -11.21414
 Alpha  occ. eigenvalues --  -11.21367 -11.21354 -11.21306 -11.21121 -11.21075
 Alpha  occ. eigenvalues --  -11.21052 -11.21041  -1.08458  -1.08388  -1.03552
 Alpha  occ. eigenvalues --   -1.03499  -0.96017  -0.95942  -0.87034  -0.86955
 Alpha  occ. eigenvalues --   -0.79667  -0.79511  -0.78345  -0.78127  -0.65086
 Alpha  occ. eigenvalues --   -0.65046  -0.60981  -0.60866  -0.59394  -0.59319
 Alpha  occ. eigenvalues --   -0.57699  -0.57497  -0.55299  -0.55230  -0.52742
 Alpha  occ. eigenvalues --   -0.52636  -0.52492  -0.52306  -0.49942  -0.49894
 Alpha  occ. eigenvalues --   -0.48086  -0.47746  -0.46671  -0.46564  -0.45948
 Alpha  occ. eigenvalues --   -0.45744  -0.45651  -0.45491  -0.43789  -0.43752
 Alpha virt. eigenvalues --    0.20751   0.23104   0.23855   0.24161   0.25813
 Alpha virt. eigenvalues --    0.26221   0.26801   0.27813   0.28011   0.29667
 Alpha virt. eigenvalues --    0.30123   0.31225   0.31680   0.31969   0.32579

 Mulliken charges:
               1
     1  C   -0.298343
     2  C   -0.303047
     3  C   -0.479864
     4  H    0.149527
     5  H    0.149675
     6  H    0.152212
     7  H    0.156204
     8  H    0.155917
     9  H    0.155570
    10  H    0.161898
    11  C   -0.298247
    12  C   -0.299675
    13  C   -0.475700
    14  H    0.149485
    15  H    0.149874
    16  H    0.151920
    17  H    0.151949
    18  H    0.155187
    19  H    0.155185
    20  H    0.160267
    21  C   -0.307949
    22  C   -0.299134
    23  C   -0.476209
    24  H    0.160041
    25  H    0.148791
    26  H    0.151558
    27  H    0.151912
    28  H    0.154905
    29  H    0.155781
    30  H    0.160185
    31  C   -0.297594
    32  C   -0.303976
    33  C   -0.475689
    34  H    0.148916
    35  H    0.149461
    36  H    0.157743
    37  H    0.151282
    38  H    0.155011
    39  H    0.154850
    40  H    0.160124
 Sum of Mulliken charges =  -0.00000

 Dipole moment (field-independent basis, Debye):
    X=             -0.0311    Y=             -0.0127    Z=              0.0001  Tot=              0.0336
 Quadrupole moment (field-independent basis, Debye-Ang):
   XX=            -85.2811   YY=            -86.3676   ZZ=            -83.2939
   XY=              0.4316   XZ=             -0.6811   YZ=              0.0603

 Normal termination of Gaussian 16 at Wed May  5 15:21:26 2021.
