 Gaussian 16, Revision A.03,
 Gaussian 16:  EM64L-G16RevA.03 25-Dec-2016

 -------------
 #p 6-31g* mp2
 -------------

 ------------------------------------------------------
 Input file generated by CHIRIPA (05-May-2021 14:55:24)
 ------------------------------------------------------
 Symbolic Z-matrix:
 Charge =  0 Multiplicity = 1

                         Standard orientation:
 ---------------------------------------------------------------------
 Center     Atomic      Atomic             Coordinates (Angstroms)
 Number     Number       Type             X           Y           Z
 ---------------------------------------------------------------------
      1          6           0        5.266112   -0.585363   -0.821128
      2          6           0        4.499008   -1.652324   -0.341892
      3          6           0        3.231389   -1.427008    0.203014
      4          6           0        2.759779   -0.116152    0.253312
      5          6           0        3.500122    0.967814   -0.215942
      6          6           0        4.765104    0.719001   -0.756737
      7          1           0        6.249805   -0.769520   -1.242828
      8          1           0        4.885548   -2.666354   -0.390618
      9          1           0        2.616397   -2.234548    0.581276
     10          1           0        3.087943    1.967651   -0.153865
     11          1           0        5.358633    1.549552   -1.128158
     12          7           0        1.419203    0.134818    0.828004
     13          8           0        1.026388    1.298970    0.860917
     14          8           0        0.786659   -0.837376    1.234654
     15          6           0       -3.741959    0.903774   -0.494598
     16          6           0       -2.758098    1.781955    0.279224
     17          6           0       -2.622133    3.183634   -0.316262
     18          1           0       -3.413040    0.829196   -1.540158
     19          1           0       -4.725530    1.393397   -0.510512
     20          1           0       -1.777021    1.290163    0.294858
     21          1           0       -3.089293    1.854295    1.323107
     22          1           0       -3.588974    3.697266   -0.317151
     23          1           0       -2.269247    3.129929   -1.351244
     24          1           0       -1.914004    3.794442    0.252356
     25          6           0       -3.888689   -0.500537    0.088592
     26          6           0       -4.872550   -1.378718   -0.685230
     27          6           0       -5.008515   -2.780397   -0.089745
     28          1           0       -2.905119   -0.990159    0.104506
     29          1           0       -4.217608   -0.425959    1.134152
     30          1           0       -4.541355   -1.451057   -1.729114
     31          1           0       -5.853627   -0.886926   -0.700863
     32          1           0       -5.361401   -2.726692    0.945239
     33          1           0       -4.041673   -3.294028   -0.088854
     34          1           0       -5.716644   -3.391205   -0.658362
 ---------------------------------------------------------------------

 SCF Done:  E(RHF) =  -669.536577258     A.U. after   15 cycles
 E2 =    -0.2091361741D+01 EUMP2 =    -0.67162793899935D+03

 The electronic state is 1-A.
 Alpha  occ. eigenvalues --  -20.61077 -20.61062 -15.86080 -11.31369 -11.27924
 Alpha  occ. eigenvalues --  -11.27920 -11.27655 -11.26921 -11.26911 -11.20689
 Alpha  occ. eigenvalues --  -11.20290 -11.20168 -11.20098 -11.19854 -11.19736
 Alpha  occ. eigenvalues --   -1.60118  -1.39674  -1.19531  -1.08942  -1.07197
 Alpha  occ. eigenvalues --   -1.04920  -1.02319  -0.95788  -0.94824  -0.86322
 Alpha  occ. eigenvalues --   -0.85853  -0.82623  -0.78391  -0.77682  -0.76943
 Alpha  occ. eigenvalues --   -0.72289  -0.71429  -0.70638  -0.65185  -0.64922
 Alpha  occ. eigenvalues --   -0.63837  -0.62266  -0.59726  -0.58202  -0.56395
 Alpha  occ. eigenvalues --   -0.55425  -0.54138  -0.53254  -0.53010  -0.51543
 Alpha  occ. eigenvalues --   -0.51243  -0.49141  -0.49053  -0.48768  -0.46694
 Alpha  occ. eigenvalues --   -0.45447  -0.45058  -0.44530  -0.44286  -0.42573
 Alpha  occ. eigenvalues --   -0.37507  -0.36519
 Alpha virt. eigenvalues --    0.04816   0.11137   0.16320   0.21278   0.24027
 Alpha virt. eigenvalues --    0.25465   0.27202   0.27844   0.28165   0.28830
 Alpha virt. eigenvalues --    0.29099   0.30854   0.32377   0.32528   0.32950

 Mulliken charges:
               1
     1  C   -0.170411
     2  C   -0.218611
     3  C   -0.170765
     4  C    0.158539
     5  C   -0.170680
     6  C   -0.218588
     7  H    0.226293
     8  H    0.224092
     9  H    0.275948
    10  H    0.276144
    11  H    0.224148
    12  N    0.487947
    13  O   -0.458344
    14  O   -0.459331
    15  C   -0.297646
    16  C   -0.307478
    17  C   -0.473774
    18  H    0.144173
    19  H    0.143540
    20  H    0.178587
    21  H    0.148674
    22  H    0.147842
    23  H    0.148942
    24  H    0.162225
    25  C   -0.299330
    26  C   -0.298554
    27  C   -0.474855
    28  H    0.158443
    29  H    0.148841
    30  H    0.148706
    31  H    0.149043
    32  H    0.154657
    33  H    0.155436
    34  H    0.156147
 Sum of Mulliken charges =  -0.00000

 Dipole moment (field-independent basis, Debye):
    X=              5.1681    Y=             -0.9457    Z=             -1.8957  Tot=              5.5855
 Quadrupole moment (field-independent basis, Debye-Ang):
   XX=            -70.0950   YY=            -91.3433   ZZ=            -96.3732
   XY=             -2.7111   XZ=             -5.5588   YZ=             -0.3220

 Normal termination of Gaussian 16 at Thu May  6 11:02:32 2021.
