 Gaussian 16, Revision A.03,
 Gaussian 16:  EM64L-G16RevA.03 25-Dec-2016

 -------------
 #p 6-31g* mp2
 -------------

 ------------------------------------------------------
 Input file generated by CHIRIPA (05-May-2021 14:55:20)
 ------------------------------------------------------
 Symbolic Z-matrix:
 Charge =  0 Multiplicity = 1

                         Standard orientation:
 ---------------------------------------------------------------------
 Center     Atomic      Atomic             Coordinates (Angstroms)
 Number     Number       Type             X           Y           Z
 ---------------------------------------------------------------------
      1          6           0       -1.349497   -2.176080    1.099497
      2          6           0       -0.813283   -0.900640    0.893949
      3          6           0       -1.573283    0.098314    0.278287
      4          6           0       -2.871800   -0.214174   -0.121080
      5          6           0       -3.434198   -1.475354    0.069771
      6          6           0       -2.655940   -2.458867    0.687479
      7          1           0       -0.752019   -2.946094    1.578553
      8          1           0        0.201029   -0.678181    1.212898
      9          1           0       -1.183007    1.094163    0.106856
     10          1           0       -4.448359   -1.667154   -0.259027
     11          1           0       -3.074974   -3.448505    0.845821
     12          7           0       -3.686042    0.835201   -0.773936
     13          8           0       -4.827467    0.534606   -1.116615
     14          8           0       -3.167403    1.938426   -0.930605
     15          6           0        3.887625    0.204455   -0.575742
     16          6           0        4.774465   -0.983213   -0.200317
     17          6           0        5.535226   -1.554564   -1.397229
     18          1           0        3.173948   -0.109242   -1.349827
     19          1           0        4.510308    0.990588   -1.024804
     20          1           0        4.150502   -1.766316    0.249166
     21          1           0        5.485987   -0.666703    0.573099
     22          1           0        6.181271   -0.791359   -1.843038
     23          1           0        4.838198   -1.897219   -2.168811
     24          1           0        6.162928   -2.402621   -1.106283
     25          6           0        3.120639    0.786582    0.610254
     26          6           0        2.233798    1.974249    0.234829
     27          6           0        1.473038    2.545601    1.431740
     28          1           0        2.497956    0.000449    1.059314
     29          1           0        3.834315    1.100279    1.384338
     30          1           0        1.522276    1.657740   -0.538588
     31          1           0        2.857761    2.757353   -0.214655
     32          1           0        2.170066    2.888256    2.203322
     33          1           0        0.826993    1.782395    1.877549
     34          1           0        0.845334    3.393658    1.140795
 ---------------------------------------------------------------------

 SCF Done:  E(RHF) =  -669.535105864     A.U. after   15 cycles
 E2 =    -0.2092720931D+01 EUMP2 =    -0.67162782679530D+03

 The electronic state is 1-A.
 Alpha  occ. eigenvalues --  -20.60746 -20.60741 -15.85798 -11.31159 -11.27742
 Alpha  occ. eigenvalues --  -11.27708 -11.27483 -11.26755 -11.26716 -11.22387
 Alpha  occ. eigenvalues --  -11.22282 -11.22217 -11.22029 -11.21846 -11.21553
 Alpha  occ. eigenvalues --   -1.59821  -1.39374  -1.19338  -1.09185  -1.08734
 Alpha  occ. eigenvalues --   -1.04753  -1.04222  -0.96676  -0.95567  -0.87683
 Alpha  occ. eigenvalues --   -0.86142  -0.82407  -0.80283  -0.78992  -0.77455
 Alpha  occ. eigenvalues --   -0.72018  -0.71144  -0.70456  -0.65923  -0.64988
 Alpha  occ. eigenvalues --   -0.64725  -0.62323  -0.61363  -0.60027  -0.58271
 Alpha  occ. eigenvalues --   -0.55996  -0.55235  -0.53333  -0.53117  -0.53041
 Alpha  occ. eigenvalues --   -0.52841  -0.50626  -0.48784  -0.48772  -0.48578
 Alpha  occ. eigenvalues --   -0.47334  -0.46507  -0.46441  -0.44780  -0.44481
 Alpha  occ. eigenvalues --   -0.37322  -0.36337
 Alpha virt. eigenvalues --    0.05063   0.11294   0.16490   0.18553   0.22894
 Alpha virt. eigenvalues --    0.23577   0.24877   0.25977   0.27062   0.28589
 Alpha virt. eigenvalues --    0.29496   0.29932   0.31181   0.31362   0.31774

 Mulliken charges:
               1
     1  C   -0.172683
     2  C   -0.228009
     3  C   -0.178153
     4  C    0.159077
     5  C   -0.170552
     6  C   -0.218746
     7  H    0.225924
     8  H    0.234645
     9  H    0.282030
    10  H    0.275534
    11  H    0.223363
    12  N    0.488118
    13  O   -0.460628
    14  O   -0.460430
    15  C   -0.298990
    16  C   -0.299411
    17  C   -0.476225
    18  H    0.151616
    19  H    0.153455
    20  H    0.148083
    21  H    0.153328
    22  H    0.157227
    23  H    0.156258
    24  H    0.161296
    25  C   -0.301470
    26  C   -0.305618
    27  C   -0.482216
    28  H    0.139939
    29  H    0.154062
    30  H    0.152426
    31  H    0.159242
    32  H    0.160178
    33  H    0.147516
    34  H    0.169811
 Sum of Mulliken charges =  -0.00000

 Dipole moment (field-independent basis, Debye):
    X=              3.0545    Y=             -3.5689    Z=              2.2331  Tot=              5.2014
 Quadrupole moment (field-independent basis, Debye-Ang):
   XX=           -107.6271   YY=            -90.8070   ZZ=            -96.6687
   XY=             14.0755   XZ=             -6.1799   YZ=              0.0303

 Normal termination of Gaussian 16 at Wed May  5 15:53:49 2021.
