 Gaussian 16, Revision A.03,
 Gaussian 16:  EM64L-G16RevA.03 25-Dec-2016

 -------------
 #p 6-31g* mp2
 -------------

 ------------------------------------------------------
 Input file generated by CHIRIPA (05-May-2021 14:51:14)
 ------------------------------------------------------
 Symbolic Z-matrix:
 Charge =  0 Multiplicity = 1

                         Standard orientation:
 ---------------------------------------------------------------------
 Center     Atomic      Atomic             Coordinates (Angstroms)
 Number     Number       Type             X           Y           Z
 ---------------------------------------------------------------------
      1          6           0        4.112864   -0.186500   -0.331136
      2          6           0        5.423069    0.506228    0.044996
      3          6           0        6.483418    0.400940   -1.051530
      4          1           0        4.314054   -1.244482   -0.548257
      5          1           0        3.726201    0.255169   -1.260015
      6          1           0        5.806433    0.064327    0.973636
      7          1           0        5.218707    1.562641    0.261433
      8          1           0        6.125193    0.859086   -1.979096
      9          1           0        6.716258   -0.647741   -1.262846
     10          1           0        7.411832    0.902865   -0.761741
     11          6           0        3.042972   -0.089887    0.755015
     12          6           0        1.732766   -0.782615    0.378883
     13          6           0        0.672418   -0.677326    1.475410
     14          1           0        3.429635   -0.531555    1.683894
     15          1           0        2.841782    0.968095    0.972136
     16          1           0        1.937129   -1.839027    0.162447
     17          1           0        1.349403   -0.340713   -0.549756
     18          1           0        0.439577    0.371355    1.686726
     19          1           0        1.030643   -1.135473    2.402975
     20          1           0       -0.255996   -1.179252    1.185621
     21          6           0       -3.201283    0.797108   -0.125863
     22          6           0       -4.112116    2.024845   -0.157993
     23          6           0       -3.344009    3.335460    0.015481
     24          1           0       -2.653654    0.779542    0.826364
     25          1           0       -2.446300    0.888454   -0.918990
     26          1           0       -4.866012    1.930552    0.634072
     27          1           0       -4.657784    2.039386   -1.110176
     28          1           0       -2.603217    3.456224   -0.781541
     29          1           0       -2.812628    3.346772    0.972616
     30          1           0       -4.014421    4.200172   -0.010598
     31          6           0       -3.954553   -0.520722   -0.298016
     32          6           0       -3.043719   -1.748458   -0.265887
     33          6           0       -3.811827   -3.059073   -0.439360
     34          1           0       -4.709536   -0.612068    0.495111
     35          1           0       -4.502182   -0.503157   -1.250244
     36          1           0       -2.498052   -1.763000    0.686296
     37          1           0       -2.289824   -1.654166   -1.057951
     38          1           0       -4.343208   -3.070385   -1.396495
     39          1           0       -4.552618   -3.179837    0.357662
     40          1           0       -3.141415   -3.923787   -0.413282
 ---------------------------------------------------------------------

 SCF Done:  E(RHF) =  -470.733198305     A.U. after   11 cycles
 E2 =    -0.1582888149D+01 EUMP2 =    -0.47231608645365D+03

 The electronic state is 1-A.
 Alpha  occ. eigenvalues --  -11.21624 -11.21601 -11.21584 -11.21557 -11.21406
 Alpha  occ. eigenvalues --  -11.21377 -11.21341 -11.21316 -11.21089 -11.21079
 Alpha  occ. eigenvalues --  -11.21059 -11.20967  -1.08443  -1.08395  -1.03550
 Alpha  occ. eigenvalues --   -1.03487  -0.95987  -0.95942  -0.87014  -0.86955
 Alpha  occ. eigenvalues --   -0.79637  -0.79540  -0.78256  -0.78208  -0.65074
 Alpha  occ. eigenvalues --   -0.65027  -0.60954  -0.60887  -0.59482  -0.59207
 Alpha  occ. eigenvalues --   -0.57626  -0.57526  -0.55283  -0.55218  -0.52783
 Alpha  occ. eigenvalues --   -0.52590  -0.52441  -0.52324  -0.49939  -0.49875
 Alpha  occ. eigenvalues --   -0.48037  -0.47766  -0.46639  -0.46596  -0.45776
 Alpha  occ. eigenvalues --   -0.45754  -0.45733  -0.45655  -0.43808  -0.43667
 Alpha virt. eigenvalues --    0.21716   0.23130   0.23774   0.24356   0.25898
 Alpha virt. eigenvalues --    0.26457   0.26901   0.27696   0.27913   0.29315
 Alpha virt. eigenvalues --    0.30049   0.31437   0.31610   0.31891   0.31963

 Mulliken charges:
               1
     1  C   -0.298178
     2  C   -0.299614
     3  C   -0.475678
     4  H    0.149535
     5  H    0.149363
     6  H    0.151887
     7  H    0.151945
     8  H    0.155121
     9  H    0.155129
    10  H    0.160200
    11  C   -0.298503
    12  C   -0.298688
    13  C   -0.484047
    14  H    0.149381
    15  H    0.149669
    16  H    0.151559
    17  H    0.151692
    18  H    0.155021
    19  H    0.154009
    20  H    0.169147
    21  C   -0.300026
    22  C   -0.299667
    23  C   -0.475646
    24  H    0.152394
    25  H    0.149180
    26  H    0.151963
    27  H    0.151873
    28  H    0.154932
    29  H    0.155128
    30  H    0.160284
    31  C   -0.297944
    32  C   -0.305499
    33  C   -0.475075
    34  H    0.149487
    35  H    0.149648
    36  H    0.156847
    37  H    0.152337
    38  H    0.155293
    39  H    0.155258
    40  H    0.160281
 Sum of Mulliken charges =  -0.00000

 Dipole moment (field-independent basis, Debye):
    X=             -0.0358    Y=             -0.0093    Z=             -0.0019  Tot=              0.0370
 Quadrupole moment (field-independent basis, Debye-Ang):
   XX=            -85.6185   YY=            -85.0787   ZZ=            -84.1050
   XY=             -0.6978   XZ=              0.5356   YZ=             -0.5423

 Normal termination of Gaussian 16 at Wed May  5 16:54:12 2021.
