 Gaussian 16, Revision A.03,
 Gaussian 16:  EM64L-G16RevA.03 25-Dec-2016

 -------------
 #p 6-31g* mp2
 -------------

 ------------------------------------------------------
 Input file generated by CHIRIPA (05-May-2021 14:53:12)
 ------------------------------------------------------
 Symbolic Z-matrix:
 Charge =  0 Multiplicity = 1

                         Standard orientation:
 ---------------------------------------------------------------------
 Center     Atomic      Atomic             Coordinates (Angstroms)
 Number     Number       Type             X           Y           Z
 ---------------------------------------------------------------------
      1          6           0       -2.656279   -0.025405   -0.410294
      2          6           0       -3.925271   -0.841766   -0.162908
      3          6           0       -3.779884   -2.303528   -0.587066
      4          1           0       -2.398000   -0.075223   -1.476950
      5          1           0       -1.820691   -0.485147    0.135440
      6          1           0       -4.758510   -0.379828   -0.707833
      7          1           0       -4.180667   -0.789842    0.903250
      8          1           0       -2.967120   -2.785964   -0.034552
      9          1           0       -3.548246   -2.373621   -1.654789
     10          1           0       -4.698561   -2.868701   -0.401401
     11          6           0       -2.786033    1.437937    0.008659
     12          6           0       -1.517042    2.254298   -0.238726
     13          6           0       -1.662429    3.716059    0.185432
     14          1           0       -3.621622    1.897679   -0.537074
     15          1           0       -3.044313    1.487755    1.075315
     16          1           0       -1.261646    2.202373   -1.304884
     17          1           0       -0.683803    1.792360    0.306198
     18          1           0       -1.894067    3.786153    1.253154
     19          1           0       -2.475193    4.198496   -0.367082
     20          1           0       -0.743752    4.281233   -0.000233
     21          6           0        3.748521    1.238781   -0.569031
     22          6           0        2.959520    1.429250    0.570144
     23          6           0        2.057094    0.443941    0.981658
     24          6           0        1.969034   -0.724874    0.227068
     25          6           0        2.741457   -0.944151   -0.912481
     26          6           0        3.637168    0.054776   -1.305410
     27          1           0        4.446939    2.009482   -0.881486
     28          1           0        3.043881    2.347761    1.143960
     29          1           0        1.434205    0.565356    1.859545
     30          1           0        2.635059   -1.870333   -1.464103
     31          1           0        4.248652   -0.095873   -2.190529
     32          7           0        1.017231   -1.775185    0.652881
     33          8           0        0.958481   -2.795995   -0.029125
     34          8           0        0.347981   -1.557721    1.660577
 ---------------------------------------------------------------------

 SCF Done:  E(RHF) =  -669.536337189     A.U. after   15 cycles
 E2 =    -0.2093083751D+01 EUMP2 =    -0.67162942093955D+03

 The electronic state is 1-A.
 Alpha  occ. eigenvalues --  -20.61009 -20.61000 -15.86015 -11.31309 -11.27875
 Alpha  occ. eigenvalues --  -11.27861 -11.27595 -11.26872 -11.26860 -11.21418
 Alpha  occ. eigenvalues --  -11.21078 -11.20924 -11.20770 -11.20570 -11.20024
 Alpha  occ. eigenvalues --   -1.60058  -1.39616  -1.19476  -1.08883  -1.07877
 Alpha  occ. eigenvalues --   -1.04870  -1.02995  -0.95733  -0.95436  -0.86457
 Alpha  occ. eigenvalues --   -0.86268  -0.82569  -0.79107  -0.77688  -0.77587
 Alpha  occ. eigenvalues --   -0.72244  -0.71369  -0.70587  -0.65133  -0.64874
 Alpha  occ. eigenvalues --   -0.64494  -0.62221  -0.60388  -0.58877  -0.57038
 Alpha  occ. eigenvalues --   -0.55374  -0.54708  -0.53203  -0.52961  -0.52174
 Alpha  occ. eigenvalues --   -0.51852  -0.49368  -0.49016  -0.49005  -0.47401
 Alpha  occ. eigenvalues --   -0.46147  -0.45489  -0.45174  -0.44563  -0.43233
 Alpha  occ. eigenvalues --   -0.37438  -0.36433
 Alpha virt. eigenvalues --    0.04853   0.11115   0.16339   0.21114   0.23311
 Alpha virt. eigenvalues --    0.24857   0.26451   0.27415   0.27681   0.28523
 Alpha virt. eigenvalues --    0.28748   0.30992   0.31643   0.32051   0.32318

 Mulliken charges:
               1
     1  C   -0.307550
     2  C   -0.297895
     3  C   -0.479304
     4  H    0.144959
     5  H    0.164430
     6  H    0.146815
     7  H    0.152802
     8  H    0.171055
     9  H    0.151461
    10  H    0.156235
    11  C   -0.296840
    12  C   -0.301461
    13  C   -0.475290
    14  H    0.147275
    15  H    0.150426
    16  H    0.150552
    17  H    0.149067
    18  H    0.154659
    19  H    0.156295
    20  H    0.154285
    21  C   -0.170346
    22  C   -0.218403
    23  C   -0.169984
    24  C    0.159244
    25  C   -0.170536
    26  C   -0.218275
    27  H    0.226160
    28  H    0.224344
    29  H    0.275622
    30  H    0.275937
    31  H    0.223930
    32  N    0.487984
    33  O   -0.457633
    34  O   -0.460023
 Sum of Mulliken charges =  -0.00000

 Dipole moment (field-independent basis, Debye):
    X=              3.5435    Y=              3.5023    Z=             -1.4368  Tot=              5.1852
 Quadrupole moment (field-independent basis, Debye-Ang):
   XX=            -81.9927   YY=           -100.3028   ZZ=            -92.0277
   XY=              4.1715   XZ=             -3.5820   YZ=              3.9186

 Normal termination of Gaussian 16 at Wed May  5 15:28:03 2021.
