 Gaussian 16, Revision A.03,
 Gaussian 16:  EM64L-G16RevA.03 25-Dec-2016

 -------------
 #p 6-31g* mp2
 -------------

 ------------------------------------------------------
 Input file generated by CHIRIPA (05-May-2021 14:55:25)
 ------------------------------------------------------
 Symbolic Z-matrix:
 Charge =  0 Multiplicity = 1

                         Standard orientation:
 ---------------------------------------------------------------------
 Center     Atomic      Atomic             Coordinates (Angstroms)
 Number     Number       Type             X           Y           Z
 ---------------------------------------------------------------------
      1          6           0       -5.017559    0.503862   -1.104301
      2          6           0       -3.765033    0.871944   -1.606509
      3          6           0       -2.594862    0.501118   -0.937378
      4          6           0       -2.714631   -0.241014    0.236584
      5          6           0       -3.947996   -0.622956    0.762152
      6          6           0       -5.104889   -0.241100    0.076346
      7          1           0       -5.921419    0.796213   -1.630575
      8          1           0       -3.694181    1.450483   -2.523198
      9          1           0       -1.612352    0.772652   -1.303930
     10          1           0       -3.986697   -1.199763    1.678239
     11          1           0       -6.076272   -0.528365    0.468698
     12          7           0       -1.482852   -0.639430    0.953789
     13          8           0       -1.615324   -1.293173    1.986121
     14          8           0       -0.408236   -0.290421    0.470023
     15          6           0        4.165940   -0.401896   -0.080421
     16          6           0        3.646800   -1.590765   -0.889787
     17          6           0        4.520345   -2.836339   -0.737282
     18          1           0        5.192896   -0.172139   -0.395886
     19          1           0        4.220606   -0.684965    0.979898
     20          1           0        3.591819   -1.305090   -1.948079
     21          1           0        2.620892   -1.817597   -0.572492
     22          1           0        4.566193   -3.148725    0.311009
     23          1           0        5.542637   -2.633306   -1.072393
     24          1           0        4.131001   -3.674067   -1.324207
     25          6           0        3.303227    0.850793   -0.222630
     26          6           0        3.822367    2.039662    0.586736
     27          6           0        2.948822    3.285235    0.434231
     28          1           0        3.248561    1.133863   -1.282950
     29          1           0        2.276271    0.621036    0.092835
     30          1           0        4.848276    2.266494    0.269441
     31          1           0        3.877348    1.753987    1.645027
     32          1           0        1.926530    3.082203    0.769342
     33          1           0        2.902974    3.597622   -0.614060
     34          1           0        3.338166    4.122964    1.021156
 ---------------------------------------------------------------------

 SCF Done:  E(RHF) =  -669.536443454     A.U. after   15 cycles
 E2 =    -0.2091043620D+01 EUMP2 =    -0.67162748707370D+03

 The electronic state is 1-A.
 Alpha  occ. eigenvalues --  -20.61015 -20.61005 -15.86052 -11.31328 -11.27888
 Alpha  occ. eigenvalues --  -11.27881 -11.27620 -11.26887 -11.26876 -11.20650
 Alpha  occ. eigenvalues --  -11.20499 -11.20310 -11.20286 -11.20190 -11.20078
 Alpha  occ. eigenvalues --   -1.60074  -1.39631  -1.19493  -1.08906  -1.07337
 Alpha  occ. eigenvalues --   -1.04883  -1.02560  -0.95755  -0.95019  -0.86286
 Alpha  occ. eigenvalues --   -0.86046  -0.82592  -0.78616  -0.77656  -0.77123
 Alpha  occ. eigenvalues --   -0.72277  -0.71385  -0.70602  -0.65153  -0.64886
 Alpha  occ. eigenvalues --   -0.63940  -0.62230  -0.59953  -0.58396  -0.56633
 Alpha  occ. eigenvalues --   -0.55391  -0.54299  -0.53218  -0.52975  -0.51764
 Alpha  occ. eigenvalues --   -0.51460  -0.49062  -0.49030  -0.48932  -0.46949
 Alpha  occ. eigenvalues --   -0.45634  -0.45038  -0.44710  -0.44501  -0.42773
 Alpha  occ. eigenvalues --   -0.37472  -0.36483
 Alpha virt. eigenvalues --    0.04873   0.11173   0.16373   0.21267   0.23949
 Alpha virt. eigenvalues --    0.25207   0.27196   0.27488   0.28032   0.28736
 Alpha virt. eigenvalues --    0.29045   0.30933   0.32223   0.32473   0.32777

 Mulliken charges:
               1
     1  C   -0.170478
     2  C   -0.218554
     3  C   -0.170656
     4  C    0.157089
     5  C   -0.170463
     6  C   -0.218629
     7  H    0.226155
     8  H    0.224127
     9  H    0.276335
    10  H    0.275862
    11  H    0.223914
    12  N    0.496548
    13  O   -0.458654
    14  O   -0.469131
    15  C   -0.296168
    16  C   -0.302808
    17  C   -0.475091
    18  H    0.143648
    19  H    0.150862
    20  H    0.145908
    21  H    0.165548
    22  H    0.155832
    23  H    0.151392
    24  H    0.156933
    25  C   -0.311892
    26  C   -0.297876
    27  C   -0.475794
    28  H    0.140905
    29  H    0.180081
    30  H    0.147174
    31  H    0.152840
    32  H    0.158293
    33  H    0.150260
    34  H    0.156485
 Sum of Mulliken charges =  -0.00000

 Dipole moment (field-independent basis, Debye):
    X=             -4.7079    Y=              1.3189    Z=             -2.4173  Tot=              5.4541
 Quadrupole moment (field-independent basis, Debye-Ang):
   XX=            -71.3003   YY=            -96.6105   ZZ=            -93.4100
   XY=             -0.9001   XZ=              3.7686   YZ=             -1.3487

 Normal termination of Gaussian 16 at Thu May  6 16:06:08 2021.
