 Gaussian 16, Revision A.03,
 Gaussian 16:  EM64L-G16RevA.03 25-Dec-2016

 -------------
 #p 6-31g* mp2
 -------------

 ------------------------------------------------------
 Input file generated by CHIRIPA (05-May-2021 14:51:07)
 ------------------------------------------------------
 Symbolic Z-matrix:
 Charge =  0 Multiplicity = 1

                         Standard orientation:
 ---------------------------------------------------------------------
 Center     Atomic      Atomic             Coordinates (Angstroms)
 Number     Number       Type             X           Y           Z
 ---------------------------------------------------------------------
      1          6           0       -3.348267   -0.125543    0.667651
      2          6           0       -2.274316    0.913932    0.344997
      3          6           0       -1.086784    0.854973    1.306292
      4          1           0       -3.700075    0.027440    1.697103
      5          1           0       -2.899483   -1.128047    0.636432
      6          1           0       -2.725307    1.914080    0.375458
      7          1           0       -1.925159    0.758578   -0.683871
      8          1           0       -0.610500   -0.130143    1.270233
      9          1           0       -1.415194    1.031924    2.335581
     10          1           0       -0.331067    1.606495    1.057361
     11          6           0       -4.541886   -0.079062   -0.284631
     12          6           0       -5.615837   -1.118537    0.038023
     13          6           0       -6.803368   -1.059578   -0.923271
     14          1           0       -4.990670    0.923441   -0.253411
     15          1           0       -4.190077   -0.232045   -1.314083
     16          1           0       -5.964993   -0.963183    1.066892
     17          1           0       -5.164846   -2.118685    0.007563
     18          1           0       -6.474959   -1.236530   -1.952560
     19          1           0       -7.279652   -0.074462   -0.887212
     20          1           0       -7.559086   -1.811100   -0.674341
     21          6           0        3.743815    0.742299   -0.556655
     22          6           0        2.587124    1.484577    0.113477
     23          6           0        2.195997    2.762856   -0.628693
     24          1           0        4.612744    1.411523   -0.620265
     25          1           0        3.462657    0.496024   -1.589947
     26          1           0        2.869852    1.728160    1.145634
     27          1           0        1.720908    0.813446    0.175673
     28          1           0        1.888127    2.534086   -1.654110
     29          1           0        3.043599    3.453997   -0.678639
     30          1           0        1.367315    3.277585   -0.132509
     31          6           0        4.146338   -0.537694    0.173634
     32          6           0        5.303028   -1.279971   -0.496498
     33          6           0        5.694156   -2.558250    0.245673
     34          1           0        4.427496   -0.291419    1.206927
     35          1           0        3.277408   -1.206918    0.237245
     36          1           0        6.169245   -0.608841   -0.558693
     37          1           0        5.020300   -1.523555   -1.528654
     38          1           0        4.846553   -3.249392    0.295618
     39          1           0        6.002026   -2.329482    1.271090
     40          1           0        6.522838   -3.072980   -0.250512
 ---------------------------------------------------------------------

 SCF Done:  E(RHF) =  -470.732580110     A.U. after   11 cycles
 E2 =    -0.1583045924D+01 EUMP2 =    -0.47231562603377D+03

 The electronic state is 1-A.
 Alpha  occ. eigenvalues --  -11.21607 -11.21604 -11.21586 -11.21495 -11.21410
 Alpha  occ. eigenvalues --  -11.21374 -11.21351 -11.21312 -11.21076 -11.21076
 Alpha  occ. eigenvalues --  -11.21061 -11.21025  -1.08441  -1.08395  -1.03572
 Alpha  occ. eigenvalues --   -1.03473  -0.96034  -0.95919  -0.87009  -0.86977
 Alpha  occ. eigenvalues --   -0.79680  -0.79494  -0.78260  -0.78197  -0.65099
 Alpha  occ. eigenvalues --   -0.65010  -0.61045  -0.60838  -0.59648  -0.59107
 Alpha  occ. eigenvalues --   -0.57780  -0.57354  -0.55319  -0.55206  -0.52781
 Alpha  occ. eigenvalues --   -0.52570  -0.52465  -0.52285  -0.49999  -0.49845
 Alpha  occ. eigenvalues --   -0.47910  -0.47880  -0.46721  -0.46501  -0.45799
 Alpha  occ. eigenvalues --   -0.45760  -0.45712  -0.45632  -0.43782  -0.43713
 Alpha virt. eigenvalues --    0.21637   0.23120   0.23389   0.25080   0.26109
 Alpha virt. eigenvalues --    0.26761   0.26849   0.27114   0.27764   0.29090
 Alpha virt. eigenvalues --    0.30260   0.31234   0.31662   0.31815   0.32214

 Mulliken charges:
               1
     1  C   -0.298441
     2  C   -0.299791
     3  C   -0.482836
     4  H    0.149775
     5  H    0.149365
     6  H    0.151912
     7  H    0.151801
     8  H    0.154436
     9  H    0.155065
    10  H    0.169646
    11  C   -0.298232
    12  C   -0.299640
    13  C   -0.475701
    14  H    0.149585
    15  H    0.149546
    16  H    0.151975
    17  H    0.151864
    18  H    0.155147
    19  H    0.155214
    20  H    0.160263
    21  C   -0.297861
    22  C   -0.305722
    23  C   -0.478067
    24  H    0.149215
    25  H    0.149018
    26  H    0.151644
    27  H    0.159900
    28  H    0.155268
    29  H    0.155656
    30  H    0.160341
    31  C   -0.298109
    32  C   -0.299612
    33  C   -0.475667
    34  H    0.149649
    35  H    0.149224
    36  H    0.151964
    37  H    0.151768
    38  H    0.155034
    39  H    0.155224
    40  H    0.160181
 Sum of Mulliken charges =  -0.00000

 Dipole moment (field-independent basis, Debye):
    X=             -0.0108    Y=              0.0056    Z=              0.0117  Tot=              0.0169
 Quadrupole moment (field-independent basis, Debye-Ang):
   XX=            -85.2853   YY=            -84.9937   ZZ=            -84.6542
   XY=              0.3287   XZ=             -0.6129   YZ=              1.1073

 Normal termination of Gaussian 16 at Wed May  5 15:01:50 2021.
