 Gaussian 16, Revision A.03,
 Gaussian 16:  EM64L-G16RevA.03 25-Dec-2016

 -------------
 #p 6-31g* mp2
 -------------

 ------------------------------------------------------
 Input file generated by CHIRIPA (05-May-2021 14:53:11)
 ------------------------------------------------------
 Symbolic Z-matrix:
 Charge =  0 Multiplicity = 1

                         Standard orientation:
 ---------------------------------------------------------------------
 Center     Atomic      Atomic             Coordinates (Angstroms)
 Number     Number       Type             X           Y           Z
 ---------------------------------------------------------------------
      1          6           0        4.093425   -0.519359    0.013924
      2          6           0        4.552117    0.871923    0.452011
      3          6           0        6.068296    1.049161    0.364931
      4          1           0        4.588862   -1.275345    0.638403
      5          1           0        4.425919   -0.699461   -1.017776
      6          1           0        4.217661    1.049890    1.482100
      7          1           0        4.055384    1.624692   -0.173457
      8          1           0        6.415435    0.898179   -0.662347
      9          1           0        6.578634    0.320111    1.002617
     10          1           0        6.374315    2.050779    0.682693
     11          6           0        2.580145   -0.711902    0.095406
     12          6           0        2.121452   -2.103185   -0.342681
     13          6           0        0.605273   -2.280422   -0.255601
     14          1           0        2.247650   -0.531801    1.127106
     15          1           0        2.084708    0.044083   -0.529073
     16          1           0        2.618185   -2.855954    0.282787
     17          1           0        2.455908   -2.281152   -1.372770
     18          1           0        0.094935   -1.551373   -0.893287
     19          1           0        0.258134   -2.129441    0.771677
     20          1           0        0.299254   -3.282041   -0.573363
     21          6           0       -3.673400   -1.740516    0.499013
     22          6           0       -3.007179   -1.562080   -0.717881
     23          6           0       -2.412557   -0.335532   -1.028610
     24          6           0       -2.503754    0.695726   -0.095079
     25          6           0       -3.160540    0.548924    1.125729
     26          6           0       -3.747823   -0.686303    1.415319
     27          1           0       -4.132467   -2.696699    0.732184
     28          1           0       -2.947805   -2.379032   -1.431401
     29          1           0       -1.890627   -0.170060   -1.963290
     30          1           0       -3.203115    1.381897    1.816933
     31          1           0       -4.264573   -0.822012    2.361151
     32          7           0       -1.878139    1.998811   -0.412843
     33          8           0       -1.972510    2.891651    0.426542
     34          8           0       -1.305258    2.102655   -1.495276
 ---------------------------------------------------------------------

 SCF Done:  E(RHF) =  -669.534468108     A.U. after   15 cycles
 E2 =    -0.2092774157D+01 EUMP2 =    -0.67162724226459D+03

 The electronic state is 1-A.
 Alpha  occ. eigenvalues --  -20.60787 -20.60780 -15.85837 -11.31173 -11.27745
 Alpha  occ. eigenvalues --  -11.27741 -11.27483 -11.26757 -11.26737 -11.21568
 Alpha  occ. eigenvalues --  -11.21260 -11.21188 -11.21182 -11.21120 -11.20778
 Alpha  occ. eigenvalues --   -1.59859  -1.39415  -1.19356  -1.08749  -1.08241
 Alpha  occ. eigenvalues --   -1.04769  -1.03382  -0.95859  -0.95587  -0.86881
 Alpha  occ. eigenvalues --   -0.86158  -0.82427  -0.79455  -0.78031  -0.77474
 Alpha  occ. eigenvalues --   -0.72057  -0.71180  -0.70476  -0.65014  -0.64876
 Alpha  occ. eigenvalues --   -0.64757  -0.62129  -0.60780  -0.59234  -0.57474
 Alpha  occ. eigenvalues --   -0.55278  -0.55147  -0.53312  -0.52864  -0.52528
 Alpha  occ. eigenvalues --   -0.52086  -0.49795  -0.48814  -0.48811  -0.47751
 Alpha  occ. eigenvalues --   -0.46477  -0.45581  -0.45488  -0.44815  -0.43634
 Alpha  occ. eigenvalues --   -0.37326  -0.36245
 Alpha virt. eigenvalues --    0.05050   0.11208   0.16524   0.21138   0.23065
 Alpha virt. eigenvalues --    0.24367   0.26518   0.27095   0.27581   0.28200
 Alpha virt. eigenvalues --    0.28807   0.30357   0.31500   0.31771   0.32183

 Mulliken charges:
               1
     1  C   -0.298105
     2  C   -0.300551
     3  C   -0.475748
     4  H    0.147744
     5  H    0.149284
     6  H    0.151880
     7  H    0.157187
     8  H    0.154848
     9  H    0.153480
    10  H    0.160977
    11  C   -0.300624
    12  C   -0.299746
    13  C   -0.475487
    14  H    0.148852
    15  H    0.156787
    16  H    0.150572
    17  H    0.151234
    18  H    0.155039
    19  H    0.156081
    20  H    0.152936
    21  C   -0.171488
    22  C   -0.211728
    23  C   -0.172731
    24  C    0.159944
    25  C   -0.171567
    26  C   -0.218638
    27  H    0.225592
    28  H    0.223911
    29  H    0.274818
    30  H    0.275419
    31  H    0.223265
    32  N    0.488392
    33  O   -0.460136
    34  O   -0.461695
 Sum of Mulliken charges =  -0.00000

 Dipole moment (field-independent basis, Debye):
    X=             -2.2540    Y=             -4.5124    Z=              1.1224  Tot=              5.1674
 Quadrupole moment (field-independent basis, Debye-Ang):
   XX=            -85.1842   YY=           -101.3518   ZZ=            -90.3805
   XY=              9.5286   XZ=             -4.1858   YZ=              2.7030

 Normal termination of Gaussian 16 at Wed May  5 20:04:05 2021.
