 Gaussian 16, Revision A.03,
 Gaussian 16:  EM64L-G16RevA.03 25-Dec-2016

 -------------
 #p 6-31g* mp2
 -------------

 ------------------------------------------------------
 Input file generated by CHIRIPA (05-May-2021 14:55:25)
 ------------------------------------------------------
 Symbolic Z-matrix:
 Charge =  0 Multiplicity = 1

                         Standard orientation:
 ---------------------------------------------------------------------
 Center     Atomic      Atomic             Coordinates (Angstroms)
 Number     Number       Type             X           Y           Z
 ---------------------------------------------------------------------
      1          6           0        4.324390   -2.096873   -0.781466
      2          6           0        3.785362   -1.160261   -1.669570
      3          6           0        3.108101   -0.035088   -1.190142
      4          6           0        2.987858    0.122777    0.189681
      5          6           0        3.513903   -0.792685    1.099899
      6          6           0        4.187182   -1.910424    0.598002
      7          1           0        4.848956   -2.968047   -1.162625
      8          1           0        3.890397   -1.302479   -2.741384
      9          1           0        2.681096    0.705632   -1.855288
     10          1           0        3.393158   -0.623725    2.163051
     11          1           0        4.604781   -2.636172    1.290062
     12          7           0        2.272980    1.310012    0.709124
     13          8           0        2.180589    1.426136    1.929212
     14          8           0        1.818586    2.101964   -0.113662
     15          6           0       -4.579226   -0.335709   -0.319262
     16          6           0       -4.823053   -1.492557    0.650396
     17          6           0       -6.034720   -2.341681    0.264852
     18          1           0       -5.475849    0.298009   -0.356869
     19          1           0       -4.438541   -0.738615   -1.331817
     20          1           0       -4.961861   -1.087683    1.661052
     21          1           0       -3.925675   -2.123487    0.685844
     22          1           0       -5.901288   -2.772882   -0.732577
     23          1           0       -6.943361   -1.731193    0.248172
     24          1           0       -6.190654   -3.162873    0.971385
     25          6           0       -3.371311    0.522318    0.052841
     26          6           0       -3.127485    1.679166   -0.916817
     27          6           0       -1.915818    2.528290   -0.531272
     28          1           0       -3.511996    0.925224    1.065396
     29          1           0       -2.474689   -0.111399    0.090448
     30          1           0       -4.024862    2.310095   -0.952264
     31          1           0       -2.988676    1.274292   -1.927473
     32          1           0       -1.007177    1.917802   -0.514593
     33          1           0       -2.049251    2.959491    0.466156
     34          1           0       -1.759884    3.349482   -1.237805
 ---------------------------------------------------------------------

 SCF Done:  E(RHF) =  -669.535879793     A.U. after   15 cycles
 E2 =    -0.2090873985D+01 EUMP2 =    -0.67162675377805D+03

 The electronic state is 1-A.
 Alpha  occ. eigenvalues --  -20.60912 -20.60903 -15.85935 -11.31280 -11.27846
 Alpha  occ. eigenvalues --  -11.27842 -11.27586 -11.26857 -11.26847 -11.21251
 Alpha  occ. eigenvalues --  -11.20922 -11.20811 -11.20774 -11.20710 -11.19732
 Alpha  occ. eigenvalues --   -1.59969  -1.39525  -1.19451  -1.08851  -1.07852
 Alpha  occ. eigenvalues --   -1.04850  -1.02872  -0.95690  -0.95287  -0.86295
 Alpha  occ. eigenvalues --   -0.86247  -0.82521  -0.78953  -0.77643  -0.77567
 Alpha  occ. eigenvalues --   -0.72155  -0.71285  -0.70558  -0.65105  -0.64852
 Alpha  occ. eigenvalues --   -0.64495  -0.62196  -0.60275  -0.58721  -0.56902
 Alpha  occ. eigenvalues --   -0.55353  -0.54576  -0.53182  -0.52941  -0.51971
 Alpha  occ. eigenvalues --   -0.51701  -0.49256  -0.48921  -0.48892  -0.47252
 Alpha  occ. eigenvalues --   -0.46038  -0.45244  -0.45127  -0.44738  -0.43136
 Alpha  occ. eigenvalues --   -0.37430  -0.36452
 Alpha virt. eigenvalues --    0.04926   0.11201   0.16397   0.21331   0.23387
 Alpha virt. eigenvalues --    0.24994   0.27173   0.27265   0.27988   0.28165
 Alpha virt. eigenvalues --    0.28844   0.30845   0.32041   0.32276   0.32520

 Mulliken charges:
               1
     1  C   -0.170679
     2  C   -0.218538
     3  C   -0.171220
     4  C    0.158125
     5  C   -0.170835
     6  C   -0.218556
     7  H    0.225946
     8  H    0.223788
     9  H    0.275890
    10  H    0.275914
    11  H    0.223805
    12  N    0.487689
    13  O   -0.458649
    14  O   -0.458304
    15  C   -0.297530
    16  C   -0.298993
    17  C   -0.475277
    18  H    0.149076
    19  H    0.147128
    20  H    0.152447
    21  H    0.150204
    22  H    0.153807
    23  H    0.155096
    24  H    0.158794
    25  C   -0.296836
    26  C   -0.300702
    27  C   -0.476235
    28  H    0.150941
    29  H    0.147229
    30  H    0.148510
    31  H    0.146614
    32  H    0.167704
    33  H    0.156302
    34  H    0.157347
 Sum of Mulliken charges =  -0.00000

 Dipole moment (field-independent basis, Debye):
    X=              2.7717    Y=             -4.1258    Z=             -1.7659  Tot=              5.2747
 Quadrupole moment (field-independent basis, Debye-Ang):
   XX=            -81.4155   YY=            -96.0798   ZZ=            -90.8927
   XY=            -13.8289   XZ=             -4.8594   YZ=             -2.2963

 Normal termination of Gaussian 16 at Thu May  6 07:59:07 2021.
