 Gaussian 16, Revision A.03,
 Gaussian 16:  EM64L-G16RevA.03 25-Dec-2016

 -------------
 #p 6-31g* mp2
 -------------

 ------------------------------------------------------
 Input file generated by CHIRIPA (05-May-2021 14:53:12)
 ------------------------------------------------------
 Symbolic Z-matrix:
 Charge =  0 Multiplicity = 1

                         Standard orientation:
 ---------------------------------------------------------------------
 Center     Atomic      Atomic             Coordinates (Angstroms)
 Number     Number       Type             X           Y           Z
 ---------------------------------------------------------------------
      1          6           0        4.098049   -0.102010    0.137228
      2          6           0        3.296422    1.005047    0.822651
      3          6           0        1.787366    0.766730    0.761420
      4          1           0        3.780072   -0.180684   -0.911412
      5          1           0        3.858481   -1.064767    0.609566
      6          1           0        3.538473    1.965619    0.350073
      7          1           0        3.616479    1.081224    1.869731
      8          1           0        1.526311   -0.177426    1.250318
      9          1           0        1.447861    0.711994   -0.277975
     10          1           0        1.233617    1.570027    1.257339
     11          6           0        5.608255    0.122061    0.190110
     12          6           0        6.409881   -0.984996   -0.495313
     13          6           0        7.918937   -0.746679   -0.434082
     14          1           0        5.847822    1.084818   -0.282227
     15          1           0        5.926232    0.200735    1.238750
     16          1           0        6.089824   -1.061173   -1.542393
     17          1           0        6.167831   -1.945568   -0.022735
     18          1           0        8.258443   -0.691943    0.605313
     19          1           0        8.179993    0.197477   -0.922980
     20          1           0        8.472687   -1.549976   -0.930001
     21          6           0       -1.715258    1.382726   -0.476272
     22          6           0       -1.610013   -0.001412   -0.304215
     23          6           0       -2.753690   -0.781794   -0.110421
     24          6           0       -3.992251   -0.142266   -0.094184
     25          6           0       -4.129757    1.234679   -0.262708
     26          6           0       -2.972578    1.995275   -0.455007
     27          1           0       -0.821578    1.981259   -0.626235
     28          1           0       -0.634870   -0.479830   -0.320272
     29          1           0       -2.701020   -1.855205    0.025341
     30          1           0       -5.115607    1.683103   -0.241878
     31          1           0       -3.057332    3.070021   -0.588362
     32          7           0       -5.210158   -0.957948    0.110186
     33          8           0       -6.289698   -0.370474    0.120418
     34          8           0       -5.062151   -2.169306    0.256269
 ---------------------------------------------------------------------

 SCF Done:  E(RHF) =  -669.534772188     A.U. after   15 cycles
 E2 =    -0.2091907816D+01 EUMP2 =    -0.67162668000445D+03

 The electronic state is 1-A.
 Alpha  occ. eigenvalues --  -20.60673 -20.60668 -15.85724 -11.31059 -11.27628
 Alpha  occ. eigenvalues --  -11.27603 -11.27310 -11.26637 -11.26538 -11.22613
 Alpha  occ. eigenvalues --  -11.22482 -11.22219 -11.22136 -11.22017 -11.21508
 Alpha  occ. eigenvalues --   -1.59749  -1.39303  -1.19222  -1.09218  -1.08620
 Alpha  occ. eigenvalues --   -1.04629  -1.04355  -0.96856  -0.95459  -0.87902
 Alpha  occ. eigenvalues --   -0.86006  -0.82296  -0.80460  -0.78981  -0.77346
 Alpha  occ. eigenvalues --   -0.71943  -0.71072  -0.70337  -0.65846  -0.64872
 Alpha  occ. eigenvalues --   -0.64649  -0.62014  -0.61737  -0.60238  -0.58411
 Alpha  occ. eigenvalues --   -0.56167  -0.55101  -0.53577  -0.53359  -0.52921
 Alpha  occ. eigenvalues --   -0.52575  -0.50785  -0.48803  -0.48701  -0.48619
 Alpha  occ. eigenvalues --   -0.47451  -0.46529  -0.46420  -0.44716  -0.44586
 Alpha  occ. eigenvalues --   -0.37188  -0.36221
 Alpha virt. eigenvalues --    0.05169   0.11372   0.16649   0.20443   0.22326
 Alpha virt. eigenvalues --    0.23809   0.25723   0.25927   0.26850   0.27863
 Alpha virt. eigenvalues --    0.29432   0.30235   0.30580   0.31446   0.31714

 Mulliken charges:
               1
     1  C   -0.299527
     2  C   -0.300071
     3  C   -0.483236
     4  H    0.149015
     5  H    0.150764
     6  H    0.153338
     7  H    0.156774
     8  H    0.159131
     9  H    0.146676
    10  H    0.163995
    11  C   -0.298878
    12  C   -0.300249
    13  C   -0.476141
    14  H    0.150317
    15  H    0.151379
    16  H    0.152268
    17  H    0.152907
    18  H    0.156087
    19  H    0.155655
    20  H    0.161941
    21  C   -0.173183
    22  C   -0.220480
    23  C   -0.172152
    24  C    0.158497
    25  C   -0.171405
    26  C   -0.218966
    27  H    0.227372
    28  H    0.229249
    29  H    0.274933
    30  H    0.274981
    31  H    0.222621
    32  N    0.488035
    33  O   -0.460838
    34  O   -0.460808
 Sum of Mulliken charges =  -0.00000

 Dipole moment (field-independent basis, Debye):
    X=              4.5977    Y=              2.8748    Z=             -0.6497  Tot=              5.4613
 Quadrupole moment (field-independent basis, Debye-Ang):
   XX=           -128.4162   YY=            -92.1253   ZZ=            -94.6363
   XY=            -14.9106   XZ=              2.9175   YZ=             -0.8925

 Normal termination of Gaussian 16 at Thu May  6 15:21:05 2021.
