 Gaussian 16, Revision A.03,
 Gaussian 16:  EM64L-G16RevA.03 25-Dec-2016

 -------------
 #p 6-31g* mp2
 -------------

 ------------------------------------------------------
 Input file generated by CHIRIPA (05-May-2021 14:57:25)
 ------------------------------------------------------
 Symbolic Z-matrix:
 Charge =  0 Multiplicity = 1

                         Standard orientation:
 ---------------------------------------------------------------------
 Center     Atomic      Atomic             Coordinates (Angstroms)
 Number     Number       Type             X           Y           Z
 ---------------------------------------------------------------------
      1          6           0       -1.590051   -1.558766   -1.138360
      2          6           0       -1.310301   -0.280658   -0.643686
      3          6           0       -2.329606    0.512095   -0.107861
      4          6           0       -3.623090   -0.007073   -0.082287
      5          6           0       -3.933486   -1.276571   -0.567383
      6          6           0       -2.898444   -2.051774   -1.098700
      7          1           0       -0.792118   -2.167779   -1.552851
      8          1           0       -0.295121    0.104805   -0.673198
      9          1           0       -2.140981    1.505014    0.281945
     10          1           0       -4.955311   -1.633561   -0.524379
     11          1           0       -3.118630   -3.044007   -1.482152
     12          7           0       -4.710512    0.822889    0.482581
     13          8           0       -5.841763    0.342487    0.493642
     14          8           0       -4.410993    1.938100    0.903567
     15          6           0        3.491563   -2.251850    0.965459
     16          6           0        4.551863   -1.743312    0.208045
     17          6           0        4.536075   -0.417431   -0.235056
     18          6           0        3.439259    0.375470    0.099002
     19          6           0        2.367735   -0.102087    0.852040
     20          6           0        2.404799   -1.431062    1.284475
     21          1           0        3.512091   -3.283028    1.305528
     22          1           0        5.397157   -2.378446   -0.041206
     23          1           0        5.343581    0.001951   -0.822822
     24          1           0        1.538793    0.555286    1.084707
     25          1           0        1.579957   -1.823307    1.872545
     26          7           0        3.411283    1.780758   -0.364444
     27          8           0        2.433430    2.458839   -0.056799
     28          8           0        4.367738    2.177531   -1.026563
 ---------------------------------------------------------------------

 SCF Done:  E(RHF) =  -868.337750537     A.U. after   16 cycles
 E2 =    -0.2600302749D+01 EUMP2 =    -0.87093805328579D+03

 The electronic state is 1-A.
 Alpha  occ. eigenvalues --  -20.61577 -20.61549 -20.60810 -20.60798 -15.86615
 Alpha  occ. eigenvalues --  -15.85862 -11.32065 -11.31296 -11.28644 -11.28564
 Alpha  occ. eigenvalues --  -11.28309 -11.27895 -11.27842 -11.27656 -11.27636
 Alpha  occ. eigenvalues --  -11.27596 -11.26928 -11.26861  -1.60635  -1.59882
 Alpha  occ. eigenvalues --   -1.40189  -1.39432  -1.20223  -1.19484  -1.09589
 Alpha  occ. eigenvalues --   -1.08871  -1.05628  -1.04890  -0.96417  -0.95688
 Alpha  occ. eigenvalues --   -0.87017  -0.86286  -0.83237  -0.82515  -0.78298
 Alpha  occ. eigenvalues --   -0.77541  -0.72821  -0.72077  -0.71965  -0.71308
 Alpha  occ. eigenvalues --   -0.71209  -0.70589  -0.65857  -0.65624  -0.65130
 Alpha  occ. eigenvalues --   -0.64889  -0.62985  -0.62182  -0.56089  -0.55401
 Alpha  occ. eigenvalues --   -0.53983  -0.53709  -0.53229  -0.52917  -0.49591
 Alpha  occ. eigenvalues --   -0.49577  -0.48844  -0.48827  -0.45572  -0.44822
 Alpha  occ. eigenvalues --   -0.38191  -0.37535  -0.37206  -0.36488
 Alpha virt. eigenvalues --    0.04194   0.04974   0.10288   0.11108   0.15728
 Alpha virt. eigenvalues --    0.16404   0.20213   0.21592   0.25683   0.27023
 Alpha virt. eigenvalues --    0.28082   0.28418   0.30086   0.30860   0.32305

 Mulliken charges:
               1
     1  C   -0.173554
     2  C   -0.227479
     3  C   -0.173039
     4  C    0.158699
     5  C   -0.170980
     6  C   -0.218959
     7  H    0.225059
     8  H    0.229579
     9  H    0.280646
    10  H    0.275882
    11  H    0.222761
    12  N    0.487877
    13  O   -0.460783
    14  O   -0.458198
    15  C   -0.172080
    16  C   -0.217660
    17  C   -0.170910
    18  C    0.159515
    19  C   -0.180193
    20  C   -0.220531
    21  H    0.228116
    22  H    0.226460
    23  H    0.278161
    24  H    0.273808
    25  H    0.227852
    26  N    0.488540
    27  O   -0.462675
    28  O   -0.455913
 Sum of Mulliken charges =  -0.00000

 Dipole moment (field-independent basis, Debye):
    X=              4.1304    Y=             -7.8669    Z=             -0.3463  Tot=              8.8920
 Quadrupole moment (field-independent basis, Debye-Ang):
   XX=           -125.2091   YY=           -106.4385   ZZ=           -104.3741
   XY=             -4.7537   XZ=             11.0266   YZ=              1.3805

 Normal termination of Gaussian 16 at Thu May  6 05:06:24 2021.
