 Gaussian 16, Revision A.03,
 Gaussian 16:  EM64L-G16RevA.03 25-Dec-2016

 -------------
 #p 6-31g* mp2
 -------------

 ------------------------------------------------------
 Input file generated by CHIRIPA (05-May-2021 14:55:21)
 ------------------------------------------------------
 Symbolic Z-matrix:
 Charge =  0 Multiplicity = 1

                         Standard orientation:
 ---------------------------------------------------------------------
 Center     Atomic      Atomic             Coordinates (Angstroms)
 Number     Number       Type             X           Y           Z
 ---------------------------------------------------------------------
      1          6           0        1.101365    2.250774   -0.214121
      2          6           0        0.899571    1.032369   -0.870847
      3          6           0        1.873408    0.030401   -0.823405
      4          6           0        3.042426    0.281750   -0.106808
      5          6           0        3.272832    1.485232    0.557897
      6          6           0        2.285264    2.472925    0.496902
      7          1           0        0.339532    3.023582   -0.256239
      8          1           0       -0.018887    0.857067   -1.423793
      9          1           0        1.743086   -0.922064   -1.322650
     10          1           0        4.198658    1.630731    1.101122
     11          1           0        2.444695    3.418189    1.007885
     12          7           0        4.080651   -0.771433   -0.049409
     13          8           0        5.101893   -0.525300    0.588650
     14          8           0        3.853511   -1.823109   -0.643566
     15          6           0       -4.224699   -0.276288   -0.284318
     16          6           0       -5.309521    0.434584    0.525502
     17          6           0       -6.401622    1.042644   -0.355051
     18          1           0       -3.775064    0.437057   -0.988528
     19          1           0       -4.688561   -1.065397   -0.892211
     20          1           0       -4.843567    1.221207    1.132731
     21          1           0       -5.756494   -0.280487    1.228000
     22          1           0       -6.893069    0.266408   -0.950481
     23          1           0       -5.974954    1.776635   -1.046291
     24          1           0       -7.166773    1.545827    0.244293
     25          6           0       -3.125863   -0.889349    0.581964
     26          6           0       -2.041042   -1.600220   -0.227855
     27          6           0       -0.948941   -2.208281    0.652697
     28          1           0       -2.662002   -0.100239    1.189858
     29          1           0       -3.575499   -1.602693    1.286175
     30          1           0       -1.594068   -0.885149   -0.930354
     31          1           0       -2.506996   -2.386845   -0.835085
     32          1           0       -1.375608   -2.942271    1.343938
     33          1           0       -0.457493   -1.432045    1.248127
     34          1           0       -0.183790   -2.711463    0.053354
 ---------------------------------------------------------------------

 SCF Done:  E(RHF) =  -669.535151522     A.U. after   15 cycles
 E2 =    -0.2092439990D+01 EUMP2 =    -0.67162759151215D+03

 The electronic state is 1-A.
 Alpha  occ. eigenvalues --  -20.60768 -20.60763 -15.85823 -11.31197 -11.27777
 Alpha  occ. eigenvalues --  -11.27772 -11.27526 -11.26792 -11.26773 -11.22249
 Alpha  occ. eigenvalues --  -11.22132 -11.22002 -11.21936 -11.21551 -11.21414
 Alpha  occ. eigenvalues --   -1.59842  -1.39396  -1.19380  -1.09011  -1.08771
 Alpha  occ. eigenvalues --   -1.04792  -1.04053  -0.96479  -0.95602  -0.87490
 Alpha  occ. eigenvalues --   -0.86182  -0.82439  -0.80131  -0.78834  -0.77481
 Alpha  occ. eigenvalues --   -0.72041  -0.71165  -0.70490  -0.65703  -0.65031
 Alpha  occ. eigenvalues --   -0.64775  -0.62232  -0.61377  -0.59841  -0.58096
 Alpha  occ. eigenvalues --   -0.55779  -0.55283  -0.53199  -0.53054  -0.52979
 Alpha  occ. eigenvalues --   -0.52804  -0.50401  -0.48805  -0.48794  -0.48426
 Alpha  occ. eigenvalues --   -0.47169  -0.46366  -0.46291  -0.44799  -0.44315
 Alpha  occ. eigenvalues --   -0.37363  -0.36355
 Alpha virt. eigenvalues --    0.05038   0.11219   0.16429   0.19683   0.22711
 Alpha virt. eigenvalues --    0.23847   0.25063   0.26355   0.26616   0.28541
 Alpha virt. eigenvalues --    0.28778   0.29752   0.31175   0.31442   0.32223

 Mulliken charges:
               1
     1  C   -0.172016
     2  C   -0.220235
     3  C   -0.168906
     4  C    0.157562
     5  C   -0.170835
     6  C   -0.218706
     7  H    0.225589
     8  H    0.226671
     9  H    0.276497
    10  H    0.275727
    11  H    0.223451
    12  N    0.488288
    13  O   -0.460431
    14  O   -0.460450
    15  C   -0.297423
    16  C   -0.299807
    17  C   -0.475783
    18  H    0.143246
    19  H    0.151982
    20  H    0.150630
    21  H    0.154306
    22  H    0.156703
    23  H    0.153621
    24  H    0.161739
    25  C   -0.298825
    26  C   -0.301040
    27  C   -0.479238
    28  H    0.148617
    29  H    0.153480
    30  H    0.139657
    31  H    0.155414
    32  H    0.158555
    33  H    0.158737
    34  H    0.163226
 Sum of Mulliken charges =  -0.00000

 Dipole moment (field-independent basis, Debye):
    X=             -3.7170    Y=              3.6316    Z=             -0.1151  Tot=              5.1979
 Quadrupole moment (field-independent basis, Debye-Ang):
   XX=           -115.9242   YY=            -90.5673   ZZ=            -93.9844
   XY=             13.3587   XZ=              1.0113   YZ=              1.6201

 Normal termination of Gaussian 16 at Thu May  6 15:51:11 2021.
