 Gaussian 16, Revision A.03,
 Gaussian 16:  EM64L-G16RevA.03 25-Dec-2016

 -------------
 #p 6-31g* mp2
 -------------

 ------------------------------------------------------
 Input file generated by CHIRIPA (05-May-2021 14:51:13)
 ------------------------------------------------------
 Symbolic Z-matrix:
 Charge =  0 Multiplicity = 1

                         Standard orientation:
 ---------------------------------------------------------------------
 Center     Atomic      Atomic             Coordinates (Angstroms)
 Number     Number       Type             X           Y           Z
 ---------------------------------------------------------------------
      1          6           0       -4.448409    0.632273   -0.103284
      2          6           0       -3.082050   -0.053786   -0.084033
      3          6           0       -1.924216    0.929797   -0.256599
      4          1           0       -4.565341    1.175882   -1.050787
      5          1           0       -4.483924    1.385692    0.695773
      6          1           0       -3.049619   -0.806649   -0.882006
      7          1           0       -2.968435   -0.595983    0.863453
      8          1           0       -1.928287    1.674273    0.546110
      9          1           0       -2.009933    1.462409   -1.209267
     10          1           0       -0.956875    0.418104   -0.239833
     11          6           0       -5.615912   -0.337926    0.068115
     12          6           0       -6.982272    0.348133    0.048864
     13          6           0       -8.140106   -0.635450    0.221429
     14          1           0       -5.580398   -1.091345   -0.730942
     15          1           0       -5.498980   -0.881535    1.015618
     16          1           0       -7.095886    0.890330   -0.898622
     17          1           0       -7.014702    1.100997    0.846837
     18          1           0       -8.054389   -1.168062    1.174098
     19          1           0       -8.136034   -1.379925   -0.581279
     20          1           0       -9.107447   -0.123756    0.204664
     21          6           0        4.322865    0.112219    0.131806
     22          6           0        3.239462   -0.898964   -0.244669
     23          6           0        1.825836   -0.365444   -0.010548
     24          1           0        4.204681    0.390478    1.188001
     25          1           0        4.175504    1.031399   -0.451966
     26          1           0        3.389648   -1.816472    0.338633
     27          1           0        3.360357   -1.174993   -1.300039
     28          1           0        1.651637    0.537633   -0.604439
     29          1           0        1.681094   -0.107490    1.043545
     30          1           0        1.067049   -1.104418   -0.286265
     31          6           0        5.741457   -0.406567   -0.096637
     32          6           0        6.824860    0.604616    0.279838
     33          6           0        8.238485    0.071096    0.045717
     34          1           0        5.888818   -1.325747    0.487135
     35          1           0        5.859641   -0.684826   -1.152832
     36          1           0        6.703964    0.880646    1.335209
     37          1           0        6.674673    1.522124   -0.303464
     38          1           0        8.383227   -0.186858   -1.008375
     39          1           0        8.412684   -0.831981    0.639608
     40          1           0        8.997273    0.810070    0.321434
 ---------------------------------------------------------------------

 SCF Done:  E(RHF) =  -470.733094723     A.U. after   11 cycles
 E2 =    -0.1582328364D+01 EUMP2 =    -0.47231542308627D+03

 The electronic state is 1-A.
 Alpha  occ. eigenvalues --  -11.21619 -11.21606 -11.21565 -11.21511 -11.21415
 Alpha  occ. eigenvalues --  -11.21355 -11.21348 -11.21285 -11.21111 -11.21075
 Alpha  occ. eigenvalues --  -11.21043 -11.20869  -1.08443  -1.08366  -1.03556
 Alpha  occ. eigenvalues --   -1.03449  -0.96036  -0.95872  -0.87093  -0.86855
 Alpha  occ. eigenvalues --   -0.79659  -0.79481  -0.78254  -0.78181  -0.65072
 Alpha  occ. eigenvalues --   -0.64998  -0.60947  -0.60851  -0.59533  -0.59150
 Alpha  occ. eigenvalues --   -0.57613  -0.57511  -0.55293  -0.55183  -0.53027
 Alpha  occ. eigenvalues --   -0.52498  -0.52370  -0.52137  -0.49942  -0.49838
 Alpha  occ. eigenvalues --   -0.47939  -0.47821  -0.46642  -0.46557  -0.45797
 Alpha  occ. eigenvalues --   -0.45722  -0.45719  -0.45651  -0.43936  -0.43535
 Alpha virt. eigenvalues --    0.22618   0.22944   0.23660   0.24716   0.26613
 Alpha virt. eigenvalues --    0.26710   0.26837   0.27439   0.27621   0.28875
 Alpha virt. eigenvalues --    0.30572   0.31180   0.31484   0.31572   0.32150

 Mulliken charges:
               1
     1  C   -0.298240
     2  C   -0.298875
     3  C   -0.486703
     4  H    0.149422
     5  H    0.149353
     6  H    0.151068
     7  H    0.151443
     8  H    0.154131
     9  H    0.153701
    10  H    0.175267
    11  C   -0.298141
    12  C   -0.299570
    13  C   -0.475657
    14  H    0.149321
    15  H    0.149472
    16  H    0.151852
    17  H    0.151853
    18  H    0.155102
    19  H    0.155100
    20  H    0.160120
    21  C   -0.298617
    22  C   -0.300276
    23  C   -0.478177
    24  H    0.149708
    25  H    0.149777
    26  H    0.151964
    27  H    0.152117
    28  H    0.157086
    29  H    0.156208
    30  H    0.160057
    31  C   -0.298355
    32  C   -0.299629
    33  C   -0.475712
    34  H    0.149538
    35  H    0.149678
    36  H    0.151961
    37  H    0.151992
    38  H    0.155190
    39  H    0.155180
    40  H    0.160289
 Sum of Mulliken charges =  -0.00000

 Dipole moment (field-independent basis, Debye):
    X=              0.0644    Y=             -0.0058    Z=              0.0030  Tot=              0.0647
 Quadrupole moment (field-independent basis, Debye-Ang):
   XX=            -87.0791   YY=            -85.0908   ZZ=            -82.8392
   XY=             -0.2467   XZ=              0.2838   YZ=             -0.1960

 Normal termination of Gaussian 16 at Wed May  5 18:23:30 2021.
