 Gaussian 16, Revision A.03,
 Gaussian 16:  EM64L-G16RevA.03 25-Dec-2016

 -------------
 #p 6-31g* mp2
 -------------

 ------------------------------------------------------
 Input file generated by CHIRIPA (05-May-2021 14:55:25)
 ------------------------------------------------------
 Symbolic Z-matrix:
 Charge =  0 Multiplicity = 1

                         Standard orientation:
 ---------------------------------------------------------------------
 Center     Atomic      Atomic             Coordinates (Angstroms)
 Number     Number       Type             X           Y           Z
 ---------------------------------------------------------------------
      1          6           0       -0.920031   -1.884218    0.319955
      2          6           0       -1.019020   -0.834214    1.238766
      3          6           0       -2.034426    0.119459    1.120413
      4          6           0       -2.937848   -0.007939    0.066427
      5          6           0       -2.865543   -1.042623   -0.864964
      6          6           0       -1.841983   -1.984894   -0.727131
      7          1           0       -0.128072   -2.620626    0.419461
      8          1           0       -0.304421   -0.753522    2.052941
      9          1           0       -2.134284    0.942450    1.817645
     10          1           0       -3.592647   -1.096658   -1.666100
     11          1           0       -1.767541   -2.799282   -1.442168
     12          7           0       -4.017129    0.995637   -0.069179
     13          8           0       -4.800588    0.861108   -1.006586
     14          8           0       -4.059174    1.897766    0.764507
     15          6           0        3.829806   -0.467394    0.028159
     16          6           0        2.835513   -1.610426   -0.178828
     17          6           0        3.444551   -2.983076    0.108745
     18          1           0        4.701865   -0.626438   -0.620812
     19          1           0        4.200379   -0.495792    1.062210
     20          1           0        2.465880   -1.579040   -1.211787
     21          1           0        1.965633   -1.448540    0.470569
     22          1           0        3.797058   -3.038948    1.143741
     23          1           0        4.300148   -3.170190   -0.548175
     24          1           0        2.716518   -3.785600   -0.045484
     25          6           0        3.235717    0.911144   -0.255426
     26          6           0        4.230010    2.054176   -0.048439
     27          6           0        3.620973    3.426828   -0.336013
     28          1           0        2.865144    0.939543   -1.289479
     29          1           0        2.363658    1.070189    0.393544
     30          1           0        5.099890    1.892291   -0.697837
     31          1           0        4.599643    2.022791    0.984519
     32          1           0        2.765375    3.613940    0.320906
     33          1           0        3.268465    3.482699   -1.371008
     34          1           0        4.349005    4.229350   -0.181785
 ---------------------------------------------------------------------

 SCF Done:  E(RHF) =  -669.534783845     A.U. after   15 cycles
 E2 =    -0.2092373775D+01 EUMP2 =    -0.67162715762031D+03

 The electronic state is 1-A.
 Alpha  occ. eigenvalues --  -20.60749 -20.60744 -15.85804 -11.31165 -11.27759
 Alpha  occ. eigenvalues --  -11.27751 -11.27456 -11.26760 -11.26735 -11.22556
 Alpha  occ. eigenvalues --  -11.22106 -11.22084 -11.22023 -11.21915 -11.21361
 Alpha  occ. eigenvalues --   -1.59825  -1.39379  -1.19349  -1.09111  -1.08736
 Alpha  occ. eigenvalues --   -1.04756  -1.04212  -0.96641  -0.95576  -0.87650
 Alpha  occ. eigenvalues --   -0.86156  -0.82416  -0.80305  -0.78880  -0.77456
 Alpha  occ. eigenvalues --   -0.72023  -0.71149  -0.70474  -0.65761  -0.64999
 Alpha  occ. eigenvalues --   -0.64757  -0.62114  -0.61597  -0.60066  -0.58263
 Alpha  occ. eigenvalues --   -0.55921  -0.55213  -0.53359  -0.53121  -0.53014
 Alpha  occ. eigenvalues --   -0.52849  -0.50570  -0.48782  -0.48778  -0.48586
 Alpha  occ. eigenvalues --   -0.47333  -0.46416  -0.46322  -0.44786  -0.44448
 Alpha  occ. eigenvalues --   -0.37268  -0.36357
 Alpha virt. eigenvalues --    0.05072   0.11167   0.16519   0.19802   0.22593
 Alpha virt. eigenvalues --    0.23645   0.25208   0.26108   0.26552   0.28151
 Alpha virt. eigenvalues --    0.29228   0.30063   0.30874   0.31461   0.32213

 Mulliken charges:
               1
     1  C   -0.168303
     2  C   -0.219638
     3  C   -0.171012
     4  C    0.158052
     5  C   -0.170518
     6  C   -0.220914
     7  H    0.230023
     8  H    0.222676
     9  H    0.275431
    10  H    0.275566
    11  H    0.223336
    12  N    0.488163
    13  O   -0.460537
    14  O   -0.460594
    15  C   -0.298544
    16  C   -0.303750
    17  C   -0.477470
    18  H    0.152362
    19  H    0.149491
    20  H    0.154602
    21  H    0.145194
    22  H    0.157138
    23  H    0.160816
    24  H    0.154036
    25  C   -0.298145
    26  C   -0.300369
    27  C   -0.475971
    28  H    0.151973
    29  H    0.147810
    30  H    0.152899
    31  H    0.151632
    32  H    0.155918
    33  H    0.156852
    34  H    0.161793
 Sum of Mulliken charges =  -0.00000

 Dipole moment (field-independent basis, Debye):
    X=              3.9292    Y=             -3.4687    Z=              0.4055  Tot=              5.2569
 Quadrupole moment (field-independent basis, Debye-Ang):
   XX=           -116.7855   YY=            -95.2069   ZZ=            -90.7391
   XY=             11.7597   XZ=             -0.0523   YZ=              2.3048

 Normal termination of Gaussian 16 at Thu May  6 06:24:05 2021.
