 Gaussian 16, Revision A.03,
 Gaussian 16:  EM64L-G16RevA.03 25-Dec-2016

 -------------
 #p 6-31g* mp2
 -------------

 ------------------------------------------------------
 Input file generated by CHIRIPA (05-May-2021 14:55:20)
 ------------------------------------------------------
 Symbolic Z-matrix:
 Charge =  0 Multiplicity = 1

                         Standard orientation:
 ---------------------------------------------------------------------
 Center     Atomic      Atomic             Coordinates (Angstroms)
 Number     Number       Type             X           Y           Z
 ---------------------------------------------------------------------
      1          6           0       -1.120192   -0.900598    0.113402
      2          6           0       -2.092951   -1.901896    0.200948
      3          6           0       -3.451663   -1.579719    0.132739
      4          6           0       -3.803667   -0.240011   -0.024001
      5          6           0       -2.858060    0.780265   -0.114298
      6          6           0       -1.505172    0.434932   -0.043665
      7          1           0       -0.066975   -1.159867    0.167330
      8          1           0       -1.796889   -2.939927    0.322951
      9          1           0       -4.225544   -2.334896    0.197803
     10          1           0       -3.183947    1.806171   -0.235674
     11          1           0       -0.751896    1.214649   -0.111939
     12          7           0       -5.238991    0.113321   -0.097494
     13          8           0       -5.523138    1.301080   -0.235787
     14          8           0       -6.052673   -0.804188   -0.015413
     15          6           0        5.113820    0.040985   -0.393552
     16          6           0        5.953111   -0.944688    0.420097
     17          6           0        7.045089   -1.618369   -0.411488
     18          1           0        4.657231   -0.488401   -1.241032
     19          1           0        5.774301    0.807102   -0.822763
     20          1           0        5.291064   -1.707929    0.848786
     21          1           0        6.407599   -0.412936    1.265848
     22          1           0        7.728836   -0.871210   -0.827234
     23          1           0        6.605956   -2.173561   -1.246666
     24          1           0        7.632959   -2.318878    0.189808
     25          6           0        4.017976    0.722521    0.423985
     26          6           0        3.178685    1.708195   -0.389663
     27          6           0        2.086707    2.381874    0.441920
     28          1           0        3.357495   -0.043597    0.853197
     29          1           0        4.474565    1.251906    1.271465
     30          1           0        2.724197    1.176442   -1.235414
     31          1           0        3.840732    2.471435   -0.818353
     32          1           0        2.525840    2.937067    1.277099
     33          1           0        1.402960    1.634716    0.857668
     34          1           0        1.498837    3.082384   -0.159374
 ---------------------------------------------------------------------

 SCF Done:  E(RHF) =  -669.535433388     A.U. after   15 cycles
 E2 =    -0.2091204832D+01 EUMP2 =    -0.67162663822032D+03

 The electronic state is 1-A.
 Alpha  occ. eigenvalues --  -20.60729 -20.60724 -15.85781 -11.31143 -11.27712
 Alpha  occ. eigenvalues --  -11.27692 -11.27457 -11.26737 -11.26657 -11.22651
 Alpha  occ. eigenvalues --  -11.22337 -11.22315 -11.22276 -11.22146 -11.21634
 Alpha  occ. eigenvalues --   -1.59804  -1.39358  -1.19312  -1.09310  -1.08711
 Alpha  occ. eigenvalues --   -1.04713  -1.04413  -0.96877  -0.95548  -0.87898
 Alpha  occ. eigenvalues --   -0.86111  -0.82376  -0.80480  -0.79086  -0.77424
 Alpha  occ. eigenvalues --   -0.72000  -0.71127  -0.70433  -0.65972  -0.64964
 Alpha  occ. eigenvalues --   -0.64736  -0.62171  -0.61705  -0.60252  -0.58458
 Alpha  occ. eigenvalues --   -0.56186  -0.55218  -0.53586  -0.53296  -0.53041
 Alpha  occ. eigenvalues --   -0.52778  -0.50786  -0.48798  -0.48756  -0.48741
 Alpha  occ. eigenvalues --   -0.47508  -0.46631  -0.46549  -0.44764  -0.44659
 Alpha  occ. eigenvalues --   -0.37299  -0.36311
 Alpha virt. eigenvalues --    0.05105   0.11290   0.16600   0.19028   0.22583
 Alpha virt. eigenvalues --    0.23833   0.25185   0.25982   0.26518   0.28209
 Alpha virt. eigenvalues --    0.29010   0.30301   0.30987   0.31314   0.31400

 Mulliken charges:
               1
     1  C   -0.173564
     2  C   -0.218345
     3  C   -0.171380
     4  C    0.158941
     5  C   -0.172201
     6  C   -0.224870
     7  H    0.224801
     8  H    0.223084
     9  H    0.275407
    10  H    0.275838
    11  H    0.233903
    12  N    0.488004
    13  O   -0.460410
    14  O   -0.460599
    15  C   -0.298882
    16  C   -0.299923
    17  C   -0.476132
    18  H    0.149148
    19  H    0.152265
    20  H    0.150522
    21  H    0.153672
    22  H    0.156696
    23  H    0.155350
    24  H    0.162039
    25  C   -0.298097
    26  C   -0.301201
    27  C   -0.482167
    28  H    0.144094
    29  H    0.153309
    30  H    0.150176
    31  H    0.157547
    32  H    0.163160
    33  H    0.148724
    34  H    0.161092
 Sum of Mulliken charges =  -0.00000

 Dipole moment (field-independent basis, Debye):
    X=              5.3215    Y=             -1.1680    Z=              0.2594  Tot=              5.4543
 Quadrupole moment (field-independent basis, Debye-Ang):
   XX=           -132.7647   YY=            -88.9947   ZZ=            -95.7799
   XY=              6.1079   XZ=             -0.6813   YZ=             -0.6356

 Normal termination of Gaussian 16 at Thu May  6 15:45:52 2021.
