 Gaussian 16, Revision A.03,
 Gaussian 16:  EM64L-G16RevA.03 25-Dec-2016

 -------------
 #p 6-31g* mp2
 -------------

 ------------------------------------------------------
 Input file generated by CHIRIPA (05-May-2021 14:55:25)
 ------------------------------------------------------
 Symbolic Z-matrix:
 Charge =  0 Multiplicity = 1

                         Standard orientation:
 ---------------------------------------------------------------------
 Center     Atomic      Atomic             Coordinates (Angstroms)
 Number     Number       Type             X           Y           Z
 ---------------------------------------------------------------------
      1          6           0        0.874201   -0.867223    1.238825
      2          6           0        1.813410   -1.867494    0.967046
      3          6           0        3.034157   -1.550272    0.363974
      4          6           0        3.283907   -0.216513    0.044597
      5          6           0        2.368429    0.802591    0.302696
      6          6           0        1.154214    0.462284    0.906369
      7          1           0       -0.071568   -1.122615    1.707539
      8          1           0        1.598652   -2.900851    1.224139
      9          1           0        3.779156   -2.304787    0.142382
     10          1           0        2.611001    1.823787    0.034858
     11          1           0        0.426687    1.241189    1.116263
     12          7           0        4.572800    0.131536   -0.594166
     13          8           0        4.768776    1.314099   -0.865782
     14          8           0        5.362652   -0.784817   -0.811118
     15          6           0       -4.550250   -0.092942   -0.129526
     16          6           0       -4.328600   -1.517906   -0.637794
     17          6           0       -5.575494   -2.393015   -0.506512
     18          1           0       -4.864541   -0.130426    0.922501
     19          1           0       -5.379781    0.363050   -0.687509
     20          1           0       -3.498829   -1.970594   -0.079968
     21          1           0       -4.014615   -1.477015   -1.688677
     22          1           0       -6.406877   -1.967168   -1.077526
     23          1           0       -5.888160   -2.463551    0.540325
     24          1           0       -5.394750   -3.407365   -0.875680
     25          6           0       -3.312745    0.794063   -0.254149
     26          6           0       -3.534394    2.219027    0.254119
     27          6           0       -2.287500    3.094136    0.122837
     28          1           0       -2.483214    0.338071    0.303834
     29          1           0       -2.998453    0.831548   -1.306176
     30          1           0       -3.848380    2.178136    1.305003
     31          1           0       -4.364166    2.671715   -0.303706
     32          1           0       -1.974834    3.164672   -0.924000
     33          1           0       -1.456117    2.668289    0.693851
     34          1           0       -2.468245    4.108486    0.492006
 ---------------------------------------------------------------------

 SCF Done:  E(RHF) =  -669.535412223     A.U. after   15 cycles
 E2 =    -0.2091488801D+01 EUMP2 =    -0.67162690102390D+03

 The electronic state is 1-A.
 Alpha  occ. eigenvalues --  -20.60735 -20.60730 -15.85788 -11.31155 -11.27724
 Alpha  occ. eigenvalues --  -11.27711 -11.27475 -11.26744 -11.26718 -11.22460
 Alpha  occ. eigenvalues --  -11.22308 -11.22273 -11.22116 -11.22071 -11.21659
 Alpha  occ. eigenvalues --   -1.59811  -1.39364  -1.19326  -1.09239  -1.08724
 Alpha  occ. eigenvalues --   -1.04729  -1.04321  -0.96777  -0.95558  -0.87792
 Alpha  occ. eigenvalues --   -0.86131  -0.82390  -0.80384  -0.79044  -0.77435
 Alpha  occ. eigenvalues --   -0.72007  -0.71133  -0.70441  -0.65895  -0.64979
 Alpha  occ. eigenvalues --   -0.64747  -0.62138  -0.61673  -0.60131  -0.58379
 Alpha  occ. eigenvalues --   -0.56101  -0.55228  -0.53449  -0.53254  -0.53057
 Alpha  occ. eigenvalues --   -0.52781  -0.50715  -0.48792  -0.48762  -0.48664
 Alpha  occ. eigenvalues --   -0.47415  -0.46583  -0.46506  -0.44769  -0.44572
 Alpha  occ. eigenvalues --   -0.37305  -0.36325
 Alpha virt. eigenvalues --    0.05090   0.11269   0.16558   0.18845   0.22497
 Alpha virt. eigenvalues --    0.23418   0.25117   0.25490   0.26432   0.28352
 Alpha virt. eigenvalues --    0.29400   0.30143   0.31026   0.31322   0.31688

 Mulliken charges:
               1
     1  C   -0.173562
     2  C   -0.218493
     3  C   -0.171137
     4  C    0.158829
     5  C   -0.173538
     6  C   -0.223740
     7  H    0.225720
     8  H    0.223267
     9  H    0.275477
    10  H    0.276191
    11  H    0.233728
    12  N    0.488071
    13  O   -0.460340
    14  O   -0.460631
    15  C   -0.299170
    16  C   -0.298810
    17  C   -0.476163
    18  H    0.149449
    19  H    0.152801
    20  H    0.146627
    21  H    0.154737
    22  H    0.157324
    23  H    0.155171
    24  H    0.161696
    25  C   -0.297652
    26  C   -0.300684
    27  C   -0.478792
    28  H    0.139699
    29  H    0.154055
    30  H    0.152373
    31  H    0.156532
    32  H    0.160209
    33  H    0.145304
    34  H    0.165453
 Sum of Mulliken charges =  -0.00000

 Dipole moment (field-independent basis, Debye):
    X=             -4.7449    Y=             -1.1755    Z=              2.1468  Tot=              5.3390
 Quadrupole moment (field-independent basis, Debye-Ang):
   XX=           -124.6377   YY=            -89.7843   ZZ=            -94.4949
   XY=             -5.4855   XZ=              7.8545   YZ=             -1.0476

 Normal termination of Gaussian 16 at Wed May  5 16:07:29 2021.
