 Gaussian 16, Revision A.03,
 Gaussian 16:  EM64L-G16RevA.03 25-Dec-2016

 -------------
 #p 6-31g* mp2
 -------------

 ------------------------------------------------------
 Input file generated by CHIRIPA (05-May-2021 14:51:07)
 ------------------------------------------------------
 Symbolic Z-matrix:
 Charge =  0 Multiplicity = 1

                         Standard orientation:
 ---------------------------------------------------------------------
 Center     Atomic      Atomic             Coordinates (Angstroms)
 Number     Number       Type             X           Y           Z
 ---------------------------------------------------------------------
      1          6           0       -2.543519    0.088489   -0.308355
      2          6           0       -3.944463   -0.486690   -0.519328
      3          6           0       -3.921536   -1.940032   -0.993738
      4          1           0       -1.979327    0.016969   -1.248311
      5          1           0       -2.007762   -0.529352    0.425560
      6          1           0       -4.477904    0.132860   -1.251595
      7          1           0       -4.505449   -0.413617    0.421189
      8          1           0       -3.413041   -2.576145   -0.262033
      9          1           0       -3.385339   -2.026563   -1.944321
     10          1           0       -4.933455   -2.331202   -1.138192
     11          6           0       -2.549936    1.540637    0.165937
     12          6           0       -1.148992    2.115815    0.376910
     13          6           0       -1.171919    3.569157    0.851320
     14          1           0       -3.085693    2.158477   -0.567978
     15          1           0       -3.114128    1.612156    1.105893
     16          1           0       -0.588006    2.042743   -0.563607
     17          1           0       -0.615551    1.496266    1.109177
     18          1           0       -1.708116    3.655689    1.801902
     19          1           0       -1.680414    4.205271    0.119615
     20          1           0       -0.160000    3.960327    0.995774
     21          6           0        2.727362   -0.077990   -0.019697
     22          6           0        4.091545    0.135188   -0.676616
     23          6           0        4.438753    1.613900   -0.851700
     24          1           0        1.954333    0.412190   -0.627228
     25          1           0        2.717884    0.420276    0.959607
     26          1           0        4.098918   -0.364503   -1.653791
     27          1           0        4.861394   -0.355720   -0.067552
     28          1           0        4.458975    2.122266    0.117710
     29          1           0        3.692166    2.113433   -1.477542
     30          1           0        5.417982    1.743270   -1.323115
     31          6           0        2.366093   -1.551136    0.162115
     32          6           0        1.001909   -1.764314    0.819034
     33          6           0        0.654702   -3.243025    0.994119
     34          1           0        2.375571   -2.049401   -0.817188
     35          1           0        3.139122   -2.041315    0.769647
     36          1           0        0.232061   -1.273406    0.209970
     37          1           0        0.994537   -1.264622    1.796209
     38          1           0        1.401289   -3.742557    1.619960
     39          1           0        0.634480   -3.751391    0.024708
     40          1           0       -0.324528   -3.372396    1.465533
 ---------------------------------------------------------------------

 SCF Done:  E(RHF) =  -470.733024633     A.U. after   11 cycles
 E2 =    -0.1584068127D+01 EUMP2 =    -0.47231709276048D+03

 The electronic state is 1-A.
 Alpha  occ. eigenvalues --  -11.21617 -11.21578 -11.21577 -11.21506 -11.21409
 Alpha  occ. eigenvalues --  -11.21359 -11.21350 -11.21299 -11.21088 -11.21060
 Alpha  occ. eigenvalues --  -11.21058 -11.21057  -1.08462  -1.08372  -1.03534
 Alpha  occ. eigenvalues --   -1.03498  -0.95991  -0.95947  -0.87007  -0.86962
 Alpha  occ. eigenvalues --   -0.79627  -0.79555  -0.78455  -0.78007  -0.65094
 Alpha  occ. eigenvalues --   -0.65008  -0.60945  -0.60889  -0.59365  -0.59316
 Alpha  occ. eigenvalues --   -0.57668  -0.57496  -0.55280  -0.55234  -0.52696
 Alpha  occ. eigenvalues --   -0.52635  -0.52436  -0.52357  -0.49948  -0.49878
 Alpha  occ. eigenvalues --   -0.47996  -0.47861  -0.46748  -0.46616  -0.46193
 Alpha  occ. eigenvalues --   -0.45783  -0.45622  -0.45056  -0.43788  -0.43740
 Alpha virt. eigenvalues --    0.21276   0.22663   0.23549   0.24390   0.25008
 Alpha virt. eigenvalues --    0.26042   0.26806   0.27571   0.28345   0.29819
 Alpha virt. eigenvalues --    0.30566   0.31201   0.31725   0.31803   0.32356

 Mulliken charges:
               1
     1  C   -0.304132
     2  C   -0.298988
     3  C   -0.476098
     4  H    0.148345
     5  H    0.156599
     6  H    0.151888
     7  H    0.151938
     8  H    0.155499
     9  H    0.154922
    10  H    0.160446
    11  C   -0.297862
    12  C   -0.302694
    13  C   -0.475866
    14  H    0.149299
    15  H    0.149534
    16  H    0.151887
    17  H    0.155684
    18  H    0.155009
    19  H    0.154953
    20  H    0.160671
    21  C   -0.300261
    22  C   -0.299671
    23  C   -0.475533
    24  H    0.152448
    25  H    0.149185
    26  H    0.151713
    27  H    0.151862
    28  H    0.155086
    29  H    0.154914
    30  H    0.160151
    31  C   -0.297724
    32  C   -0.308203
    33  C   -0.475924
    34  H    0.149158
    35  H    0.149153
    36  H    0.162557
    37  H    0.150279
    38  H    0.155181
    39  H    0.155554
    40  H    0.159044
 Sum of Mulliken charges =  -0.00000

 Dipole moment (field-independent basis, Debye):
    X=             -0.0248    Y=              0.0106    Z=             -0.0007  Tot=              0.0269
 Quadrupole moment (field-independent basis, Debye-Ang):
   XX=            -84.8671   YY=            -86.9278   ZZ=            -83.1491
   XY=             -0.5135   XZ=              0.3849   YZ=             -0.4157

 Normal termination of Gaussian 16 at Wed May  5 16:33:47 2021.
