 Gaussian 16, Revision A.03,
 Gaussian 16:  EM64L-G16RevA.03 25-Dec-2016

 -------------
 #p 6-31g* mp2
 -------------

 ------------------------------------------------------
 Input file generated by CHIRIPA (05-May-2021 14:51:11)
 ------------------------------------------------------
 Symbolic Z-matrix:
 Charge =  0 Multiplicity = 1

                         Standard orientation:
 ---------------------------------------------------------------------
 Center     Atomic      Atomic             Coordinates (Angstroms)
 Number     Number       Type             X           Y           Z
 ---------------------------------------------------------------------
      1          6           0       -3.755558    0.015790    0.138775
      2          6           0       -2.600156   -0.898727   -0.269502
      3          6           0       -1.229876   -0.276800    0.001301
      4          1           0       -3.670026    0.967964   -0.402513
      5          1           0       -3.664972    0.254559    1.207503
      6          1           0       -2.693671   -1.136820   -1.336828
      7          1           0       -2.688556   -1.848907    0.272677
      8          1           0       -1.111278   -0.054971    1.066818
      9          1           0       -1.116421    0.661162   -0.551832
     10          1           0       -0.418382   -0.947444   -0.297989
     11          6           0       -5.131882   -0.592052   -0.125777
     12          6           0       -6.287285    0.322464    0.282501
     13          6           0       -7.657564   -0.299462    0.011698
     14          1           0       -5.222469   -0.830822   -1.194504
     15          1           0       -5.217414   -1.544227    0.415511
     16          1           0       -6.198884    1.272645   -0.259679
     17          1           0       -6.193770    0.560557    1.349826
     18          1           0       -7.771020   -1.237425    0.564830
     19          1           0       -7.776163   -0.521291   -1.053820
     20          1           0       -8.469058    0.371182    0.310987
     21          6           0        3.693656    0.369252   -0.125888
     22          6           0        3.202890    1.806150    0.054279
     23          6           0        1.700311    1.952384   -0.187926
     24          1           0        3.449857    0.029947   -1.141949
     25          1           0        3.144633   -0.287446    0.563109
     26          1           0        3.753653    2.460153   -0.633876
     27          1           0        3.448056    2.142140    1.069966
     28          1           0        1.135010    1.323541    0.507483
     29          1           0        1.442343    1.643361   -1.206041
     30          1           0        1.370908    2.987454   -0.053817
     31          6           0        5.193785    0.207010    0.112890
     32          6           0        5.684550   -1.229887   -0.067277
     33          6           0        7.187130   -1.376122    0.174928
     34          1           0        5.742808    0.863708   -0.576107
     35          1           0        5.437583    0.546316    1.128951
     36          1           0        5.439384   -1.565877   -1.082965
     37          1           0        5.133788   -1.883890    0.620878
     38          1           0        7.445098   -1.067098    1.193042
     39          1           0        7.752431   -0.747279   -0.520481
     40          1           0        7.516533   -2.411191    0.040818
 ---------------------------------------------------------------------

 SCF Done:  E(RHF) =  -470.732641512     A.U. after   11 cycles
 E2 =    -0.1582698474D+01 EUMP2 =    -0.47231533998569D+03

 The electronic state is 1-A.
 Alpha  occ. eigenvalues --  -11.21582 -11.21576 -11.21538 -11.21511 -11.21375
 Alpha  occ. eigenvalues --  -11.21360 -11.21315 -11.21298 -11.21057 -11.21051
 Alpha  occ. eigenvalues --  -11.20983 -11.20891  -1.08402  -1.08373  -1.03523
 Alpha  occ. eigenvalues --   -1.03439  -0.96023  -0.95845  -0.87101  -0.86808
 Alpha  occ. eigenvalues --   -0.79703  -0.79402  -0.78238  -0.78158  -0.65031
 Alpha  occ. eigenvalues --   -0.65006  -0.60911  -0.60851  -0.59363  -0.59241
 Alpha  occ. eigenvalues --   -0.57635  -0.57468  -0.55276  -0.55175  -0.52840
 Alpha  occ. eigenvalues --   -0.52632  -0.52467  -0.52049  -0.49929  -0.49805
 Alpha  occ. eigenvalues --   -0.48042  -0.47654  -0.46615  -0.46528  -0.45825
 Alpha  occ. eigenvalues --   -0.45702  -0.45651  -0.45593  -0.43740  -0.43711
 Alpha virt. eigenvalues --    0.22520   0.22969   0.23678   0.24736   0.26306
 Alpha virt. eigenvalues --    0.26471   0.26885   0.27427   0.27792   0.29281
 Alpha virt. eigenvalues --    0.30115   0.31040   0.31463   0.31957   0.32247

 Mulliken charges:
               1
     1  C   -0.298261
     2  C   -0.301038
     3  C   -0.477268
     4  H    0.149714
     5  H    0.149287
     6  H    0.151613
     7  H    0.151305
     8  H    0.153107
     9  H    0.160672
    10  H    0.160619
    11  C   -0.298204
    12  C   -0.299597
    13  C   -0.475681
    14  H    0.149452
    15  H    0.149551
    16  H    0.151928
    17  H    0.151854
    18  H    0.155129
    19  H    0.155150
    20  H    0.160184
    21  C   -0.298227
    22  C   -0.300110
    23  C   -0.480185
    24  H    0.149305
    25  H    0.149473
    26  H    0.151136
    27  H    0.151320
    28  H    0.165292
    29  H    0.154221
    30  H    0.158646
    31  C   -0.298160
    32  C   -0.299598
    33  C   -0.475666
    34  H    0.149454
    35  H    0.149544
    36  H    0.151811
    37  H    0.151817
    38  H    0.155138
    39  H    0.155145
    40  H    0.160129
 Sum of Mulliken charges =  -0.00000

 Dipole moment (field-independent basis, Debye):
    X=             -0.0159    Y=              0.0047    Z=              0.0015  Tot=              0.0167
 Quadrupole moment (field-independent basis, Debye-Ang):
   XX=            -87.3407   YY=            -84.8617   ZZ=            -82.9413
   XY=             -0.1056   XZ=             -0.4410   YZ=             -0.5802

 Normal termination of Gaussian 16 at Thu May  6 00:39:38 2021.
