 Gaussian 16, Revision A.03,
 Gaussian 16:  EM64L-G16RevA.03 25-Dec-2016

 -------------
 #p 6-31g* mp2
 -------------

 ------------------------------------------------------
 Input file generated by CHIRIPA (05-May-2021 14:55:22)
 ------------------------------------------------------
 Symbolic Z-matrix:
 Charge =  0 Multiplicity = 1

                         Standard orientation:
 ---------------------------------------------------------------------
 Center     Atomic      Atomic             Coordinates (Angstroms)
 Number     Number       Type             X           Y           Z
 ---------------------------------------------------------------------
      1          6           0       -4.152739    1.064324    0.535624
      2          6           0       -3.733380    0.131302    1.489631
      3          6           0       -2.743905   -0.806188    1.178824
      4          6           0       -2.192816   -0.782071   -0.101414
      5          6           0       -2.589459    0.134882   -1.073608
      6          6           0       -3.580449    1.063138   -0.740700
      7          1           0       -4.921976    1.789002    0.785651
      8          1           0       -4.176062    0.129882    2.481637
      9          1           0       -2.400568   -1.539656    1.898242
     10          1           0       -2.129561    0.111642   -2.054103
     11          1           0       -3.904171    1.786566   -1.483601
     12          7           0       -1.144501   -1.769661   -0.442149
     13          8           0       -0.674703   -1.727598   -1.577120
     14          8           0       -0.812480   -2.567098    0.432204
     15          6           0        3.661181    0.597896    0.438067
     16          6           0        4.432382   -0.549045   -0.215967
     17          6           0        5.696703   -0.927318    0.556168
     18          1           0        4.318854    1.474142    0.519340
     19          1           0        3.393229    0.311907    1.464618
     20          1           0        4.697599   -0.261519   -1.241445
     21          1           0        3.772737   -1.422602   -0.295867
     22          1           0        5.446741   -1.239806    1.575222
     23          1           0        6.376856   -0.072125    0.624271
     24          1           0        6.232547   -1.749175    0.071109
     25          6           0        2.394731    0.987522   -0.322211
     26          6           0        1.623531    2.134462    0.331824
     27          6           0        0.359209    2.512736   -0.440313
     28          1           0        2.662684    1.273511   -1.348762
     29          1           0        1.737059    0.111276   -0.403484
     30          1           0        2.283174    3.008020    0.411723
     31          1           0        1.358313    1.846936    1.357302
     32          1           0       -0.320944    1.657543   -0.508416
     33          1           0        0.609172    2.825223   -1.459366
     34          1           0       -0.176636    3.334592    0.044748
 ---------------------------------------------------------------------

 SCF Done:  E(RHF) =  -669.535142157     A.U. after   15 cycles
 E2 =    -0.2093252320D+01 EUMP2 =    -0.67162839447723D+03

 The electronic state is 1-A.
 Alpha  occ. eigenvalues --  -20.60938 -20.60910 -15.85962 -11.31276 -11.27855
 Alpha  occ. eigenvalues --  -11.27830 -11.27584 -11.26849 -11.26832 -11.21276
 Alpha  occ. eigenvalues --  -11.20870 -11.20864 -11.20797 -11.20738 -11.20463
 Alpha  occ. eigenvalues --   -1.59996  -1.39548  -1.19466  -1.08860  -1.07880
 Alpha  occ. eigenvalues --   -1.04859  -1.03047  -0.95708  -0.95507  -0.86550
 Alpha  occ. eigenvalues --   -0.86247  -0.82529  -0.79115  -0.77667  -0.77575
 Alpha  occ. eigenvalues --   -0.72176  -0.71324  -0.70566  -0.65109  -0.64848
 Alpha  occ. eigenvalues --   -0.64509  -0.62200  -0.60465  -0.58890  -0.57126
 Alpha  occ. eigenvalues --   -0.55355  -0.54921  -0.53209  -0.52939  -0.52220
 Alpha  occ. eigenvalues --   -0.51882  -0.49434  -0.48943  -0.48934  -0.47433
 Alpha  occ. eigenvalues --   -0.46145  -0.45287  -0.45163  -0.44789  -0.43280
 Alpha  occ. eigenvalues --   -0.37420  -0.36388
 Alpha virt. eigenvalues --    0.04929   0.11143   0.16411   0.21328   0.23269
 Alpha virt. eigenvalues --    0.24687   0.27030   0.27199   0.27832   0.28340
 Alpha virt. eigenvalues --    0.28610   0.30906   0.31765   0.32115   0.32325

 Mulliken charges:
               1
     1  C   -0.170669
     2  C   -0.218102
     3  C   -0.171355
     4  C    0.160849
     5  C   -0.176241
     6  C   -0.214211
     7  H    0.226144
     8  H    0.223819
     9  H    0.275748
    10  H    0.276976
    11  H    0.224523
    12  N    0.487914
    13  O   -0.459564
    14  O   -0.460166
    15  C   -0.297728
    16  C   -0.301381
    17  C   -0.475532
    18  H    0.146151
    19  H    0.148868
    20  H    0.150639
    21  H    0.161994
    22  H    0.154761
    23  H    0.152169
    24  H    0.160085
    25  C   -0.301816
    26  C   -0.299116
    27  C   -0.480048
    28  H    0.148884
    29  H    0.159748
    30  H    0.150031
    31  H    0.150013
    32  H    0.158325
    33  H    0.153186
    34  H    0.155099
 Sum of Mulliken charges =  -0.00000

 Dipole moment (field-independent basis, Debye):
    X=             -3.8398    Y=              3.3232    Z=              1.1576  Tot=              5.2085
 Quadrupole moment (field-independent basis, Debye-Ang):
   XX=            -79.9393   YY=           -100.1864   ZZ=            -90.7534
   XY=             -4.4318   XZ=             -3.5133   YZ=             -3.5520

 Normal termination of Gaussian 16 at Wed May  5 23:52:19 2021.
