 Gaussian 16, Revision A.03,
 Gaussian 16:  EM64L-G16RevA.03 25-Dec-2016

 -------------
 #p 6-31g* mp2
 -------------

 ------------------------------------------------------
 Input file generated by CHIRIPA (05-May-2021 14:57:21)
 ------------------------------------------------------
 Symbolic Z-matrix:
 Charge =  0 Multiplicity = 1

                         Standard orientation:
 ---------------------------------------------------------------------
 Center     Atomic      Atomic             Coordinates (Angstroms)
 Number     Number       Type             X           Y           Z
 ---------------------------------------------------------------------
      1          6           0        1.210075   -2.472277    0.857949
      2          6           0        1.586566   -1.508907    1.799593
      3          6           0        2.333302   -0.391993    1.413025
      4          6           0        2.688005   -0.269582    0.070456
      5          6           0        2.328045   -1.212299   -0.891316
      6          6           0        1.581361   -2.321165   -0.482137
      7          1           0        0.630012   -3.336798    1.167027
      8          1           0        1.299627   -1.623660    2.841007
      9          1           0        2.638135    0.368916    2.121200
     10          1           0        2.628912   -1.070477   -1.922230
     11          1           0        1.290374   -3.067748   -1.215612
     12          7           0        3.478513    0.908585   -0.350755
     13          8           0        3.778485    0.993269   -1.539655
     14          8           0        3.783173    1.725039    0.515975
     15          6           0       -1.381449    2.677258    0.147755
     16          6           0       -0.711012    1.599445   -0.439914
     17          6           0       -1.352889    0.368383   -0.604319
     18          6           0       -2.671436    0.249765   -0.167684
     19          6           0       -3.366204    1.304977    0.421485
     20          6           0       -2.704572    2.526849    0.575825
     21          1           0       -0.875150    3.630007    0.271560
     22          1           0        0.316570    1.713366   -0.773296
     23          1           0       -0.857501   -0.482470   -1.056046
     24          1           0       -4.390267    1.160971    0.743935
     25          1           0       -3.227720    3.362168    1.032555
     26          7           0       -3.361420   -1.048640   -0.336404
     27          8           0       -4.523299   -1.127439    0.056615
     28          8           0       -2.727284   -1.962945   -0.858472
 ---------------------------------------------------------------------

 SCF Done:  E(RHF) =  -868.339402845     A.U. after   16 cycles
 E2 =    -0.2602064701D+01 EUMP2 =    -0.87094146754531D+03

 The electronic state is 1-A.
 Alpha  occ. eigenvalues --  -20.61520 -20.61509 -20.61084 -20.61049 -15.86561
 Alpha  occ. eigenvalues --  -15.86114 -11.31775 -11.31240 -11.28318 -11.28302
 Alpha  occ. eigenvalues --  -11.27881 -11.27814 -11.27727 -11.27455 -11.27203
 Alpha  occ. eigenvalues --  -11.27184 -11.26763 -11.26690  -1.60614  -1.60147
 Alpha  occ. eigenvalues --   -1.40161  -1.39708  -1.19933  -1.19395  -1.09313
 Alpha  occ. eigenvalues --   -1.08828  -1.05280  -1.04761  -0.96170  -0.95700
 Alpha  occ. eigenvalues --   -0.86652  -0.86169  -0.82992  -0.82546  -0.78093
 Alpha  occ. eigenvalues --   -0.77635  -0.72757  -0.72342  -0.71981  -0.71468
 Alpha  occ. eigenvalues --   -0.70915  -0.70482  -0.65531  -0.65204  -0.65043
 Alpha  occ. eigenvalues --   -0.64758  -0.62601  -0.62146  -0.55663  -0.55273
 Alpha  occ. eigenvalues --   -0.53712  -0.53309  -0.52990  -0.52835  -0.49535
 Alpha  occ. eigenvalues --   -0.49510  -0.49104  -0.49069  -0.45585  -0.45167
 Alpha  occ. eigenvalues --   -0.37880  -0.37327  -0.36927  -0.36301
 Alpha virt. eigenvalues --    0.04376   0.04884   0.10673   0.11343   0.15924
 Alpha virt. eigenvalues --    0.16426   0.21075   0.21459   0.26734   0.27103
 Alpha virt. eigenvalues --    0.28101   0.28465   0.30359   0.31264   0.32097

 Mulliken charges:
               1
     1  C   -0.166576
     2  C   -0.217838
     3  C   -0.170271
     4  C    0.151663
     5  C   -0.181505
     6  C   -0.222944
     7  H    0.235936
     8  H    0.226938
     9  H    0.275720
    10  H    0.277201
    11  H    0.233021
    12  N    0.486538
    13  O   -0.459847
    14  O   -0.460325
    15  C   -0.171367
    16  C   -0.221316
    17  C   -0.171357
    18  C    0.155470
    19  C   -0.171528
    20  C   -0.219622
    21  H    0.230429
    22  H    0.226970
    23  H    0.275076
    24  H    0.274483
    25  H    0.223653
    26  N    0.488190
    27  O   -0.459869
    28  O   -0.466922
 Sum of Mulliken charges =  -0.00000

 Dipole moment (field-independent basis, Debye):
    X=             -0.2466    Y=              0.2559    Z=              2.2255  Tot=              2.2537
 Quadrupole moment (field-independent basis, Debye-Ang):
   XX=           -130.9359   YY=            -99.1258   ZZ=           -100.0907
   XY=            -24.4027   XZ=             -0.1087   YZ=              1.2353

 Normal termination of Gaussian 16 at Thu May  6 03:19:07 2021.
