 Gaussian 16, Revision A.03,
 Gaussian 16:  EM64L-G16RevA.03 25-Dec-2016

 -------------
 #p 6-31g* mp2
 -------------

 ------------------------------------------------------
 Input file generated by CHIRIPA (05-May-2021 14:57:24)
 ------------------------------------------------------
 Symbolic Z-matrix:
 Charge =  0 Multiplicity = 1

                         Standard orientation:
 ---------------------------------------------------------------------
 Center     Atomic      Atomic             Coordinates (Angstroms)
 Number     Number       Type             X           Y           Z
 ---------------------------------------------------------------------
      1          6           0       -4.399503   -2.177954   -0.749291
      2          6           0       -5.165689   -1.057984   -1.088626
      3          6           0       -4.739501    0.226544   -0.738056
      4          6           0       -3.536659    0.355058   -0.045275
      5          6           0       -2.751051   -0.741281    0.307075
      6          6           0       -3.196750   -2.016313   -0.053750
      7          1           0       -4.738155   -3.172118   -1.025605
      8          1           0       -6.100180   -1.180508   -1.628773
      9          1           0       -5.313034    1.110805   -0.988173
     10          1           0       -1.823898   -0.587438    0.845720
     11          1           0       -2.599663   -2.884291    0.211101
     12          7           0       -3.075145    1.709904    0.331286
     13          8           0       -2.011730    1.796358    0.941460
     14          8           0       -3.785564    2.659724    0.009131
     15          6           0        1.684566   -0.901336    1.541177
     16          6           0        2.649118   -1.819672    1.113599
     17          6           0        3.721737   -1.404479    0.318835
     18          6           0        3.799129   -0.057364   -0.031281
     19          6           0        2.854012    0.881643    0.378973
     20          6           0        1.789906    0.444018    1.173148
     21          1           0        0.854637   -1.232581    2.158339
     22          1           0        2.569858   -2.865112    1.397884
     23          1           0        4.482479   -2.094206   -0.026078
     24          1           0        2.959881    1.917256    0.079446
     25          1           0        1.042293    1.159433    1.503753
     26          7           0        4.930156    0.394057   -0.872352
     27          8           0        4.975663    1.586383   -1.167180
     28          8           0        5.749732   -0.452994   -1.220827
 ---------------------------------------------------------------------

 SCF Done:  E(RHF) =  -868.338852745     A.U. after   16 cycles
 E2 =    -0.2599441909D+01 EUMP2 =    -0.87093829465396D+03

 The electronic state is 1-A.
 Alpha  occ. eigenvalues --  -20.61626 -20.61568 -20.60586 -20.60572 -15.86649
 Alpha  occ. eigenvalues --  -15.85629 -11.31883 -11.31002 -11.28506 -11.28392
 Alpha  occ. eigenvalues --  -11.28129 -11.27579 -11.27451 -11.27439 -11.27375
 Alpha  occ. eigenvalues --  -11.27346 -11.26679 -11.26395  -1.60657  -1.59656
 Alpha  occ. eigenvalues --   -1.40222  -1.39208  -1.20037  -1.19155  -1.09448
 Alpha  occ. eigenvalues --   -1.08574  -1.05430  -1.04525  -0.96311  -0.95411
 Alpha  occ. eigenvalues --   -0.86832  -0.85932  -0.83160  -0.82214  -0.78232
 Alpha  occ. eigenvalues --   -0.77242  -0.72882  -0.71965  -0.71848  -0.71153
 Alpha  occ. eigenvalues --   -0.70977  -0.70317  -0.65700  -0.65437  -0.64804
 Alpha  occ. eigenvalues --   -0.64488  -0.62794  -0.61836  -0.55920  -0.55111
 Alpha  occ. eigenvalues --   -0.53749  -0.53530  -0.52888  -0.52584  -0.49639
 Alpha  occ. eigenvalues --   -0.49594  -0.48607  -0.48602  -0.45654  -0.44611
 Alpha  occ. eigenvalues --   -0.37991  -0.37198  -0.37016  -0.36114
 Alpha virt. eigenvalues --    0.04317   0.05217   0.10634   0.11470   0.15837
 Alpha virt. eigenvalues --    0.16646   0.19531   0.21924   0.25446   0.27019
 Alpha virt. eigenvalues --    0.27942   0.29211   0.30725   0.31033   0.32200

 Mulliken charges:
               1
     1  C   -0.169831
     2  C   -0.218230
     3  C   -0.169744
     4  C    0.158865
     5  C   -0.169642
     6  C   -0.217903
     7  H    0.227847
     8  H    0.226098
     9  H    0.277525
    10  H    0.267809
    11  H    0.222045
    12  N    0.491982
    13  O   -0.472204
    14  O   -0.454769
    15  C   -0.178511
    16  C   -0.218216
    17  C   -0.172634
    18  C    0.159283
    19  C   -0.172280
    20  C   -0.223265
    21  H    0.219191
    22  H    0.219659
    23  H    0.274196
    24  H    0.278992
    25  H    0.246471
    26  N    0.487875
    27  O   -0.458734
    28  O   -0.461876
 Sum of Mulliken charges =  -0.00000

 Dipole moment (field-independent basis, Debye):
    X=             -5.8840    Y=             -6.1800    Z=              1.5219  Tot=              8.6677
 Quadrupole moment (field-independent basis, Debye-Ang):
   XX=           -119.5850   YY=           -103.3023   ZZ=           -105.5240
   XY=              7.3370   XZ=             18.6089   YZ=             -0.9829

 Normal termination of Gaussian 16 at Wed May  5 21:06:32 2021.
