 Gaussian 16, Revision A.03,
 Gaussian 16:  EM64L-G16RevA.03 25-Dec-2016

 -------------
 #p 6-31g* mp2
 -------------

 ------------------------------------------------------
 Input file generated by CHIRIPA (05-May-2021 14:57:20)
 ------------------------------------------------------
 Symbolic Z-matrix:
 Charge =  0 Multiplicity = 1

                         Standard orientation:
 ---------------------------------------------------------------------
 Center     Atomic      Atomic             Coordinates (Angstroms)
 Number     Number       Type             X           Y           Z
 ---------------------------------------------------------------------
      1          6           0        0.530916    0.153015    1.708362
      2          6           0        0.711069   -0.999007    0.935760
      3          6           0        1.890168   -1.189362    0.209097
      4          6           0        2.872741   -0.202918    0.278166
      5          6           0        2.722910    0.955639    1.038814
      6          6           0        1.535640    1.124947    1.757336
      7          1           0       -0.388210    0.292712    2.269689
      8          1           0       -0.067505   -1.755494    0.895851
      9          1           0        2.055807   -2.071715   -0.397066
     10          1           0        3.517020    1.692120    1.058840
     11          1           0        1.398474    2.020618    2.356506
     12          7           0        4.125324   -0.393298   -0.486811
     13          8           0        4.975785    0.490639   -0.409280
     14          8           0        4.232922   -1.422849   -1.149445
     15          6           0       -3.850437   -1.928964    0.338469
     16          6           0       -2.835958   -1.999626   -0.621927
     17          6           0       -2.173047   -0.842242   -1.040927
     18          6           0       -2.551821    0.374611   -0.476046
     19          6           0       -3.558549    0.477555    0.482699
     20          6           0       -4.207866   -0.692778    0.886749
     21          1           0       -4.360122   -2.833076    0.658151
     22          1           0       -2.556279   -2.958295   -1.049451
     23          1           0       -1.384121   -0.868231   -1.782775
     24          1           0       -3.815263    1.447618    0.890734
     25          1           0       -4.995351   -0.634891    1.632779
     26          7           0       -1.857223    1.606735   -0.911709
     27          8           0       -2.209568    2.666615   -0.398732
     28          8           0       -0.973606    1.489265   -1.757911
 ---------------------------------------------------------------------

 SCF Done:  E(RHF) =  -868.336755230     A.U. after   16 cycles
 E2 =    -0.2603664192D+01 EUMP2 =    -0.87094041942187D+03

 The electronic state is 1-A.
 Alpha  occ. eigenvalues --  -20.61427 -20.61376 -20.60465 -20.60449 -15.86461
 Alpha  occ. eigenvalues --  -15.85510 -11.32021 -11.30872 -11.28662 -11.28607
 Alpha  occ. eigenvalues --  -11.28410 -11.27669 -11.27659 -11.27472 -11.27373
 Alpha  occ. eigenvalues --  -11.27170 -11.26480 -11.26416  -1.60473  -1.59530
 Alpha  occ. eigenvalues --   -1.40021  -1.39086  -1.20262  -1.19029  -1.09589
 Alpha  occ. eigenvalues --   -1.08442  -1.05690  -1.04443  -0.96386  -0.95282
 Alpha  occ. eigenvalues --   -0.87045  -0.85849  -0.83213  -0.82121  -0.78227
 Alpha  occ. eigenvalues --   -0.77163  -0.72676  -0.71828  -0.71735  -0.71311
 Alpha  occ. eigenvalues --   -0.70841  -0.70169  -0.65880  -0.65641  -0.64702
 Alpha  occ. eigenvalues --   -0.64489  -0.62995  -0.61820  -0.56129  -0.54976
 Alpha  occ. eigenvalues --   -0.54115  -0.53734  -0.52707  -0.52483  -0.49456
 Alpha  occ. eigenvalues --   -0.49419  -0.48496  -0.48485  -0.45380  -0.44495
 Alpha  occ. eigenvalues --   -0.38394  -0.37468  -0.36824  -0.35854
 Alpha virt. eigenvalues --    0.04186   0.05443   0.10049   0.11854   0.15669
 Alpha virt. eigenvalues --    0.16882   0.20530   0.21788   0.26303   0.27432
 Alpha virt. eigenvalues --    0.27919   0.28409   0.30057   0.31223   0.31743

 Mulliken charges:
               1
     1  C   -0.178469
     2  C   -0.219467
     3  C   -0.172830
     4  C    0.162560
     5  C   -0.167667
     6  C   -0.212483
     7  H    0.223977
     8  H    0.220654
     9  H    0.270965
    10  H    0.276458
    11  H    0.225924
    12  N    0.488319
    13  O   -0.459205
    14  O   -0.462928
    15  C   -0.171754
    16  C   -0.226700
    17  C   -0.171501
    18  C    0.159523
    19  C   -0.176506
    20  C   -0.220278
    21  H    0.228829
    22  H    0.226299
    23  H    0.280273
    24  H    0.276988
    25  H    0.226035
    26  N    0.489332
    27  O   -0.462602
    28  O   -0.453749
 Sum of Mulliken charges =  -0.00000

 Dipole moment (field-independent basis, Debye):
    X=             -6.8913    Y=             -3.4862    Z=              4.1207  Tot=              8.7535
 Quadrupole moment (field-independent basis, Debye-Ang):
   XX=           -116.2751   YY=           -103.7081   ZZ=           -103.3423
   XY=             13.5626   XZ=              2.5111   YZ=              6.0795

 Normal termination of Gaussian 16 at Wed May  5 22:31:41 2021.
