 Gaussian 16, Revision A.03,
 Gaussian 16:  EM64L-G16RevA.03 25-Dec-2016

 -------------
 #p 6-31g* mp2
 -------------

 ------------------------------------------------------
 Input file generated by CHIRIPA (05-May-2021 14:51:10)
 ------------------------------------------------------
 Symbolic Z-matrix:
 Charge =  0 Multiplicity = 1

                         Standard orientation:
 ---------------------------------------------------------------------
 Center     Atomic      Atomic             Coordinates (Angstroms)
 Number     Number       Type             X           Y           Z
 ---------------------------------------------------------------------
      1          6           0        3.589676    0.126554   -0.272120
      2          6           0        4.542209   -0.470360    0.764393
      3          6           0        5.491925   -1.508436    0.165867
      4          1           0        3.007102   -0.682242   -0.734073
      5          1           0        4.177768    0.587635   -1.077692
      6          1           0        3.952495   -0.928965    1.568466
      7          1           0        5.122448    0.339972    1.224068
      8          1           0        6.105040   -1.060261   -0.622695
      9          1           0        4.928440   -2.336408   -0.276340
     10          1           0        6.163923   -1.922195    0.924209
     11          6           0        2.633996    1.165954    0.311021
     12          6           0        1.681462    1.762868   -0.725492
     13          6           0        0.731747    2.800944   -0.126966
     14          1           0        2.045903    0.704873    1.116593
     15          1           0        3.216570    1.974750    0.772974
     16          1           0        1.101224    0.952536   -1.185167
     17          1           0        2.271176    2.221473   -1.529565
     18          1           0        1.295232    3.628916    0.315241
     19          1           0        0.118632    2.352769    0.661596
     20          1           0        0.059749    3.214703   -0.885308
     21          6           0       -2.615824   -1.135711   -0.332238
     22          6           0       -1.167634   -0.883245    0.088467
     23          6           0       -0.187202   -1.870493   -0.545482
     24          1           0       -2.897206   -2.161558   -0.057634
     25          1           0       -2.688360   -1.074106   -1.426923
     26          1           0       -1.098118   -0.943939    1.182131
     27          1           0       -0.889726    0.142183   -0.186998
     28          1           0       -0.227123   -1.805459   -1.637626
     29          1           0       -0.436699   -2.897752   -0.260720
     30          1           0        0.842169   -1.671809   -0.231191
     31          6           0       -3.607848   -0.156797    0.293337
     32          6           0       -5.056038   -0.409262   -0.127368
     33          6           0       -6.036469    0.577985    0.506581
     34          1           0       -3.535311   -0.218401    1.388023
     35          1           0       -3.326465    0.869050    0.018734
     36          1           0       -5.333945   -1.434691    0.148097
     37          1           0       -5.125553   -0.348569   -1.221032
     38          1           0       -5.786973    1.605244    0.221819
     39          1           0       -5.996548    0.512950    1.598726
     40          1           0       -7.065840    0.379302    0.192290
 ---------------------------------------------------------------------

 SCF Done:  E(RHF) =  -470.732196004     A.U. after   11 cycles
 E2 =    -0.1584910331D+01 EUMP2 =    -0.47231710633525D+03

 The electronic state is 1-A.
 Alpha  occ. eigenvalues --  -11.21616 -11.21613 -11.21599 -11.21559 -11.21428
 Alpha  occ. eigenvalues --  -11.21391 -11.21367 -11.21331 -11.21139 -11.21077
 Alpha  occ. eigenvalues --  -11.21070 -11.21063  -1.08502  -1.08390  -1.03625
 Alpha  occ. eigenvalues --   -1.03475  -0.96028  -0.95979  -0.87042  -0.86990
 Alpha  occ. eigenvalues --   -0.79655  -0.79575  -0.78278  -0.78241  -0.65348
 Alpha  occ. eigenvalues --   -0.64931  -0.61302  -0.60644  -0.59363  -0.59315
 Alpha  occ. eigenvalues --   -0.57623  -0.57568  -0.55371  -0.55250  -0.52748
 Alpha  occ. eigenvalues --   -0.52653  -0.52454  -0.52367  -0.49982  -0.49897
 Alpha  occ. eigenvalues --   -0.48051  -0.47807  -0.46744  -0.46531  -0.45876
 Alpha  occ. eigenvalues --   -0.45796  -0.45682  -0.45590  -0.43803  -0.43758
 Alpha virt. eigenvalues --    0.20092   0.22810   0.23666   0.24672   0.26270
 Alpha virt. eigenvalues --    0.26440   0.26540   0.27618   0.28938   0.29164
 Alpha virt. eigenvalues --    0.31186   0.31273   0.31623   0.31769   0.32676

 Mulliken charges:
               1
     1  C   -0.303609
     2  C   -0.299767
     3  C   -0.475705
     4  H    0.153717
     5  H    0.149959
     6  H    0.151632
     7  H    0.152092
     8  H    0.155217
     9  H    0.155370
    10  H    0.160237
    11  C   -0.299310
    12  C   -0.305400
    13  C   -0.478678
    14  H    0.150521
    15  H    0.150064
    16  H    0.157853
    17  H    0.152274
    18  H    0.155824
    19  H    0.157305
    20  H    0.159351
    21  C   -0.297651
    22  C   -0.308932
    23  C   -0.482926
    24  H    0.149643
    25  H    0.149426
    26  H    0.151173
    27  H    0.162758
    28  H    0.155068
    29  H    0.155978
    30  H    0.166278
    31  C   -0.298701
    32  C   -0.299640
    33  C   -0.475749
    34  H    0.149406
    35  H    0.150183
    36  H    0.151958
    37  H    0.151957
    38  H    0.155350
    39  H    0.155191
    40  H    0.160282
 Sum of Mulliken charges =  -0.00000

 Dipole moment (field-independent basis, Debye):
    X=             -0.0093    Y=              0.0015    Z=             -0.0042  Tot=              0.0103
 Quadrupole moment (field-independent basis, Debye-Ang):
   XX=            -85.5936   YY=            -84.8914   ZZ=            -84.3444
   XY=              1.6547   XZ=              0.2957   YZ=             -1.0995

 Normal termination of Gaussian 16 at Wed May  5 18:11:39 2021.
