 Gaussian 16, Revision A.03,
 Gaussian 16:  EM64L-G16RevA.03 25-Dec-2016

 -------------
 #p 6-31g* mp2
 -------------

 ------------------------------------------------------
 Input file generated by CHIRIPA (05-May-2021 14:55:24)
 ------------------------------------------------------
 Symbolic Z-matrix:
 Charge =  0 Multiplicity = 1

                         Standard orientation:
 ---------------------------------------------------------------------
 Center     Atomic      Atomic             Coordinates (Angstroms)
 Number     Number       Type             X           Y           Z
 ---------------------------------------------------------------------
      1          6           0       -4.051155   -1.716264   -0.888742
      2          6           0       -4.738883   -0.505559   -0.755537
      3          6           0       -4.073453    0.645033   -0.322076
      4          6           0       -2.713975    0.548544   -0.029160
      5          6           0       -2.001099   -0.643107   -0.151900
      6          6           0       -2.686863   -1.781060   -0.587030
      7          1           0       -4.575975   -2.605163   -1.226114
      8          1           0       -5.798429   -0.452285   -0.989140
      9          1           0       -4.581449    1.595207   -0.210151
     10          1           0       -0.945087   -0.665094    0.088458
     11          1           0       -2.150205   -2.719959   -0.689557
     12          7           0       -1.998751    1.759934    0.430610
     13          8           0       -0.800885    1.648654    0.682345
     14          8           0       -2.649567    2.797764    0.530536
     15          6           0        3.193152   -0.616528    0.741157
     16          6           0        2.018921   -1.538566    0.410988
     17          6           0        1.164759   -1.869478    1.635200
     18          1           0        3.819019   -1.091092    1.509287
     19          1           0        2.807609    0.312967    1.182505
     20          1           0        2.406479   -2.465479   -0.030882
     21          1           0        1.395882   -1.061836   -0.356585
     22          1           0        0.750620   -0.956081    2.074284
     23          1           0        1.766958   -2.367698    2.401839
     24          1           0        0.331100   -2.529732    1.376478
     25          6           0        4.056392   -0.276636   -0.472523
     26          6           0        5.230623    0.645402   -0.142354
     27          6           0        6.084785    0.976313   -1.366567
     28          1           0        4.441935   -1.206132   -0.913872
     29          1           0        3.430525    0.197928   -1.240653
     30          1           0        5.853661    0.168672    0.625219
     31          1           0        4.843065    1.572314    0.299516
     32          1           0        5.482585    1.474534   -2.133204
     33          1           0        6.498924    0.062916   -1.805651
     34          1           0        6.918444    1.636567   -1.107844
 ---------------------------------------------------------------------

 SCF Done:  E(RHF) =  -669.535585148     A.U. after   15 cycles
 E2 =    -0.2092435966D+01 EUMP2 =    -0.67162802111390D+03

 The electronic state is 1-A.
 Alpha  occ. eigenvalues --  -20.60837 -20.60827 -15.85875 -11.31155 -11.27745
 Alpha  occ. eigenvalues --  -11.27659 -11.27484 -11.26747 -11.26724 -11.21777
 Alpha  occ. eigenvalues --  -11.21304 -11.21293 -11.21179 -11.21115 -11.20809
 Alpha  occ. eigenvalues --   -1.59901  -1.39458  -1.19337  -1.08751  -1.08285
 Alpha  occ. eigenvalues --   -1.04736  -1.03475  -0.95927  -0.95584  -0.86933
 Alpha  occ. eigenvalues --   -0.86133  -0.82431  -0.79543  -0.78069  -0.77489
 Alpha  occ. eigenvalues --   -0.72103  -0.71217  -0.70474  -0.65040  -0.64993
 Alpha  occ. eigenvalues --   -0.64641  -0.62214  -0.60745  -0.59294  -0.57521
 Alpha  occ. eigenvalues --   -0.55353  -0.55044  -0.53077  -0.52802  -0.52618
 Alpha  occ. eigenvalues --   -0.52332  -0.49826  -0.48856  -0.48846  -0.47853
 Alpha  occ. eigenvalues --   -0.46560  -0.45623  -0.45488  -0.44869  -0.43699
 Alpha  occ. eigenvalues --   -0.37326  -0.36323
 Alpha virt. eigenvalues --    0.05019   0.11296   0.16510   0.20157   0.23196
 Alpha virt. eigenvalues --    0.24111   0.26535   0.26659   0.27684   0.28097
 Alpha virt. eigenvalues --    0.29142   0.30291   0.31501   0.31809   0.32513

 Mulliken charges:
               1
     1  C   -0.170136
     2  C   -0.219413
     3  C   -0.169555
     4  C    0.155795
     5  C   -0.181592
     6  C   -0.225547
     7  H    0.225574
     8  H    0.223323
     9  H    0.275387
    10  H    0.299839
    11  H    0.223889
    12  N    0.487381
    13  O   -0.463658
    14  O   -0.459564
    15  C   -0.299943
    16  C   -0.304120
    17  C   -0.491222
    18  H    0.148531
    19  H    0.163128
    20  H    0.150334
    21  H    0.149808
    22  H    0.171547
    23  H    0.161387
    24  H    0.148287
    25  C   -0.298937
    26  C   -0.300433
    27  C   -0.475805
    28  H    0.146442
    29  H    0.152361
    30  H    0.150715
    31  H    0.156478
    32  H    0.156083
    33  H    0.153388
    34  H    0.160246
 Sum of Mulliken charges =  -0.00000

 Dipole moment (field-independent basis, Debye):
    X=             -2.4476    Y=             -4.1158    Z=             -1.5356  Tot=              5.0287
 Quadrupole moment (field-independent basis, Debye-Ang):
   XX=            -77.6965   YY=            -98.3040   ZZ=            -95.9597
   XY=              7.3557   XZ=              5.8577   YZ=             -0.7823

 Normal termination of Gaussian 16 at Wed May  5 17:34:40 2021.
