 Gaussian 16, Revision A.03,
 Gaussian 16:  EM64L-G16RevA.03 25-Dec-2016

 -------------
 #p 6-31g* mp2
 -------------

 ------------------------------------------------------
 Input file generated by CHIRIPA (05-May-2021 14:51:11)
 ------------------------------------------------------
 Symbolic Z-matrix:
 Charge =  0 Multiplicity = 1

                         Standard orientation:
 ---------------------------------------------------------------------
 Center     Atomic      Atomic             Coordinates (Angstroms)
 Number     Number       Type             X           Y           Z
 ---------------------------------------------------------------------
      1          6           0       -4.074608   -0.653505   -0.116322
      2          6           0       -2.878369   -1.527940    0.260986
      3          6           0       -3.118951   -3.011654   -0.019205
      4          1           0       -4.959320   -0.994202    0.438795
      5          1           0       -4.301100   -0.794285   -1.182285
      6          1           0       -2.653334   -1.384505    1.325600
      7          1           0       -1.996358   -1.185000   -0.294950
      8          1           0       -3.321611   -3.174963   -1.082624
      9          1           0       -3.982320   -3.375600    0.547133
     10          1           0       -2.251224   -3.618395    0.257879
     11          6           0       -3.849327    0.832349    0.157929
     12          6           0       -5.045566    1.706784   -0.219379
     13          6           0       -4.804984    3.190498    0.060812
     14          1           0       -3.622835    0.973128    1.223892
     15          1           0       -2.964615    1.173045   -0.397188
     16          1           0       -5.927577    1.363844    0.336557
     17          1           0       -5.270601    1.563348   -1.283993
     18          1           0       -3.941615    3.554444   -0.505526
     19          1           0       -4.602324    3.353806    1.124231
     20          1           0       -5.672711    3.797239   -0.216272
     21          6           0        4.327621    0.581146   -0.029063
     22          6           0        5.848922    0.443125    0.038602
     23          6           0        6.566348    1.793233    0.021196
     24          1           0        4.055862    1.130658   -0.940726
     25          1           0        3.983739    1.191090    0.817759
     26          1           0        6.189693   -0.167532   -0.807323
     27          1           0        6.117081   -0.106290    0.950112
     28          1           0        6.254813    2.406039    0.873261
     29          1           0        6.327837    2.344449   -0.894160
     30          1           0        7.652876    1.671159    0.070341
     31          6           0        3.596314   -0.759990   -0.012543
     32          6           0        2.075013   -0.621968   -0.080209
     33          6           0        1.357587   -1.972076   -0.062802
     34          1           0        3.940196   -1.369934   -0.859367
     35          1           0        3.868073   -1.309502    0.899119
     36          1           0        1.806854   -0.072553   -0.991719
     37          1           0        1.734243   -0.011311    0.765716
     38          1           0        1.596098   -2.523293    0.852552
     39          1           0        1.669123   -2.584882   -0.914868
     40          1           0        0.271060   -1.850002   -0.111949
 ---------------------------------------------------------------------

 SCF Done:  E(RHF) =  -470.733266923     A.U. after   11 cycles
 E2 =    -0.1582496426D+01 EUMP2 =    -0.47231576334927D+03

 The electronic state is 1-A.
 Alpha  occ. eigenvalues --  -11.21617 -11.21605 -11.21595 -11.21584 -11.21412
 Alpha  occ. eigenvalues --  -11.21393 -11.21353 -11.21333 -11.21073 -11.21067
 Alpha  occ. eigenvalues --  -11.21066 -11.21007  -1.08443  -1.08414  -1.03555
 Alpha  occ. eigenvalues --   -1.03498  -0.96003  -0.95943  -0.87000  -0.86978
 Alpha  occ. eigenvalues --   -0.79637  -0.79548  -0.78258  -0.78229  -0.65077
 Alpha  occ. eigenvalues --   -0.65046  -0.60966  -0.60907  -0.59535  -0.59178
 Alpha  occ. eigenvalues --   -0.57715  -0.57441  -0.55271  -0.55244  -0.52737
 Alpha  occ. eigenvalues --   -0.52599  -0.52407  -0.52384  -0.49922  -0.49901
 Alpha  occ. eigenvalues --   -0.48016  -0.47805  -0.46625  -0.46610  -0.45800
 Alpha  occ. eigenvalues --   -0.45763  -0.45713  -0.45697  -0.43803  -0.43719
 Alpha virt. eigenvalues --    0.21820   0.23038   0.23415   0.24866   0.26379
 Alpha virt. eigenvalues --    0.26664   0.26925   0.27422   0.27862   0.28758
 Alpha virt. eigenvalues --    0.30563   0.31328   0.31432   0.31659   0.32161

 Mulliken charges:
               1
     1  C   -0.297526
     2  C   -0.304344
     3  C   -0.477097
     4  H    0.149743
     5  H    0.149547
     6  H    0.152238
     7  H    0.155092
     8  H    0.155204
     9  H    0.155376
    10  H    0.162102
    11  C   -0.298448
    12  C   -0.299657
    13  C   -0.475718
    14  H    0.149523
    15  H    0.149804
    16  H    0.151958
    17  H    0.151935
    18  H    0.155242
    19  H    0.155175
    20  H    0.160261
    21  C   -0.298228
    22  C   -0.299637
    23  C   -0.475695
    24  H    0.149516
    25  H    0.149542
    26  H    0.151898
    27  H    0.151939
    28  H    0.155188
    29  H    0.155138
    30  H    0.160228
    31  C   -0.298265
    32  C   -0.298992
    33  C   -0.485032
    34  H    0.149455
    35  H    0.149662
    36  H    0.151197
    37  H    0.152157
    38  H    0.154878
    39  H    0.154764
    40  H    0.169876
 Sum of Mulliken charges =  -0.00000

 Dipole moment (field-independent basis, Debye):
    X=             -0.0252    Y=             -0.0035    Z=              0.0058  Tot=              0.0261
 Quadrupole moment (field-independent basis, Debye-Ang):
   XX=            -85.1318   YY=            -86.8043   ZZ=            -82.8355
   XY=             -0.5274   XZ=             -0.4083   YZ=             -0.2428

 Normal termination of Gaussian 16 at Thu May  6 03:51:36 2021.
