 Gaussian 16, Revision A.03,
 Gaussian 16:  EM64L-G16RevA.03 25-Dec-2016

 -------------
 #p 6-31g* mp2
 -------------

 ------------------------------------------------------
 Input file generated by CHIRIPA (05-May-2021 14:53:14)
 ------------------------------------------------------
 Symbolic Z-matrix:
 Charge =  0 Multiplicity = 1

                         Standard orientation:
 ---------------------------------------------------------------------
 Center     Atomic      Atomic             Coordinates (Angstroms)
 Number     Number       Type             X           Y           Z
 ---------------------------------------------------------------------
      1          6           0       -4.677352   -0.114941   -0.270277
      2          6           0       -4.843376   -1.590233    0.095693
      3          6           0       -6.030818   -2.244624   -0.611094
      4          1           0       -5.599830    0.425198   -0.016843
      5          1           0       -4.552011   -0.026118   -1.358301
      6          1           0       -4.966983   -1.676363    1.182854
      7          1           0       -3.920326   -2.126887   -0.158465
      8          1           0       -5.911092   -2.188188   -1.697869
      9          1           0       -6.963696   -1.735106   -0.348929
     10          1           0       -6.130978   -3.298978   -0.335113
     11          6           0       -3.494440    0.553138    0.428377
     12          6           0       -3.328416    2.028430    0.062407
     13          6           0       -2.140974    2.682821    0.769194
     14          1           0       -3.619782    0.464315    1.516401
     15          1           0       -2.571962    0.012999    0.174943
     16          1           0       -4.251466    2.565083    0.316565
     17          1           0       -3.204809    2.114560   -1.024754
     18          1           0       -1.208096    2.173302    0.507029
     19          1           0       -2.260700    2.626385    1.855969
     20          1           0       -2.040814    3.737175    0.493213
     21          6           0        5.648388   -0.738707    0.040737
     22          6           0        5.223431    0.412964   -0.629774
     23          6           0        3.864983    0.737280   -0.692927
     24          6           0        2.954642   -0.116303   -0.071667
     25          6           0        3.346878   -1.270854    0.603947
     26          6           0        4.710410   -1.575466    0.654375
     27          1           0        6.705637   -0.982990    0.084853
     28          1           0        5.949640    1.064643   -1.107247
     29          1           0        3.508502    1.622591   -1.205337
     30          1           0        2.599382   -1.901085    1.070290
     31          1           0        5.037555   -2.470527    1.175803
     32          7           0        1.513823    0.216605   -0.131788
     33          8           0        0.731715   -0.551776    0.423669
     34          8           0        1.193901    1.239616   -0.733231
 ---------------------------------------------------------------------

 SCF Done:  E(RHF) =  -669.537192458     A.U. after   15 cycles
 E2 =    -0.2091656272D+01 EUMP2 =    -0.67162884873020D+03

 The electronic state is 1-A.
 Alpha  occ. eigenvalues --  -20.61175 -20.61170 -15.86158 -11.31411 -11.27957
 Alpha  occ. eigenvalues --  -11.27954 -11.27683 -11.26946 -11.26937 -11.20584
 Alpha  occ. eigenvalues --  -11.20270 -11.20175 -11.20031 -11.19752 -11.19157
 Alpha  occ. eigenvalues --   -1.60202  -1.39760  -1.19566  -1.08985  -1.07081
 Alpha  occ. eigenvalues --   -1.04949  -1.02188  -0.95838  -0.94631  -0.86353
 Alpha  occ. eigenvalues --   -0.85650  -0.82673  -0.78305  -0.77738  -0.76831
 Alpha  occ. eigenvalues --   -0.72364  -0.71502  -0.70673  -0.65220  -0.64952
 Alpha  occ. eigenvalues --   -0.63712  -0.62295  -0.59582  -0.58066  -0.56241
 Alpha  occ. eigenvalues --   -0.55459  -0.53908  -0.53284  -0.53038  -0.51373
 Alpha  occ. eigenvalues --   -0.51060  -0.49259  -0.49141  -0.48435  -0.46586
 Alpha  occ. eigenvalues --   -0.45349  -0.45154  -0.44397  -0.44187  -0.42441
 Alpha  occ. eigenvalues --   -0.37540  -0.36545
 Alpha virt. eigenvalues --    0.04772   0.11112   0.16288   0.21250   0.24146
 Alpha virt. eigenvalues --    0.25718   0.27181   0.27934   0.28186   0.28868
 Alpha virt. eigenvalues --    0.29380   0.30831   0.32362   0.32746   0.32878

 Mulliken charges:
               1
     1  C   -0.297284
     2  C   -0.298934
     3  C   -0.474870
     4  H    0.144981
     5  H    0.147679
     6  H    0.149744
     7  H    0.154183
     8  H    0.153808
     9  H    0.153112
    10  H    0.156844
    11  C   -0.304130
    12  C   -0.296319
    13  C   -0.487145
    14  H    0.144246
    15  H    0.169753
    16  H    0.143364
    17  H    0.150556
    18  H    0.184688
    19  H    0.145870
    20  H    0.151108
    21  C   -0.170264
    22  C   -0.218621
    23  C   -0.170458
    24  C    0.158752
    25  C   -0.170578
    26  C   -0.218643
    27  H    0.226443
    28  H    0.224270
    29  H    0.276236
    30  H    0.276173
    31  H    0.224258
    32  N    0.488743
    33  O   -0.459209
    34  O   -0.458355
 Sum of Mulliken charges =  -0.00000

 Dipole moment (field-independent basis, Debye):
    X=              5.6330    Y=             -1.2955    Z=              0.1497  Tot=              5.7820
 Quadrupole moment (field-independent basis, Debye-Ang):
   XX=            -67.0155   YY=            -92.4621   ZZ=            -93.8179
   XY=             -3.5112   XZ=             -1.0745   YZ=             -2.8736

 Normal termination of Gaussian 16 at Thu May  6 12:06:53 2021.
