 Gaussian 16, Revision A.03,
 Gaussian 16:  EM64L-G16RevA.03 25-Dec-2016

 -------------
 #p 6-31g* mp2
 -------------

 ------------------------------------------------------
 Input file generated by CHIRIPA (05-May-2021 14:57:24)
 ------------------------------------------------------
 Symbolic Z-matrix:
 Charge =  0 Multiplicity = 1

                         Standard orientation:
 ---------------------------------------------------------------------
 Center     Atomic      Atomic             Coordinates (Angstroms)
 Number     Number       Type             X           Y           Z
 ---------------------------------------------------------------------
      1          6           0        3.330659   -2.259953   -0.760875
      2          6           0        4.529556   -1.838162   -0.176700
      3          6           0        4.716455   -0.497135    0.171528
      4          6           0        3.678794    0.399205   -0.079721
      5          6           0        2.472790    0.009692   -0.660345
      6          6           0        2.307906   -1.336308   -1.000411
      7          1           0        3.194022   -3.303627   -1.028216
      8          1           0        5.325566   -2.553265    0.010491
      9          1           0        5.634441   -0.143485    0.625014
     10          1           0        1.697480    0.745845   -0.834674
     11          1           0        1.375762   -1.661035   -1.453959
     12          7           0        3.865003    1.821522    0.284612
     13          8           0        2.935464    2.591525    0.052901
     14          8           0        4.936966    2.139401    0.794989
     15          6           0       -1.895765   -1.608249    1.240518
     16          6           0       -2.893771   -1.006408    2.014012
     17          6           0       -3.869788   -0.204613    1.414793
     18          6           0       -3.817514   -0.025242    0.033350
     19          6           0       -2.835966   -0.611342   -0.764358
     20          6           0       -1.870094   -1.409147   -0.143758
     21          1           0       -1.141511   -2.229553    1.714310
     22          1           0       -2.916177   -1.159278    3.089267
     23          1           0       -4.653697    0.273248    1.989730
     24          1           0       -2.839648   -0.440439   -1.834030
     25          1           0       -1.096212   -1.875293   -0.746966
     26          7           0       -4.845411    0.821471   -0.612334
     27          8           0       -4.777391    0.963867   -1.831240
     28          8           0       -5.699631    1.326696    0.112712
 ---------------------------------------------------------------------

 SCF Done:  E(RHF) =  -868.336618439     A.U. after   16 cycles
 E2 =    -0.2599691057D+01 EUMP2 =    -0.87093630949567D+03

 The electronic state is 1-A.
 Alpha  occ. eigenvalues --  -20.61200 -20.61193 -20.61015 -20.61006 -15.86260
 Alpha  occ. eigenvalues --  -15.86075 -11.31774 -11.31557 -11.28403 -11.28361
 Alpha  occ. eigenvalues --  -11.28218 -11.28191 -11.28125 -11.27952 -11.27528
 Alpha  occ. eigenvalues --  -11.27388 -11.27326 -11.27138  -1.60273  -1.60086
 Alpha  occ. eigenvalues --   -1.39822  -1.39637  -1.19985  -1.19761  -1.09357
 Alpha  occ. eigenvalues --   -1.09133  -1.05421  -1.05198  -0.96155  -0.95942
 Alpha  occ. eigenvalues --   -0.86823  -0.86587  -0.82995  -0.82782  -0.78021
 Alpha  occ. eigenvalues --   -0.77799  -0.72473  -0.72291  -0.71602  -0.71410
 Alpha  occ. eigenvalues --   -0.71087  -0.70865  -0.65642  -0.65585  -0.65421
 Alpha  occ. eigenvalues --   -0.65130  -0.62825  -0.62479  -0.55926  -0.55688
 Alpha  occ. eigenvalues --   -0.53746  -0.53613  -0.53493  -0.53209  -0.49248
 Alpha  occ. eigenvalues --   -0.49218  -0.49059  -0.49037  -0.45194  -0.45017
 Alpha  occ. eigenvalues --   -0.37986  -0.37745  -0.37038  -0.36783
 Alpha virt. eigenvalues --    0.04542   0.04755   0.10564   0.10828   0.15937
 Alpha virt. eigenvalues --    0.16180   0.18593   0.21850   0.24598   0.27681
 Alpha virt. eigenvalues --    0.27914   0.28391   0.29508   0.31613   0.31851

 Mulliken charges:
               1
     1  C   -0.171705
     2  C   -0.218782
     3  C   -0.169813
     4  C    0.158435
     5  C   -0.170369
     6  C   -0.223403
     7  H    0.225715
     8  H    0.225304
     9  H    0.277718
    10  H    0.278641
    11  H    0.217495
    12  N    0.487907
    13  O   -0.457968
    14  O   -0.459080
    15  C   -0.169697
    16  C   -0.217992
    17  C   -0.168928
    18  C    0.159501
    19  C   -0.170933
    20  C   -0.222200
    21  H    0.226117
    22  H    0.225746
    23  H    0.277923
    24  H    0.275443
    25  H    0.215052
    26  N    0.488240
    27  O   -0.459940
    28  O   -0.458426
 Sum of Mulliken charges =  -0.00000

 Dipole moment (field-independent basis, Debye):
    X=              2.9707    Y=             -7.8495    Z=              1.1433  Tot=              8.4703
 Quadrupole moment (field-independent basis, Debye-Ang):
   XX=           -131.5499   YY=           -109.7804   ZZ=           -100.6551
   XY=             -9.0745   XZ=            -13.8615   YZ=              0.0062

 Normal termination of Gaussian 16 at Thu May  6 03:29:57 2021.
