 Gaussian 16, Revision A.03,
 Gaussian 16:  EM64L-G16RevA.03 25-Dec-2016

 -------------
 #p 6-31g* mp2
 -------------

 ------------------------------------------------------
 Input file generated by CHIRIPA (05-May-2021 14:51:10)
 ------------------------------------------------------
 Symbolic Z-matrix:
 Charge =  0 Multiplicity = 1

                         Standard orientation:
 ---------------------------------------------------------------------
 Center     Atomic      Atomic             Coordinates (Angstroms)
 Number     Number       Type             X           Y           Z
 ---------------------------------------------------------------------
      1          6           0       -3.113214   -0.384411    0.155345
      2          6           0       -2.183655   -1.335711   -0.598932
      3          6           0       -0.712346   -1.138694   -0.232559
      4          1           0       -2.816817    0.652097   -0.056184
      5          1           0       -2.980365   -0.533176    1.235908
      6          1           0       -2.319222   -1.186167   -1.677762
      7          1           0       -2.482420   -2.370072   -0.385734
      8          1           0       -0.555862   -1.307892    0.837714
      9          1           0       -0.391738   -0.117261   -0.461655
     10          1           0       -0.065598   -1.828842   -0.783261
     11          6           0       -4.587375   -0.569229   -0.200209
     12          6           0       -5.516934    0.382072    0.554068
     13          6           0       -6.988242    0.185054    0.187696
     14          1           0       -4.720224   -0.420464   -1.280771
     15          1           0       -4.883772   -1.605737    0.011321
     16          1           0       -5.218169    1.416432    0.340870
     17          1           0       -5.381366    0.232528    1.632899
     18          1           0       -7.308851   -0.836379    0.416792
     19          1           0       -7.144726    0.354252   -0.882578
     20          1           0       -7.634991    0.875203    0.738398
     21          6           0        3.512873    1.101571    0.303970
     22          6           0        2.459861    1.695945   -0.631910
     23          6           0        1.793703    2.945306   -0.054741
     24          1           0        3.042701    0.856805    1.266245
     25          1           0        4.277619    1.862068    0.514217
     26          1           0        1.698065    0.934117   -0.841432
     27          1           0        2.932553    1.939146   -1.592134
     28          1           0        2.538071    3.724673    0.137881
     29          1           0        1.296568    2.713933    0.892848
     30          1           0        1.044447    3.353723   -0.740067
     31          6           0        4.187716   -0.147932   -0.259107
     32          6           0        5.240727   -0.742305    0.676773
     33          6           0        5.906887   -1.991666    0.099604
     34          1           0        3.422970   -0.908428   -0.469353
     35          1           0        4.657888    0.096834   -1.221383
     36          1           0        4.768036   -0.985508    1.636997
     37          1           0        6.002524    0.019523    0.886296
     38          1           0        6.404020   -1.760293   -0.847985
     39          1           0        5.162518   -2.771034   -0.093018
     40          1           0        6.656141   -2.400083    0.784930
 ---------------------------------------------------------------------

 SCF Done:  E(RHF) =  -470.733296557     A.U. after   11 cycles
 E2 =    -0.1582598141D+01 EUMP2 =    -0.47231589469773D+03

 The electronic state is 1-A.
 Alpha  occ. eigenvalues --  -11.21652 -11.21619 -11.21557 -11.21509 -11.21435
 Alpha  occ. eigenvalues --  -11.21375 -11.21343 -11.21283 -11.21142 -11.21084
 Alpha  occ. eigenvalues --  -11.21045 -11.21038  -1.08464  -1.08371  -1.03574
 Alpha  occ. eigenvalues --   -1.03478  -0.96024  -0.95934  -0.87047  -0.86946
 Alpha  occ. eigenvalues --   -0.79665  -0.79518  -0.78281  -0.78177  -0.65120
 Alpha  occ. eigenvalues --   -0.64986  -0.61069  -0.60800  -0.59387  -0.59306
 Alpha  occ. eigenvalues --   -0.57642  -0.57534  -0.55362  -0.55174  -0.52726
 Alpha  occ. eigenvalues --   -0.52628  -0.52458  -0.52353  -0.50044  -0.49822
 Alpha  occ. eigenvalues --   -0.48023  -0.47805  -0.46790  -0.46444  -0.45863
 Alpha  occ. eigenvalues --   -0.45754  -0.45708  -0.45522  -0.43817  -0.43733
 Alpha virt. eigenvalues --    0.21499   0.22980   0.23780   0.24705   0.25973
 Alpha virt. eigenvalues --    0.26629   0.27217   0.27443   0.27956   0.29054
 Alpha virt. eigenvalues --    0.30468   0.31537   0.31651   0.31821   0.32073

 Mulliken charges:
               1
     1  C   -0.298628
     2  C   -0.299413
     3  C   -0.481474
     4  H    0.150117
     5  H    0.149493
     6  H    0.152257
     7  H    0.152101
     8  H    0.155154
     9  H    0.160767
    10  H    0.160166
    11  C   -0.298341
    12  C   -0.299704
    13  C   -0.475732
    14  H    0.149624
    15  H    0.149693
    16  H    0.152090
    17  H    0.151944
    18  H    0.155185
    19  H    0.155226
    20  H    0.160343
    21  C   -0.297475
    22  C   -0.307417
    23  C   -0.475897
    24  H    0.149818
    25  H    0.149082
    26  H    0.159893
    27  H    0.151479
    28  H    0.155291
    29  H    0.155444
    30  H    0.159244
    31  C   -0.298860
    32  C   -0.299610
    33  C   -0.475672
    34  H    0.150535
    35  H    0.149307
    36  H    0.151952
    37  H    0.151749
    38  H    0.155054
    39  H    0.155138
    40  H    0.160078
 Sum of Mulliken charges =  -0.00000

 Dipole moment (field-independent basis, Debye):
    X=             -0.0355    Y=             -0.0134    Z=              0.0011  Tot=              0.0380
 Quadrupole moment (field-independent basis, Debye-Ang):
   XX=            -85.8852   YY=            -84.8746   ZZ=            -84.1382
   XY=              0.9592   XZ=             -0.3912   YZ=             -1.0381

 Normal termination of Gaussian 16 at Thu May  6 05:22:48 2021.
