 Gaussian 16, Revision A.03,
 Gaussian 16:  EM64L-G16RevA.03 25-Dec-2016

 -------------
 #p 6-31g* mp2
 -------------

 ------------------------------------------------------
 Input file generated by CHIRIPA (05-May-2021 14:55:19)
 ------------------------------------------------------
 Symbolic Z-matrix:
 Charge =  0 Multiplicity = 1

                         Standard orientation:
 ---------------------------------------------------------------------
 Center     Atomic      Atomic             Coordinates (Angstroms)
 Number     Number       Type             X           Y           Z
 ---------------------------------------------------------------------
      1          6           0        5.360019    1.338169    0.652123
      2          6           0        4.066874    1.817034    0.886610
      3          6           0        2.954481    1.128265    0.393937
      4          6           0        3.172819   -0.041318   -0.332488
      5          6           0        4.448791   -0.543842   -0.582798
      6          6           0        5.546521    0.161333   -0.080541
      7          1           0        6.218458    1.879594    1.038566
      8          1           0        3.919026    2.730710    1.455279
      9          1           0        1.942412    1.476559    0.560747
     10          1           0        4.564479   -1.457491   -1.153131
     11          1           0        6.549646   -0.212911   -0.264190
     12          7           0        2.002939   -0.779172   -0.859132
     13          8           0        2.222053   -1.807168   -1.496195
     14          8           0        0.889026   -0.315533   -0.624881
     15          6           0       -3.586190   -0.352428    0.305210
     16          6           0       -3.188794   -1.105817    1.575039
     17          6           0       -1.741927   -1.599010    1.541456
     18          1           0       -3.441182   -1.009001   -0.563600
     19          1           0       -2.909576    0.502326    0.167432
     20          1           0       -3.866824   -1.958091    1.711127
     21          1           0       -3.334949   -0.447438    2.440945
     22          1           0       -1.050562   -0.757475    1.429939
     23          1           0       -1.585460   -2.276713    0.695975
     24          1           0       -1.479016   -2.134797    2.458882
     25          6           0       -5.029820    0.146889    0.323758
     26          6           0       -5.427215    0.900277   -0.946071
     27          6           0       -6.874083    1.393469   -0.912489
     28          1           0       -5.706434   -0.707866    0.461536
     29          1           0       -5.174829    0.803461    1.192568
     30          1           0       -5.281062    0.241899   -1.811977
     31          1           0       -4.749186    1.752551   -1.082160
     32          1           0       -7.030550    2.071173   -0.067008
     33          1           0       -7.565448    0.551935   -0.800972
     34          1           0       -7.136994    1.929258   -1.829914
 ---------------------------------------------------------------------

 SCF Done:  E(RHF) =  -669.535761912     A.U. after   15 cycles
 E2 =    -0.2090981309D+01 EUMP2 =    -0.67162674322137D+03

 The electronic state is 1-A.
 Alpha  occ. eigenvalues --  -20.60879 -20.60867 -15.85908 -11.31259 -11.27831
 Alpha  occ. eigenvalues --  -11.27822 -11.27568 -11.26841 -11.26831 -11.20947
 Alpha  occ. eigenvalues --  -11.20621 -11.20581 -11.20555 -11.20341 -11.19664
 Alpha  occ. eigenvalues --   -1.59936  -1.39493  -1.19431  -1.08829  -1.07558
 Alpha  occ. eigenvalues --   -1.04833  -1.02638  -0.95670  -0.95065  -0.86232
 Alpha  occ. eigenvalues --   -0.86077  -0.82503  -0.78724  -0.77558  -0.77320
 Alpha  occ. eigenvalues --   -0.72135  -0.71250  -0.70541  -0.65088  -0.64836
 Alpha  occ. eigenvalues --   -0.64200  -0.62182  -0.60045  -0.58480  -0.56667
 Alpha  occ. eigenvalues --   -0.55335  -0.54349  -0.53162  -0.52926  -0.51796
 Alpha  occ. eigenvalues --   -0.51462  -0.49026  -0.48894  -0.48860  -0.47019
 Alpha  occ. eigenvalues --   -0.45784  -0.45014  -0.44819  -0.44653  -0.42906
 Alpha  occ. eigenvalues --   -0.37409  -0.36435
 Alpha virt. eigenvalues --    0.04960   0.11219   0.16432   0.21296   0.23667
 Alpha virt. eigenvalues --    0.25158   0.27121   0.27492   0.27971   0.28447
 Alpha virt. eigenvalues --    0.29089   0.30803   0.31944   0.32488   0.32692

 Mulliken charges:
               1
     1  C   -0.170713
     2  C   -0.218463
     3  C   -0.170653
     4  C    0.158466
     5  C   -0.170838
     6  C   -0.218510
     7  H    0.225854
     8  H    0.223639
     9  H    0.274942
    10  H    0.275816
    11  H    0.223708
    12  N    0.489875
    13  O   -0.459617
    14  O   -0.460528
    15  C   -0.296672
    16  C   -0.300331
    17  C   -0.476431
    18  H    0.154011
    19  H    0.151942
    20  H    0.147842
    21  H    0.145392
    22  H    0.165341
    23  H    0.163546
    24  H    0.150042
    25  C   -0.297855
    26  C   -0.298864
    27  C   -0.475171
    28  H    0.147618
    29  H    0.146168
    30  H    0.153074
    31  H    0.151166
    32  H    0.153327
    33  H    0.154349
    34  H    0.158527
 Sum of Mulliken charges =  -0.00000

 Dipole moment (field-independent basis, Debye):
    X=              4.4004    Y=              2.5814    Z=              1.7220  Tot=              5.3845
 Quadrupole moment (field-independent basis, Debye-Ang):
   XX=            -69.1432   YY=            -92.5425   ZZ=            -96.1901
   XY=              6.6330   XZ=              3.6126   YZ=              1.4352

 Normal termination of Gaussian 16 at Wed May  5 15:49:49 2021.
