 Gaussian 16, Revision A.03,
 Gaussian 16:  EM64L-G16RevA.03 25-Dec-2016

 -------------
 #p 6-31g* mp2
 -------------

 ------------------------------------------------------
 Input file generated by CHIRIPA (05-May-2021 14:51:12)
 ------------------------------------------------------
 Symbolic Z-matrix:
 Charge =  0 Multiplicity = 1

                         Standard orientation:
 ---------------------------------------------------------------------
 Center     Atomic      Atomic             Coordinates (Angstroms)
 Number     Number       Type             X           Y           Z
 ---------------------------------------------------------------------
      1          6           0       -3.883057    0.626952   -0.451202
      2          6           0       -3.185349    1.658522    0.435957
      3          6           0       -2.241905    2.571069   -0.348239
      4          1           0       -3.124012    0.019376   -0.962716
      5          1           0       -4.446063    1.149992   -1.236599
      6          1           0       -2.624949    1.133732    1.220281
      7          1           0       -3.946146    2.263587    0.945567
      8          1           0       -2.790539    3.120431   -1.120122
      9          1           0       -1.461836    1.984157   -0.843847
     10          1           0       -1.753797    3.300752    0.305346
     11          6           0       -4.829520   -0.292687    0.318345
     12          6           0       -5.527228   -1.324257   -0.568814
     13          6           0       -6.470672   -2.236805    0.215382
     14          1           0       -4.266514   -0.815727    1.103742
     15          1           0       -5.588565    0.314889    0.829860
     16          1           0       -4.766432   -1.929322   -1.078423
     17          1           0       -6.087628   -0.799468   -1.353137
     18          1           0       -7.250741   -1.649892    0.710990
     19          1           0       -5.922038   -2.786166    0.987265
     20          1           0       -6.958780   -2.966488   -0.438203
     21          6           0        3.738875   -0.065048    0.504391
     22          6           0        2.482685    0.290078   -0.291759
     23          6           0        1.255863    0.491190    0.598329
     24          1           0        3.551353   -0.978847    1.084695
     25          1           0        3.940220    0.732250    1.233207
     26          1           0        2.284556   -0.506989   -1.019801
     27          1           0        2.673282    1.203030   -0.870384
     28          1           0        1.428702    1.300098    1.315542
     29          1           0        1.037766   -0.419638    1.165275
     30          1           0        0.369213    0.744266    0.008697
     31          6           0        4.973702   -0.269216   -0.371535
     32          6           0        6.229893   -0.624343    0.424616
     33          6           0        7.456715   -0.825455   -0.465472
     34          1           0        4.772357   -1.066514   -1.100350
     35          1           0        5.161225    0.644582   -0.951839
     36          1           0        6.039294   -1.537296    1.003240
     37          1           0        6.428021    0.172724    1.152658
     38          1           0        7.674811    0.085374   -1.032419
     39          1           0        7.283876   -1.634363   -1.182685
     40          1           0        8.343364   -1.078530    0.124159
 ---------------------------------------------------------------------

 SCF Done:  E(RHF) =  -470.733207584     A.U. after   11 cycles
 E2 =    -0.1582362835D+01 EUMP2 =    -0.47231557041910D+03

 The electronic state is 1-A.
 Alpha  occ. eigenvalues --  -11.21609 -11.21605 -11.21590 -11.21571 -11.21409
 Alpha  occ. eigenvalues --  -11.21388 -11.21350 -11.21329 -11.21074 -11.21062
 Alpha  occ. eigenvalues --  -11.21057 -11.21046  -1.08436  -1.08411  -1.03549
 Alpha  occ. eigenvalues --   -1.03499  -0.96020  -0.95931  -0.87045  -0.86939
 Alpha  occ. eigenvalues --   -0.79614  -0.79558  -0.78247  -0.78225  -0.65065
 Alpha  occ. eigenvalues --   -0.65051  -0.60977  -0.60924  -0.59343  -0.59329
 Alpha  occ. eigenvalues --   -0.57648  -0.57534  -0.55304  -0.55235  -0.52722
 Alpha  occ. eigenvalues --   -0.52631  -0.52454  -0.52309  -0.49947  -0.49864
 Alpha  occ. eigenvalues --   -0.47965  -0.47838  -0.46637  -0.46592  -0.45791
 Alpha  occ. eigenvalues --   -0.45767  -0.45714  -0.45687  -0.43767  -0.43762
 Alpha virt. eigenvalues --    0.21372   0.23001   0.23590   0.24984   0.26414
 Alpha virt. eigenvalues --    0.26645   0.27179   0.27618   0.27676   0.28868
 Alpha virt. eigenvalues --    0.30228   0.31391   0.31553   0.31865   0.32061

 Mulliken charges:
               1
     1  C   -0.298263
     2  C   -0.300961
     3  C   -0.478204
     4  H    0.149260
     5  H    0.149446
     6  H    0.153710
     7  H    0.151959
     8  H    0.155107
     9  H    0.157234
    10  H    0.160674
    11  C   -0.298317
    12  C   -0.299647
    13  C   -0.475697
    14  H    0.149733
    15  H    0.149620
    16  H    0.151906
    17  H    0.151878
    18  H    0.155170
    19  H    0.155180
    20  H    0.160189
    21  C   -0.298440
    22  C   -0.299307
    23  C   -0.481919
    24  H    0.149554
    25  H    0.149603
    26  H    0.151531
    27  H    0.152235
    28  H    0.155476
    29  H    0.154477
    30  H    0.166723
    31  C   -0.298256
    32  C   -0.299647
    33  C   -0.475707
    34  H    0.149470
    35  H    0.149728
    36  H    0.151904
    37  H    0.151955
    38  H    0.155214
    39  H    0.155168
    40  H    0.160259
 Sum of Mulliken charges =  -0.00000

 Dipole moment (field-independent basis, Debye):
    X=             -0.0003    Y=              0.0109    Z=              0.0065  Tot=              0.0127
 Quadrupole moment (field-independent basis, Debye-Ang):
   XX=            -85.6542   YY=            -83.9181   ZZ=            -85.2217
   XY=             -0.6270   XZ=              0.9121   YZ=              0.2224

 Normal termination of Gaussian 16 at Wed May  5 18:19:17 2021.
