 Gaussian 16, Revision A.03,
 Gaussian 16:  EM64L-G16RevA.03 25-Dec-2016

 -------------
 #p 6-31g* mp2
 -------------

 ------------------------------------------------------
 Input file generated by CHIRIPA (05-May-2021 14:57:25)
 ------------------------------------------------------
 Symbolic Z-matrix:
 Charge =  0 Multiplicity = 1

                         Standard orientation:
 ---------------------------------------------------------------------
 Center     Atomic      Atomic             Coordinates (Angstroms)
 Number     Number       Type             X           Y           Z
 ---------------------------------------------------------------------
      1          6           0        1.503507   -0.391456    2.556373
      2          6           0        1.373669   -1.406960    1.603266
      3          6           0        1.919980   -1.255368    0.325333
      4          6           0        2.592748   -0.069904    0.033191
      5          6           0        2.738807    0.960072    0.961149
      6          6           0        2.184462    0.786742    2.232843
      7          1           0        1.075999   -0.517660    3.546679
      8          1           0        0.845356   -2.323037    1.851730
      9          1           0        1.834196   -2.025476   -0.431631
     10          1           0        3.270994    1.861961    0.684037
     11          1           0        2.286841    1.577080    2.971037
     12          7           0        3.175356    0.102086   -1.316397
     13          8           0        3.763390    1.156023   -1.548927
     14          8           0        3.032939   -0.820302   -2.116119
     15          6           0       -2.512311    2.619254   -0.154542
     16          6           0       -3.699610    1.903836    0.032590
     17          6           0       -3.702784    0.506828   -0.021283
     18          6           0       -2.495221   -0.145471   -0.265391
     19          6           0       -1.295922    0.539130   -0.455898
     20          6           0       -1.316364    1.935823   -0.397760
     21          1           0       -2.519018    3.704362   -0.111035
     22          1           0       -4.629878    2.431951    0.221642
     23          1           0       -4.607513   -0.071897    0.120005
     24          1           0       -0.384189   -0.015214   -0.642615
     25          1           0       -0.392779    2.488819   -0.543465
     26          7           0       -2.486080   -1.624255   -0.324681
     27          8           0       -1.409042   -2.175381   -0.541209
     28          8           0       -3.556127   -2.204198   -0.153503
 ---------------------------------------------------------------------

 SCF Done:  E(RHF) =  -868.338779494     A.U. after   16 cycles
 E2 =    -0.2603064456D+01 EUMP2 =    -0.87094184395062D+03

 The electronic state is 1-A.
 Alpha  occ. eigenvalues --  -20.61212 -20.61175 -20.61024 -20.60987 -15.86229
 Alpha  occ. eigenvalues --  -15.86057 -11.31405 -11.31334 -11.28008 -11.27927
 Alpha  occ. eigenvalues --  -11.27785 -11.27722 -11.27626 -11.27602 -11.27001
 Alpha  occ. eigenvalues --  -11.26891 -11.26812 -11.26724  -1.60262  -1.60097
 Alpha  occ. eigenvalues --   -1.39826  -1.39642  -1.19586  -1.19489  -1.08955
 Alpha  occ. eigenvalues --   -1.08947  -1.04921  -1.04837  -0.95851  -0.95757
 Alpha  occ. eigenvalues --   -0.86323  -0.86251  -0.82710  -0.82528  -0.77791
 Alpha  occ. eigenvalues --   -0.77589  -0.72481  -0.72248  -0.71577  -0.71468
 Alpha  occ. eigenvalues --   -0.70627  -0.70578  -0.65187  -0.65128  -0.64890
 Alpha  occ. eigenvalues --   -0.64815  -0.62267  -0.62168  -0.55442  -0.55369
 Alpha  occ. eigenvalues --   -0.53564  -0.53168  -0.52910  -0.52664  -0.49229
 Alpha  occ. eigenvalues --   -0.49186  -0.49028  -0.49007  -0.45287  -0.45040
 Alpha  occ. eigenvalues --   -0.37614  -0.37485  -0.36498  -0.36372
 Alpha virt. eigenvalues --    0.04612   0.04972   0.10919   0.11293   0.16159
 Alpha virt. eigenvalues --    0.16466   0.21233   0.21558   0.26990   0.27366
 Alpha virt. eigenvalues --    0.28150   0.28476   0.30934   0.31159   0.32169

 Mulliken charges:
               1
     1  C   -0.172904
     2  C   -0.211969
     3  C   -0.184550
     4  C    0.152842
     5  C   -0.179043
     6  C   -0.217696
     7  H    0.227326
     8  H    0.237264
     9  H    0.288340
    10  H    0.273495
    11  H    0.222626
    12  N    0.487040
    13  O   -0.463327
    14  O   -0.455136
    15  C   -0.170484
    16  C   -0.219851
    17  C   -0.170626
    18  C    0.152390
    19  C   -0.168688
    20  C   -0.223274
    21  H    0.225990
    22  H    0.223302
    23  H    0.274872
    24  H    0.285245
    25  H    0.225811
    26  N    0.488943
    27  O   -0.469312
    28  O   -0.458626
 Sum of Mulliken charges =  -0.00000

 Dipole moment (field-independent basis, Debye):
    X=             -2.0989    Y=              4.3579    Z=              5.0293  Tot=              6.9778
 Quadrupole moment (field-independent basis, Debye-Ang):
   XX=           -110.9547   YY=           -102.5320   ZZ=           -105.3168
   XY=            -13.3222   XZ=             11.3427   YZ=             -0.6582

 Normal termination of Gaussian 16 at Fri May  7 08:07:08 2021.
