 Gaussian 16, Revision A.03,
 Gaussian 16:  EM64L-G16RevA.03 25-Dec-2016

 -------------
 #p 6-31g* mp2
 -------------

 ------------------------------------------------------
 Input file generated by CHIRIPA (05-May-2021 14:53:16)
 ------------------------------------------------------
 Symbolic Z-matrix:
 Charge =  0 Multiplicity = 1

                         Standard orientation:
 ---------------------------------------------------------------------
 Center     Atomic      Atomic             Coordinates (Angstroms)
 Number     Number       Type             X           Y           Z
 ---------------------------------------------------------------------
      1          6           0       -3.157888   -0.308611   -0.666289
      2          6           0       -2.961765   -1.622048    0.091606
      3          6           0       -3.186838   -2.851791   -0.788660
      4          1           0       -4.173799   -0.281623   -1.083590
      5          1           0       -2.468004   -0.280056   -1.521064
      6          1           0       -3.650845   -1.647507    0.945501
      7          1           0       -1.946266   -1.645827    0.507314
      8          1           0       -2.490162   -2.853748   -1.633195
      9          1           0       -4.204426   -2.855438   -1.192519
     10          1           0       -3.041492   -3.779726   -0.226814
     11          6           0       -2.936335    0.929791    0.200316
     12          6           0       -3.132458    2.243228   -0.557579
     13          6           0       -2.907385    3.472971    0.322687
     14          1           0       -3.626218    0.901236    1.055091
     15          1           0       -1.920423    0.902804    0.617617
     16          1           0       -4.147956    2.267007   -0.973287
     17          1           0       -2.443377    2.268688   -1.411474
     18          1           0       -1.889796    3.476618    0.726546
     19          1           0       -3.604061    3.474928    1.167222
     20          1           0       -3.052730    4.400906   -0.239159
     21          6           0        0.741340   -1.850583    1.227696
     22          6           0        0.968945   -0.601925    1.815548
     23          6           0        1.874960    0.296960    1.244855
     24          6           0        2.539029   -0.087199    0.080929
     25          6           0        2.333814   -1.324055   -0.528471
     26          6           0        1.423298   -2.207034    0.059624
     27          1           0        0.035777   -2.542682    1.677784
     28          1           0        0.440750   -0.322417    2.722703
     29          1           0        2.070184    1.269996    1.679030
     30          1           0        2.875338   -1.574402   -1.432626
     31          1           0        1.248530   -3.176092   -0.399102
     32          7           0        3.500569    0.855991   -0.532449
     33          8           0        4.072958    0.493670   -1.557989
     34          8           0        3.663628    1.939726    0.023938
 ---------------------------------------------------------------------

 SCF Done:  E(RHF) =  -669.535199955     A.U. after   15 cycles
 E2 =    -0.2093108964D+01 EUMP2 =    -0.67162830891934D+03

 The electronic state is 1-A.
 Alpha  occ. eigenvalues --  -20.60850 -20.60845 -15.85905 -11.31302 -11.27889
 Alpha  occ. eigenvalues --  -11.27878 -11.27612 -11.26903 -11.26883 -11.22175
 Alpha  occ. eigenvalues --  -11.21832 -11.21804 -11.21753 -11.21711 -11.21263
 Alpha  occ. eigenvalues --   -1.59925  -1.39478  -1.19491  -1.08914  -1.08805
 Alpha  occ. eigenvalues --   -1.04891  -1.03955  -0.96399  -0.95708  -0.87415
 Alpha  occ. eigenvalues --   -0.86283  -0.82536  -0.80038  -0.78652  -0.77567
 Alpha  occ. eigenvalues --   -0.72122  -0.71250  -0.70614  -0.65478  -0.65137
 Alpha  occ. eigenvalues --   -0.64871  -0.62229  -0.61360  -0.59797  -0.58017
 Alpha  occ. eigenvalues --   -0.55698  -0.55375  -0.53272  -0.53076  -0.52975
 Alpha  occ. eigenvalues --   -0.52825  -0.50336  -0.48884  -0.48875  -0.48346
 Alpha  occ. eigenvalues --   -0.47062  -0.46192  -0.46090  -0.44876  -0.44194
 Alpha  occ. eigenvalues --   -0.37376  -0.36487
 Alpha virt. eigenvalues --    0.04917   0.11100   0.16293   0.20670   0.22770
 Alpha virt. eigenvalues --    0.23841   0.26187   0.26577   0.26907   0.28066
 Alpha virt. eigenvalues --    0.28643   0.30270   0.31147   0.31583   0.32059

 Mulliken charges:
               1
     1  C   -0.296832
     2  C   -0.306979
     3  C   -0.476234
     4  H    0.150865
     5  H    0.152073
     6  H    0.150643
     7  H    0.151148
     8  H    0.155288
     9  H    0.159188
    10  H    0.155312
    11  C   -0.301109
    12  C   -0.300157
    13  C   -0.475773
    14  H    0.147546
    15  H    0.149487
    16  H    0.152363
    17  H    0.154867
    18  H    0.154852
    19  H    0.153912
    20  H    0.162845
    21  C   -0.170535
    22  C   -0.218318
    23  C   -0.171804
    24  C    0.158750
    25  C   -0.170691
    26  C   -0.219636
    27  H    0.228460
    28  H    0.225396
    29  H    0.276239
    30  H    0.276159
    31  H    0.224816
    32  N    0.488050
    33  O   -0.460097
    34  O   -0.460097
 Sum of Mulliken charges =  -0.00000

 Dipole moment (field-independent basis, Debye):
    X=             -3.3271    Y=             -3.2724    Z=              2.1162  Tot=              5.1241
 Quadrupole moment (field-independent basis, Debye-Ang):
   XX=           -111.6514   YY=            -93.3218   ZZ=            -92.2433
   XY=             -9.2570   XZ=              4.3687   YZ=              1.7509

 Normal termination of Gaussian 16 at Thu May  6 17:14:02 2021.
