 Gaussian 16, Revision A.03,
 Gaussian 16:  EM64L-G16RevA.03 25-Dec-2016

 -------------
 #p 6-31g* mp2
 -------------

 ------------------------------------------------------
 Input file generated by CHIRIPA (05-May-2021 14:55:19)
 ------------------------------------------------------
 Symbolic Z-matrix:
 Charge =  0 Multiplicity = 1

                         Standard orientation:
 ---------------------------------------------------------------------
 Center     Atomic      Atomic             Coordinates (Angstroms)
 Number     Number       Type             X           Y           Z
 ---------------------------------------------------------------------
      1          6           0        3.995309   -1.678762   -1.124591
      2          6           0        4.364073   -0.350714   -0.886213
      3          6           0        3.576427    0.469903   -0.073347
      4          6           0        2.421315   -0.072628    0.487603
      5          6           0        2.027317   -1.391815    0.268967
      6          6           0        2.830162   -2.194165   -0.547258
      7          1           0        4.613074   -2.309141   -1.757349
      8          1           0        5.268409    0.052239   -1.333258
      9          1           0        3.838450    1.501544    0.127843
     10          1           0        1.120224   -1.765215    0.728502
     11          1           0        2.541316   -3.225176   -0.730640
     12          7           0        1.579424    0.786453    1.349926
     13          8           0        0.566502    0.284603    1.832390
     14          8           0        1.948415    1.945383    1.527022
     15          6           0       -2.763044    0.822293   -0.304426
     16          6           0       -2.118757    1.382224   -1.573030
     17          6           0       -1.093015    2.477842   -1.281021
     18          1           0       -3.245860    1.641262    0.246142
     19          1           0       -1.977281    0.424508    0.352641
     20          1           0       -2.905625    1.777585   -2.228122
     21          1           0       -1.637584    0.561797   -2.120740
     22          1           0       -0.287707    2.092594   -0.647252
     23          1           0       -1.562952    3.315290   -0.755244
     24          1           0       -0.644846    2.863943   -2.201852
     25          6           0       -3.790731   -0.273901   -0.580007
     26          6           0       -4.435018   -0.833833    0.688596
     27          6           0       -5.460761   -1.929451    0.396588
     28          1           0       -4.576495    0.123884   -1.237075
     29          1           0       -3.307916   -1.092869   -1.130577
     30          1           0       -4.916192   -0.013405    1.236307
     31          1           0       -3.648151   -1.229194    1.343689
     32          1           0       -4.990823   -2.766898   -0.129190
     33          1           0       -6.266069   -1.544202   -0.237182
     34          1           0       -5.908930   -2.315551    1.317418
 ---------------------------------------------------------------------

 SCF Done:  E(RHF) =  -669.536029144     A.U. after   15 cycles
 E2 =    -0.2092269972D+01 EUMP2 =    -0.67162829911612D+03

 The electronic state is 1-A.
 Alpha  occ. eigenvalues --  -20.61024 -20.61006 -15.86022 -11.31325 -11.27891
 Alpha  occ. eigenvalues --  -11.27879 -11.27618 -11.26886 -11.26875 -11.21016
 Alpha  occ. eigenvalues --  -11.20925 -11.20767 -11.20663 -11.20406 -11.20307
 Alpha  occ. eigenvalues --   -1.60074  -1.39627  -1.19492  -1.08903  -1.07732
 Alpha  occ. eigenvalues --   -1.04883  -1.02898  -0.95748  -0.95334  -0.86349
 Alpha  occ. eigenvalues --   -0.86285  -0.82583  -0.78960  -0.77655  -0.77491
 Alpha  occ. eigenvalues --   -0.72250  -0.71406  -0.70601  -0.65148  -0.64885
 Alpha  occ. eigenvalues --   -0.64365  -0.62231  -0.60305  -0.58709  -0.56937
 Alpha  occ. eigenvalues --   -0.55389  -0.54629  -0.53215  -0.52975  -0.52067
 Alpha  occ. eigenvalues --   -0.51743  -0.49293  -0.49019  -0.49006  -0.47264
 Alpha  occ. eigenvalues --   -0.46003  -0.45294  -0.45070  -0.44636  -0.43123
 Alpha  occ. eigenvalues --   -0.37468  -0.36481
 Alpha virt. eigenvalues --    0.04837   0.11170   0.16286   0.21236   0.23434
 Alpha virt. eigenvalues --    0.24801   0.26934   0.27328   0.27869   0.28373
 Alpha virt. eigenvalues --    0.28787   0.30872   0.31886   0.32337   0.32362

 Mulliken charges:
               1
     1  C   -0.170388
     2  C   -0.218575
     3  C   -0.170446
     4  C    0.156524
     5  C   -0.170856
     6  C   -0.218544
     7  H    0.226189
     8  H    0.224052
     9  H    0.276294
    10  H    0.275391
    11  H    0.223947
    12  N    0.488079
    13  O   -0.459309
    14  O   -0.456734
    15  C   -0.307467
    16  C   -0.299370
    17  C   -0.474008
    18  H    0.150279
    19  H    0.169144
    20  H    0.148578
    21  H    0.145079
    22  H    0.157756
    23  H    0.158581
    24  H    0.154154
    25  C   -0.297120
    26  C   -0.299519
    27  C   -0.475090
    28  H    0.146667
    29  H    0.143694
    30  H    0.153085
    31  H    0.154824
    32  H    0.151851
    33  H    0.154019
    34  H    0.159239
 Sum of Mulliken charges =  -0.00000

 Dipole moment (field-independent basis, Debye):
    X=              3.1914    Y=             -2.9712    Z=             -2.8587  Tot=              5.2139
 Quadrupole moment (field-independent basis, Debye-Ang):
   XX=            -79.2219   YY=            -91.8524   ZZ=            -98.7125
   XY=             -6.3009   XZ=             -7.0325   YZ=             -1.6511

 Normal termination of Gaussian 16 at Thu May  6 10:46:43 2021.
