 Gaussian 16, Revision A.03,
 Gaussian 16:  EM64L-G16RevA.03 25-Dec-2016

 -------------
 #p 6-31g* mp2
 -------------

 ------------------------------------------------------
 Input file generated by CHIRIPA (05-May-2021 14:53:17)
 ------------------------------------------------------
 Symbolic Z-matrix:
 Charge =  0 Multiplicity = 1

                         Standard orientation:
 ---------------------------------------------------------------------
 Center     Atomic      Atomic             Coordinates (Angstroms)
 Number     Number       Type             X           Y           Z
 ---------------------------------------------------------------------
      1          6           0       -4.182487    0.677636   -0.277351
      2          6           0       -3.718190    1.686453    0.773696
      3          6           0       -2.733229    2.712933    0.213354
      4          1           0       -3.306565    0.159519   -0.691188
      5          1           0       -4.649719    1.217595   -1.112536
      6          1           0       -3.253214    1.144659    1.607286
      7          1           0       -4.595335    2.202093    1.185216
      8          1           0       -3.190518    3.279063   -0.604560
      9          1           0       -1.840771    2.215621   -0.180092
     10          1           0       -2.414343    3.424296    0.981557
     11          6           0       -5.167510   -0.355048    0.267644
     12          6           0       -5.631806   -1.363866   -0.783404
     13          6           0       -6.616768   -2.390346   -0.223062
     14          1           0       -4.700278   -0.895007    1.102829
     15          1           0       -6.043432    0.163068    0.681481
     16          1           0       -4.754661   -1.879505   -1.194923
     17          1           0       -6.096783   -0.822071   -1.616993
     18          1           0       -7.509226   -1.893034    0.170385
     19          1           0       -6.159478   -2.956476    0.594853
     20          1           0       -6.935654   -3.101709   -0.991264
     21          6           0        1.290547    0.754642    0.114694
     22          6           0        2.286130    1.499802   -0.525673
     23          6           0        3.598138    1.021651   -0.593163
     24          6           0        3.880672   -0.211148   -0.006930
     25          6           0        2.910735   -0.976936    0.638116
     26          6           0        1.605472   -0.479174    0.693524
     27          1           0        0.273968    1.133697    0.162430
     28          1           0        2.044445    2.458325   -0.976081
     29          1           0        4.388286    1.577914   -1.082709
     30          1           0        3.182098   -1.929008    1.077817
     31          1           0        0.834322   -1.060037    1.191492
     32          7           0        5.266066   -0.727726   -0.071983
     33          8           0        5.489280   -1.816720    0.452330
     34          8           0        6.102491   -0.033844   -0.646054
 ---------------------------------------------------------------------

 SCF Done:  E(RHF) =  -669.535479493     A.U. after   15 cycles
 E2 =    -0.2090793381D+01 EUMP2 =    -0.67162627287471D+03

 The electronic state is 1-A.
 Alpha  occ. eigenvalues --  -20.60743 -20.60738 -15.85797 -11.31160 -11.27733
 Alpha  occ. eigenvalues --  -11.27726 -11.27451 -11.26747 -11.26731 -11.22614
 Alpha  occ. eigenvalues --  -11.22318 -11.22265 -11.22199 -11.22085 -11.21566
 Alpha  occ. eigenvalues --   -1.59819  -1.39372  -1.19333  -1.09251  -1.08727
 Alpha  occ. eigenvalues --   -1.04737  -1.04360  -0.96820  -0.95563  -0.87837
 Alpha  occ. eigenvalues --   -0.86133  -0.82398  -0.80427  -0.79025  -0.77444
 Alpha  occ. eigenvalues --   -0.72015  -0.71142  -0.70464  -0.65889  -0.64984
 Alpha  occ. eigenvalues --   -0.64742  -0.62086  -0.61774  -0.60193  -0.58409
 Alpha  occ. eigenvalues --   -0.56225  -0.55170  -0.53505  -0.53222  -0.53065
 Alpha  occ. eigenvalues --   -0.52829  -0.50762  -0.48782  -0.48770  -0.48724
 Alpha  occ. eigenvalues --   -0.47462  -0.46573  -0.46482  -0.44778  -0.44596
 Alpha  occ. eigenvalues --   -0.37311  -0.36343
 Alpha virt. eigenvalues --    0.05092   0.11311   0.16577   0.19149   0.22501
 Alpha virt. eigenvalues --    0.23640   0.25433   0.26239   0.26938   0.27441
 Alpha virt. eigenvalues --    0.28768   0.30428   0.30830   0.31313   0.32314

 Mulliken charges:
               1
     1  C   -0.298343
     2  C   -0.300486
     3  C   -0.480599
     4  H    0.145894
     5  H    0.152377
     6  H    0.150035
     7  H    0.157016
     8  H    0.161292
     9  H    0.145453
    10  H    0.163755
    11  C   -0.298627
    12  C   -0.300171
    13  C   -0.476092
    14  H    0.148777
    15  H    0.151805
    16  H    0.151813
    17  H    0.153296
    18  H    0.156243
    19  H    0.155350
    20  H    0.162200
    21  C   -0.177945
    22  C   -0.221797
    23  C   -0.170779
    24  C    0.158260
    25  C   -0.170614
    26  C   -0.221310
    27  H    0.237847
    28  H    0.223882
    29  H    0.275592
    30  H    0.275419
    31  H    0.223480
    32  N    0.487984
    33  O   -0.460542
    34  O   -0.460466
 Sum of Mulliken charges =  -0.00000

 Dipole moment (field-independent basis, Debye):
    X=             -5.1331    Y=              1.8536    Z=              0.2257  Tot=              5.4622
 Quadrupole moment (field-independent basis, Debye-Ang):
   XX=           -131.6957   YY=            -92.4401   ZZ=            -94.1702
   XY=              8.2483   XZ=              0.4852   YZ=             -2.4066

 Normal termination of Gaussian 16 at Thu May  6 05:59:12 2021.
