 Gaussian 16, Revision A.03,
 Gaussian 16:  EM64L-G16RevA.03 25-Dec-2016

 -------------
 #p 6-31g* mp2
 -------------

 ------------------------------------------------------
 Input file generated by CHIRIPA (05-May-2021 14:57:25)
 ------------------------------------------------------
 Symbolic Z-matrix:
 Charge =  0 Multiplicity = 1

                         Standard orientation:
 ---------------------------------------------------------------------
 Center     Atomic      Atomic             Coordinates (Angstroms)
 Number     Number       Type             X           Y           Z
 ---------------------------------------------------------------------
      1          6           0       -3.758690    1.508704    0.475434
      2          6           0       -4.047259    0.235938    0.978739
      3          6           0       -3.290035   -0.871545    0.585491
      4          6           0       -2.246790   -0.669130   -0.316705
      5          6           0       -1.934634    0.586389   -0.835858
      6          6           0       -2.705157    1.679566   -0.428664
      7          1           0       -4.352085    2.363467    0.786336
      8          1           0       -4.864853    0.100268    1.681005
      9          1           0       -3.491686   -1.867968    0.959517
     10          1           0       -1.113362    0.690270   -1.534527
     11          1           0       -2.478771    2.666851   -0.821174
     12          7           0       -1.438112   -1.834000   -0.740401
     13          8           0       -0.524292   -1.629196   -1.536407
     14          8           0       -1.733403   -2.929773   -0.268466
     15          6           0        1.165852    2.658725   -0.116865
     16          6           0        2.197678    2.279253   -0.981651
     17          6           0        2.877345    1.072710   -0.789678
     18          6           0        2.497457    0.266239    0.282040
     19          6           0        1.473662    0.616669    1.160865
     20          6           0        0.807768    1.827688    0.949753
     21          1           0        0.643220    3.597735   -0.273428
     22          1           0        2.477909    2.922658   -1.810835
     23          1           0        3.679892    0.754540   -1.443976
     24          1           0        1.216848   -0.045674    1.978646
     25          1           0        0.006830    2.119834    1.622950
     26          7           0        3.209699   -1.013443    0.495405
     27          8           0        2.855993   -1.706245    1.447011
     28          8           0        4.108174   -1.299426   -0.293007
 ---------------------------------------------------------------------

 SCF Done:  E(RHF) =  -868.335892921     A.U. after   16 cycles
 E2 =    -0.2603895716D+01 EUMP2 =    -0.87093978863762D+03

 The electronic state is 1-A.
 Alpha  occ. eigenvalues --  -20.60903 -20.60885 -20.60328 -20.60321 -15.85958
 Alpha  occ. eigenvalues --  -15.85391 -11.31501 -11.31058 -11.28140 -11.28137
 Alpha  occ. eigenvalues --  -11.27983 -11.27615 -11.27610 -11.27527 -11.27234
 Alpha  occ. eigenvalues --  -11.27158 -11.26806 -11.26775  -1.59965  -1.59381
 Alpha  occ. eigenvalues --   -1.39514  -1.38934  -1.19756  -1.19257  -1.09108
 Alpha  occ. eigenvalues --   -1.08630  -1.05192  -1.04698  -0.95897  -0.95408
 Alpha  occ. eigenvalues --   -0.86567  -0.86100  -0.82728  -0.82234  -0.77732
 Alpha  occ. eigenvalues --   -0.77204  -0.72172  -0.71620  -0.71312  -0.70854
 Alpha  occ. eigenvalues --   -0.70668  -0.70425  -0.65396  -0.65196  -0.64920
 Alpha  occ. eigenvalues --   -0.64725  -0.62523  -0.62042  -0.55696  -0.55280
 Alpha  occ. eigenvalues --   -0.53766  -0.53308  -0.52830  -0.52714  -0.48938
 Alpha  occ. eigenvalues --   -0.48910  -0.48396  -0.48348  -0.44877  -0.44278
 Alpha  occ. eigenvalues --   -0.37836  -0.37645  -0.36859  -0.35769
 Alpha virt. eigenvalues --    0.04740   0.05345   0.10800   0.11338   0.16254
 Alpha virt. eigenvalues --    0.16660   0.20382   0.21715   0.26132   0.27273
 Alpha virt. eigenvalues --    0.27905   0.28474   0.30298   0.31511   0.32302

 Mulliken charges:
               1
     1  C   -0.172756
     2  C   -0.220373
     3  C   -0.170657
     4  C    0.155123
     5  C   -0.163719
     6  C   -0.225799
     7  H    0.225108
     8  H    0.224676
     9  H    0.278251
    10  H    0.278587
    11  H    0.217451
    12  N    0.488209
    13  O   -0.459491
    14  O   -0.456103
    15  C   -0.181861
    16  C   -0.219296
    17  C   -0.167754
    18  C    0.169207
    19  C   -0.174525
    20  C   -0.214690
    21  H    0.218392
    22  H    0.222626
    23  H    0.277690
    24  H    0.276335
    25  H    0.222255
    26  N    0.490111
    27  O   -0.458374
    28  O   -0.458625
 Sum of Mulliken charges =  -0.00000

 Dipole moment (field-independent basis, Debye):
    X=             -5.1865    Y=              8.2199    Z=              0.7168  Tot=              9.7458
 Quadrupole moment (field-independent basis, Debye-Ang):
   XX=           -102.0231   YY=           -107.5552   ZZ=           -102.1681
   XY=              5.7975   XZ=             -9.7416   YZ=             -4.0910

 Normal termination of Gaussian 16 at Thu May  6 16:24:47 2021.
