 Gaussian 16, Revision A.03,
 Gaussian 16:  EM64L-G16RevA.03 25-Dec-2016

 -------------
 #p 6-31g* mp2
 -------------

 ------------------------------------------------------
 Input file generated by CHIRIPA (05-May-2021 14:55:25)
 ------------------------------------------------------
 Symbolic Z-matrix:
 Charge =  0 Multiplicity = 1

                         Standard orientation:
 ---------------------------------------------------------------------
 Center     Atomic      Atomic             Coordinates (Angstroms)
 Number     Number       Type             X           Y           Z
 ---------------------------------------------------------------------
      1          6           0       -4.568338    2.206958   -0.095847
      2          6           0       -4.018532    1.799296    1.124008
      3          6           0       -3.320334    0.591876    1.219953
      4          6           0       -3.190372   -0.186716    0.070956
      5          6           0       -3.726734    0.192168   -1.158699
      6          6           0       -4.420944    1.403509   -1.231305
      7          1           0       -5.109166    3.146434   -0.161314
      8          1           0       -4.131437    2.421239    2.007458
      9          1           0       -2.884612    0.252206    2.151720
     10          1           0       -3.597723   -0.449163   -2.022105
     11          1           0       -4.846874    1.717582   -2.179982
     12          7           0       -2.453331   -1.467033    0.160175
     13          8           0       -2.352732   -2.134952   -0.866666
     14          8           0       -1.990195   -1.778384    1.255256
     15          6           0        4.736491    0.482229   -0.341426
     16          6           0        6.064763    0.495095    0.415880
     17          6           0        7.049256    1.527225   -0.134827
     18          1           0        4.929153    0.277121   -1.403385
     19          1           0        4.285217    1.482940   -0.293221
     20          1           0        6.512731   -0.505701    0.367434
     21          1           0        5.868900    0.700008    1.476193
     22          1           0        6.626340    2.535065   -0.071556
     23          1           0        7.273830    1.322506   -1.186614
     24          1           0        7.991974    1.519378    0.421122
     25          6           0        3.741830   -0.544426    0.197422
     26          6           0        2.413559   -0.557293   -0.559884
     27          6           0        1.429067   -1.589422   -0.009178
     28          1           0        4.193105   -1.545137    0.149216
     29          1           0        3.549169   -0.339317    1.259380
     30          1           0        2.609423   -0.762205   -1.620198
     31          1           0        1.965591    0.443504   -0.511439
     32          1           0        1.204493   -1.384702    1.042610
     33          1           0        1.851983   -2.597262   -0.072449
     34          1           0        0.486349   -1.581575   -0.565127
 ---------------------------------------------------------------------

 SCF Done:  E(RHF) =  -669.535954906     A.U. after   15 cycles
 E2 =    -0.2091544487D+01 EUMP2 =    -0.67162749939332D+03

 The electronic state is 1-A.
 Alpha  occ. eigenvalues --  -20.60921 -20.60905 -15.85919 -11.31270 -11.27836
 Alpha  occ. eigenvalues --  -11.27832 -11.27576 -11.26846 -11.26836 -11.21230
 Alpha  occ. eigenvalues --  -11.20918 -11.20789 -11.20775 -11.20711 -11.19708
 Alpha  occ. eigenvalues --   -1.59963  -1.39518  -1.19440  -1.08840  -1.07847
 Alpha  occ. eigenvalues --   -1.04839  -1.02862  -0.95682  -0.95273  -0.86280
 Alpha  occ. eigenvalues --   -0.86238  -0.82515  -0.78944  -0.77643  -0.77567
 Alpha  occ. eigenvalues --   -0.72148  -0.71294  -0.70549  -0.65095  -0.64842
 Alpha  occ. eigenvalues --   -0.64489  -0.62186  -0.60269  -0.58690  -0.56889
 Alpha  occ. eigenvalues --   -0.55343  -0.54571  -0.53177  -0.52931  -0.51922
 Alpha  occ. eigenvalues --   -0.51699  -0.49239  -0.48914  -0.48877  -0.47249
 Alpha  occ. eigenvalues --   -0.46020  -0.45206  -0.45131  -0.44828  -0.43085
 Alpha  occ. eigenvalues --   -0.37417  -0.36440
 Alpha virt. eigenvalues --    0.04927   0.11215   0.16408   0.21346   0.23395
 Alpha virt. eigenvalues --    0.25015   0.27188   0.27265   0.28029   0.28162
 Alpha virt. eigenvalues --    0.28831   0.30898   0.32044   0.32306   0.32425

 Mulliken charges:
               1
     1  C   -0.170602
     2  C   -0.218622
     3  C   -0.170814
     4  C    0.159156
     5  C   -0.170917
     6  C   -0.218563
     7  H    0.225919
     8  H    0.223708
     9  H    0.275703
    10  H    0.275826
    11  H    0.223784
    12  N    0.487073
    13  O   -0.459883
    14  O   -0.456858
    15  C   -0.297337
    16  C   -0.299139
    17  C   -0.475280
    18  H    0.148753
    19  H    0.147038
    20  H    0.152071
    21  H    0.151151
    22  H    0.153823
    23  H    0.154722
    24  H    0.159160
    25  C   -0.297326
    26  C   -0.300661
    27  C   -0.477759
    28  H    0.149686
    29  H    0.148407
    30  H    0.149354
    31  H    0.145261
    32  H    0.158639
    33  H    0.154566
    34  H    0.169960
 Sum of Mulliken charges =  -0.00000

 Dipole moment (field-independent basis, Debye):
    X=             -2.8521    Y=              4.4179    Z=             -0.2683  Tot=              5.2654
 Quadrupole moment (field-independent basis, Debye-Ang):
   XX=            -80.0502   YY=            -96.8441   ZZ=            -89.7727
   XY=            -15.1216   XZ=              1.8345   YZ=              1.9391

 Normal termination of Gaussian 16 at Wed May  5 17:40:08 2021.
