 Gaussian 16, Revision A.03,
 Gaussian 16:  EM64L-G16RevA.03 25-Dec-2016

 -------------
 #p 6-31g* mp2
 -------------

 ------------------------------------------------------
 Input file generated by CHIRIPA (05-May-2021 14:57:23)
 ------------------------------------------------------
 Symbolic Z-matrix:
 Charge =  0 Multiplicity = 1

                         Standard orientation:
 ---------------------------------------------------------------------
 Center     Atomic      Atomic             Coordinates (Angstroms)
 Number     Number       Type             X           Y           Z
 ---------------------------------------------------------------------
      1          6           0        4.887367   -1.996976    0.613424
      2          6           0        3.592417   -2.114375    0.097823
      3          6           0        2.900304   -0.984199   -0.347409
      4          6           0        3.536192    0.253399   -0.262035
      5          6           0        4.825448    0.402814    0.246672
      6          6           0        5.498671   -0.740971    0.686075
      7          1           0        5.417680   -2.880209    0.957027
      8          1           0        3.115188   -3.088529    0.040201
      9          1           0        1.896974   -1.046454   -0.750980
     10          1           0        5.275026    1.387340    0.291453
     11          1           0        6.504260   -0.646796    1.086035
     12          7           0        2.813481    1.457068   -0.730297
     13          8           0        3.395774    2.536046   -0.644395
     14          8           0        1.678413    1.298735   -1.174356
     15          6           0       -1.306767    0.497475    0.923139
     16          6           0       -2.395429    1.163585    1.495531
     17          6           0       -3.701049    0.865577    1.094164
     18          6           0       -3.882350   -0.108432    0.113486
     19          6           0       -2.818213   -0.789451   -0.475679
     20          6           0       -1.521256   -0.475203   -0.058908
     21          1           0       -0.295895    0.735282    1.240913
     22          1           0       -2.231852    1.919432    2.258408
     23          1           0       -4.561964    1.365942    1.520634
     24          1           0       -3.012850   -1.538136   -1.233970
     25          1           0       -0.677685   -0.994119   -0.505181
     26          7           0       -5.259967   -0.432517   -0.319577
     27          8           0       -5.393037   -1.294656   -1.185397
     28          8           0       -6.180587    0.181741    0.215009
 ---------------------------------------------------------------------

 SCF Done:  E(RHF) =  -868.338005595     A.U. after   16 cycles
 E2 =    -0.2600118411D+01 EUMP2 =    -0.87093812400564D+03

 The electronic state is 1-A.
 Alpha  occ. eigenvalues --  -20.61880 -20.61841 -20.60373 -20.60367 -15.86887
 Alpha  occ. eigenvalues --  -15.85426 -11.32188 -11.30681 -11.28820 -11.28667
 Alpha  occ. eigenvalues --  -11.28379 -11.27721 -11.27655 -11.27287 -11.27258
 Alpha  occ. eigenvalues --  -11.26919 -11.26289 -11.26201  -1.60928  -1.59451
 Alpha  occ. eigenvalues --   -1.40486  -1.39008  -1.20329  -1.18850  -1.09723
 Alpha  occ. eigenvalues --   -1.08243  -1.05719  -1.04260  -0.96579  -0.95098
 Alpha  occ. eigenvalues --   -0.87119  -0.85656  -0.83409  -0.81954  -0.78497
 Alpha  occ. eigenvalues --   -0.77032  -0.73100  -0.72262  -0.71647  -0.71424
 Alpha  occ. eigenvalues --   -0.70773  -0.69908  -0.65973  -0.65721  -0.64504
 Alpha  occ. eigenvalues --   -0.64303  -0.63067  -0.61622  -0.56180  -0.54706
 Alpha  occ. eigenvalues --   -0.54044  -0.53809  -0.52558  -0.52360  -0.49880
 Alpha  occ. eigenvalues --   -0.49842  -0.48407  -0.48396  -0.45889  -0.44439
 Alpha  occ. eigenvalues --   -0.38276  -0.37316  -0.36754  -0.35860
 Alpha virt. eigenvalues --    0.04009   0.05542   0.10292   0.11802   0.15549
 Alpha virt. eigenvalues --    0.17077   0.18967   0.21923   0.24913   0.26951
 Alpha virt. eigenvalues --    0.28546   0.28757   0.30414   0.30797   0.32324

 Mulliken charges:
               1
     1  C   -0.170008
     2  C   -0.219294
     3  C   -0.178124
     4  C    0.156563
     5  C   -0.169911
     6  C   -0.217958
     7  H    0.229367
     8  H    0.225956
     9  H    0.274690
    10  H    0.277957
    11  H    0.227042
    12  N    0.486422
    13  O   -0.454440
    14  O   -0.465497
    15  C   -0.162023
    16  C   -0.219605
    17  C   -0.170857
    18  C    0.158010
    19  C   -0.172542
    20  C   -0.213941
    21  H    0.226441
    22  H    0.222988
    23  H    0.274235
    24  H    0.273256
    25  H    0.216952
    26  N    0.488209
    27  O   -0.462329
    28  O   -0.461560
 Sum of Mulliken charges =  -0.00000

 Dipole moment (field-independent basis, Debye):
    X=              7.8527    Y=             -3.0048    Z=              3.2290  Tot=              9.0066
 Quadrupole moment (field-independent basis, Debye-Ang):
   XX=           -120.5543   YY=           -103.8560   ZZ=           -104.3079
   XY=            -18.7011   XZ=             -0.1727   YZ=              4.7168

 Normal termination of Gaussian 16 at Wed May  5 22:39:49 2021.
