 Gaussian 16, Revision A.03,
 Gaussian 16:  EM64L-G16RevA.03 25-Dec-2016

 -------------
 #p 6-31g* mp2
 -------------

 ------------------------------------------------------
 Input file generated by CHIRIPA (05-May-2021 14:51:08)
 ------------------------------------------------------
 Symbolic Z-matrix:
 Charge =  0 Multiplicity = 1

                         Standard orientation:
 ---------------------------------------------------------------------
 Center     Atomic      Atomic             Coordinates (Angstroms)
 Number     Number       Type             X           Y           Z
 ---------------------------------------------------------------------
      1          6           0       -2.700102   -0.764359   -0.016692
      2          6           0       -2.392392   -1.602429    1.224653
      3          6           0       -1.637610   -2.890839    0.895870
      4          1           0       -3.289769   -1.366858   -0.721130
      5          1           0       -1.758661   -0.518757   -0.527342
      6          1           0       -3.334027   -1.845209    1.733570
      7          1           0       -1.803552   -0.997802    1.926300
      8          1           0       -0.683670   -2.664802    0.408523
      9          1           0       -2.222842   -3.517025    0.214698
     10          1           0       -1.427964   -3.474566    1.797630
     11          6           0       -3.454369    0.526831    0.295781
     12          6           0       -3.762079    1.364901   -0.945564
     13          6           0       -4.516861    2.653311   -0.616781
     14          1           0       -4.395810    0.281229    0.806431
     15          1           0       -2.864702    1.129330    1.000219
     16          1           0       -4.350919    0.760273   -1.647211
     17          1           0       -2.820443    1.607681   -1.454481
     18          1           0       -3.931629    3.279497    0.064391
     19          1           0       -5.470800    2.427274   -0.129434
     20          1           0       -4.726507    3.237038   -1.518541
     21          6           0        3.045453    0.694443    0.361471
     22          6           0        3.814216    1.935994   -0.091895
     23          6           0        3.741264    3.079060    0.920957
     24          1           0        1.995095    0.964882    0.536270
     25          1           0        3.445957    0.356050    1.327122
     26          1           0        3.413301    2.271129   -1.057073
     27          1           0        4.862825    1.662525   -0.265820
     28          1           0        4.159745    2.768053    1.883636
     29          1           0        2.701984    3.380115    1.087887
     30          1           0        4.297552    3.956529    0.576792
     31          6           0        3.109017   -0.456915   -0.640560
     32          6           0        2.340254   -1.698465   -0.187194
     33          6           0        2.413207   -2.841532   -1.200046
     34          1           0        2.708514   -0.118522   -1.606211
     35          1           0        4.159375   -0.727354   -0.815359
     36          1           0        1.291646   -1.424997   -0.013269
     37          1           0        2.741170   -2.033601    0.777983
     38          1           0        3.452487   -3.142588   -1.366976
     39          1           0        1.994726   -2.530526   -2.162724
     40          1           0        1.856919   -3.719001   -0.855880
 ---------------------------------------------------------------------

 SCF Done:  E(RHF) =  -470.733252104     A.U. after   11 cycles
 E2 =    -0.1582907392D+01 EUMP2 =    -0.47231615949652D+03

 The electronic state is 1-A.
 Alpha  occ. eigenvalues --  -11.21642 -11.21637 -11.21629 -11.21605 -11.21448
 Alpha  occ. eigenvalues --  -11.21434 -11.21388 -11.21375 -11.21104 -11.21093
 Alpha  occ. eigenvalues --  -11.21092 -11.21021  -1.08479  -1.08446  -1.03587
 Alpha  occ. eigenvalues --   -1.03523  -0.96032  -0.95971  -0.87028  -0.87006
 Alpha  occ. eigenvalues --   -0.79672  -0.79569  -0.78312  -0.78241  -0.65188
 Alpha  occ. eigenvalues --   -0.65014  -0.61122  -0.60815  -0.59401  -0.59340
 Alpha  occ. eigenvalues --   -0.57705  -0.57530  -0.55373  -0.55196  -0.52716
 Alpha  occ. eigenvalues --   -0.52674  -0.52458  -0.52381  -0.50010  -0.49889
 Alpha  occ. eigenvalues --   -0.48019  -0.47868  -0.46817  -0.46506  -0.45926
 Alpha  occ. eigenvalues --   -0.45786  -0.45771  -0.45541  -0.43823  -0.43797
 Alpha virt. eigenvalues --    0.20523   0.23310   0.23373   0.24752   0.25999
 Alpha virt. eigenvalues --    0.26731   0.26979   0.27424   0.28446   0.28843
 Alpha virt. eigenvalues --    0.30728   0.31204   0.31616   0.31758   0.32066

 Mulliken charges:
               1
     1  C   -0.299138
     2  C   -0.299403
     3  C   -0.483618
     4  H    0.149998
     5  H    0.148836
     6  H    0.152075
     7  H    0.151951
     8  H    0.163777
     9  H    0.154961
    10  H    0.160196
    11  C   -0.298296
    12  C   -0.299610
    13  C   -0.475716
    14  H    0.149822
    15  H    0.149549
    16  H    0.152077
    17  H    0.151552
    18  H    0.155162
    19  H    0.155317
    20  H    0.160313
    21  C   -0.298266
    22  C   -0.299688
    23  C   -0.475702
    24  H    0.148953
    25  H    0.149770
    26  H    0.151945
    27  H    0.152153
    28  H    0.155288
    29  H    0.154986
    30  H    0.160430
    31  C   -0.297706
    32  C   -0.305097
    33  C   -0.477083
    34  H    0.149451
    35  H    0.149954
    36  H    0.155322
    37  H    0.152555
    38  H    0.155546
    39  H    0.155276
    40  H    0.162107
 Sum of Mulliken charges =  -0.00000

 Dipole moment (field-independent basis, Debye):
    X=              0.0196    Y=             -0.0113    Z=             -0.0016  Tot=              0.0227
 Quadrupole moment (field-independent basis, Debye-Ang):
   XX=            -83.4736   YY=            -86.1696   ZZ=            -84.9806
   XY=              0.5786   XZ=              0.5254   YZ=             -0.7429

 Normal termination of Gaussian 16 at Wed May  5 21:17:33 2021.
