 Gaussian 16, Revision A.03,
 Gaussian 16:  EM64L-G16RevA.03 25-Dec-2016

 -------------
 #p 6-31g* mp2
 -------------

 ------------------------------------------------------
 Input file generated by CHIRIPA (05-May-2021 14:51:10)
 ------------------------------------------------------
 Symbolic Z-matrix:
 Charge =  0 Multiplicity = 1

                         Standard orientation:
 ---------------------------------------------------------------------
 Center     Atomic      Atomic             Coordinates (Angstroms)
 Number     Number       Type             X           Y           Z
 ---------------------------------------------------------------------
      1          6           0        2.664189   -1.274802    0.209277
      2          6           0        1.779851   -1.257629    1.456529
      3          6           0        1.070153   -2.590515    1.696397
      4          1           0        2.048874   -1.526804   -0.665267
      5          1           0        3.409912   -2.075761    0.308049
      6          1           0        1.036898   -0.456043    1.356046
      7          1           0        2.397306   -1.005450    2.328178
      8          1           0        1.798896   -3.397731    1.822637
      9          1           0        0.430758   -2.845203    0.844981
     10          1           0        0.443410   -2.555984    2.592980
     11          6           0        3.380362    0.050619   -0.043870
     12          6           0        4.264699    0.033446   -1.291122
     13          6           0        4.974398    1.366332   -1.530990
     14          1           0        2.634638    0.851578   -0.142641
     15          1           0        3.995676    0.302621    0.830675
     16          1           0        3.647244   -0.218732   -2.162771
     17          1           0        5.007652   -0.768139   -1.190638
     18          1           0        5.613792    1.621020   -0.679573
     19          1           0        4.245655    2.173549   -1.657229
     20          1           0        5.601141    1.331802   -2.427573
     21          6           0       -3.104076    0.000393   -0.532776
     22          6           0       -4.556802   -0.452710   -0.682000
     23          6           0       -4.704217   -1.677484   -1.585323
     24          1           0       -2.692566    0.224261   -1.526501
     25          1           0       -2.508352   -0.829177   -0.127410
     26          1           0       -5.149879    0.377909   -1.085667
     27          1           0       -4.964961   -0.675343    0.312212
     28          1           0       -4.136964   -2.523184   -1.183307
     29          1           0       -4.322933   -1.463947   -2.589129
     30          1           0       -5.750697   -1.984306   -1.678069
     31          6           0       -2.940475    1.223790    0.367369
     32          6           0       -1.487749    1.676893    0.516592
     33          6           0       -1.340333    2.901667    1.419915
     34          1           0       -3.536198    2.053360   -0.037998
     35          1           0       -3.351985    0.999921    1.361093
     36          1           0       -1.079590    1.899525   -0.477619
     37          1           0       -0.894671    0.846273    0.920259
     38          1           0       -1.721617    2.688130    2.423721
     39          1           0       -1.907586    3.747366    1.017900
     40          1           0       -0.293855    3.208489    1.512662
 ---------------------------------------------------------------------

 SCF Done:  E(RHF) =  -470.733416319     A.U. after   11 cycles
 E2 =    -0.1582952927D+01 EUMP2 =    -0.47231636924573D+03

 The electronic state is 1-A.
 Alpha  occ. eigenvalues --  -11.21648 -11.21626 -11.21592 -11.21590 -11.21443
 Alpha  occ. eigenvalues --  -11.21393 -11.21384 -11.21333 -11.21107 -11.21101
 Alpha  occ. eigenvalues --  -11.21091 -11.21066  -1.08472  -1.08420  -1.03573
 Alpha  occ. eigenvalues --   -1.03524  -0.96010  -0.95981  -0.87029  -0.86995
 Alpha  occ. eigenvalues --   -0.79683  -0.79551  -0.78321  -0.78198  -0.65175
 Alpha  occ. eigenvalues --   -0.64989  -0.61074  -0.60833  -0.59402  -0.59325
 Alpha  occ. eigenvalues --   -0.57628  -0.57586  -0.55297  -0.55267  -0.52706
 Alpha  occ. eigenvalues --   -0.52676  -0.52438  -0.52405  -0.50008  -0.49881
 Alpha  occ. eigenvalues --   -0.48078  -0.47847  -0.46890  -0.46450  -0.45969
 Alpha  occ. eigenvalues --   -0.45785  -0.45747  -0.45397  -0.43818  -0.43781
 Alpha virt. eigenvalues --    0.20753   0.23204   0.23850   0.24131   0.25940
 Alpha virt. eigenvalues --    0.26718   0.27037   0.27635   0.28483   0.28948
 Alpha virt. eigenvalues --    0.30417   0.31580   0.31689   0.31849   0.31942

 Mulliken charges:
               1
     1  C   -0.297529
     2  C   -0.309083
     3  C   -0.475780
     4  H    0.149935
     5  H    0.149423
     6  H    0.160341
     7  H    0.152050
     8  H    0.155622
     9  H    0.155044
    10  H    0.159717
    11  C   -0.298781
    12  C   -0.299668
    13  C   -0.475709
    14  H    0.150128
    15  H    0.149500
    16  H    0.152005
    17  H    0.151893
    18  H    0.155148
    19  H    0.155143
    20  H    0.160216
    21  C   -0.298761
    22  C   -0.299658
    23  C   -0.475789
    24  H    0.149413
    25  H    0.149647
    26  H    0.152022
    27  H    0.152153
    28  H    0.155313
    29  H    0.155088
    30  H    0.160406
    31  C   -0.297398
    32  C   -0.309313
    33  C   -0.475320
    34  H    0.149747
    35  H    0.149855
    36  H    0.151402
    37  H    0.160305
    38  H    0.155379
    39  H    0.155410
    40  H    0.160484
 Sum of Mulliken charges =  -0.00000

 Dipole moment (field-independent basis, Debye):
    X=             -0.0132    Y=              0.0071    Z=              0.0036  Tot=              0.0154
 Quadrupole moment (field-independent basis, Debye-Ang):
   XX=            -84.5347   YY=            -85.9045   ZZ=            -84.2874
   XY=             -1.0883   XZ=              0.5379   YZ=             -0.9412

 Normal termination of Gaussian 16 at Thu May  6 03:47:18 2021.
