 Gaussian 16, Revision A.03,
 Gaussian 16:  EM64L-G16RevA.03 25-Dec-2016

 -------------
 #p 6-31g* mp2
 -------------

 ------------------------------------------------------
 Input file generated by CHIRIPA (05-May-2021 14:55:19)
 ------------------------------------------------------
 Symbolic Z-matrix:
 Charge =  0 Multiplicity = 1

                         Standard orientation:
 ---------------------------------------------------------------------
 Center     Atomic      Atomic             Coordinates (Angstroms)
 Number     Number       Type             X           Y           Z
 ---------------------------------------------------------------------
      1          6           0        5.976293   -1.444136   -0.265317
      2          6           0        4.680295   -1.964249   -0.185365
      3          6           0        3.577061   -1.110501   -0.092965
      4          6           0        3.807367    0.264327   -0.083099
      5          6           0        5.086471    0.813017   -0.161345
      6          6           0        6.174895   -0.059604   -0.253074
      7          1           0        6.827559   -2.114679   -0.336835
      8          1           0        4.523058   -3.039067   -0.194657
      9          1           0        2.563038   -1.486252   -0.029822
     10          1           0        5.211603    1.888948   -0.149809
     11          1           0        7.180262    0.347142   -0.315036
     12          7           0        2.647262    1.178142    0.014366
     13          8           0        2.876850    2.385569    0.021139
     14          8           0        1.530352    0.669659    0.082139
     15          6           0       -4.567627   -0.394391    0.594285
     16          6           0       -3.193649    0.200142    0.283320
     17          6           0       -2.102695   -0.307238    1.226815
     18          1           0       -4.837557   -0.154589    1.631868
     19          1           0       -4.508042   -1.489821    0.532004
     20          1           0       -3.256141    1.294184    0.344814
     21          1           0       -2.927043   -0.040939   -0.753703
     22          1           0       -2.011224   -1.396154    1.159762
     23          1           0       -2.342192   -0.053444    2.264519
     24          1           0       -1.128743    0.130464    0.986621
     25          6           0       -5.668703    0.103269   -0.340430
     26          6           0       -7.042682   -0.491262   -0.029466
     27          6           0       -8.133634    0.016116   -0.972961
     28          1           0       -5.728288    1.198699   -0.278150
     29          1           0       -5.398773   -0.136531   -1.378013
     30          1           0       -7.309288   -0.250182    1.007558
     31          1           0       -6.980189   -1.585305   -0.090960
     32          1           0       -7.894138   -0.237677   -2.010665
     33          1           0       -8.225107    1.105032   -0.905907
     34          1           0       -9.107588   -0.421584   -0.732766
 ---------------------------------------------------------------------

 SCF Done:  E(RHF) =  -669.536187636     A.U. after   15 cycles
 E2 =    -0.2090564277D+01 EUMP2 =    -0.67162675191260D+03

 The electronic state is 1-A.
 Alpha  occ. eigenvalues --  -20.60927 -20.60921 -15.85972 -11.31280 -11.27844
 Alpha  occ. eigenvalues --  -11.27838 -11.27582 -11.26851 -11.26841 -11.21114
 Alpha  occ. eigenvalues --  -11.20765 -11.20659 -11.20628 -11.20559 -11.19761
 Alpha  occ. eigenvalues --   -1.59991  -1.39548  -1.19449  -1.08855  -1.07714
 Alpha  occ. eigenvalues --   -1.04844  -1.02746  -0.95700  -0.95187  -0.86247
 Alpha  occ. eigenvalues --   -0.86208  -0.82534  -0.78838  -0.77586  -0.77505
 Alpha  occ. eigenvalues --   -0.72200  -0.71306  -0.70558  -0.65106  -0.64848
 Alpha  occ. eigenvalues --   -0.64357  -0.62191  -0.60160  -0.58567  -0.56759
 Alpha  occ. eigenvalues --   -0.55350  -0.54506  -0.53177  -0.52937  -0.51826
 Alpha  occ. eigenvalues --   -0.51615  -0.49175  -0.48949  -0.48933  -0.47129
 Alpha  occ. eigenvalues --   -0.45901  -0.45048  -0.44976  -0.44962  -0.42970
 Alpha  occ. eigenvalues --   -0.37429  -0.36445
 Alpha virt. eigenvalues --    0.04942   0.11210   0.16437   0.21318   0.23528
 Alpha virt. eigenvalues --    0.25116   0.27250   0.27321   0.28031   0.28185
 Alpha virt. eigenvalues --    0.28941   0.30873   0.32110   0.32243   0.32470

 Mulliken charges:
               1
     1  C   -0.170595
     2  C   -0.218566
     3  C   -0.170662
     4  C    0.157380
     5  C   -0.170526
     6  C   -0.218621
     7  H    0.225943
     8  H    0.223849
     9  H    0.276141
    10  H    0.275826
    11  H    0.223750
    12  N    0.495513
    13  O   -0.458984
    14  O   -0.467333
    15  C   -0.297396
    16  C   -0.297714
    17  C   -0.488339
    18  H    0.147935
    19  H    0.146294
    20  H    0.153298
    21  H    0.151008
    22  H    0.145584
    23  H    0.149579
    24  H    0.190525
    25  C   -0.297648
    26  C   -0.298985
    27  C   -0.475302
    28  H    0.149647
    29  H    0.148654
    30  H    0.151207
    31  H    0.150428
    32  H    0.154480
    33  H    0.155096
    34  H    0.158535
 Sum of Mulliken charges =  -0.00000

 Dipole moment (field-independent basis, Debye):
    X=              4.4117    Y=             -3.1328    Z=             -0.3729  Tot=              5.4237
 Quadrupole moment (field-independent basis, Debye-Ang):
   XX=            -63.8941   YY=            -93.1026   ZZ=            -95.7480
   XY=             -8.7778   XZ=             -2.3475   YZ=              0.8286

 Normal termination of Gaussian 16 at Thu May  6 15:42:10 2021.
