 Gaussian 16, Revision A.03,
 Gaussian 16:  EM64L-G16RevA.03 25-Dec-2016

 -------------
 #p 6-31g* mp2
 -------------

 ------------------------------------------------------
 Input file generated by CHIRIPA (05-May-2021 14:55:23)
 ------------------------------------------------------
 Symbolic Z-matrix:
 Charge =  0 Multiplicity = 1

                         Standard orientation:
 ---------------------------------------------------------------------
 Center     Atomic      Atomic             Coordinates (Angstroms)
 Number     Number       Type             X           Y           Z
 ---------------------------------------------------------------------
      1          6           0       -3.126158    0.948695    1.169544
      2          6           0       -3.227000    0.764493   -0.213359
      3          6           0       -2.455852   -0.207047   -0.858332
      4          6           0       -1.590260   -0.980187   -0.086131
      5          6           0       -1.467362   -0.820605    1.293260
      6          6           0       -2.248208    0.156955    1.917122
      7          1           0       -3.728971    1.705749    1.662375
      8          1           0       -3.907982    1.377918   -0.796469
      9          1           0       -2.514131   -0.370777   -1.927544
     10          1           0       -0.779626   -1.447388    1.847858
     11          1           0       -2.167819    0.297795    2.991248
     12          7           0       -0.768747   -2.011899   -0.757761
     13          8           0       -0.013673   -2.680127   -0.054929
     14          8           0       -0.895474   -2.132791   -1.974298
     15          6           0        2.037359    1.652821   -0.449505
     16          6           0        0.682936    2.267932   -0.095723
     17          6           0        0.354021    3.499110   -0.940597
     18          1           0        2.822402    2.410003   -0.317875
     19          1           0        2.041537    1.380014   -1.513908
     20          1           0        0.680823    2.538229    0.968021
     21          1           0       -0.098952    1.509141   -0.228026
     22          1           0        0.328724    3.240883   -2.004213
     23          1           0        1.112930    4.275817   -0.801370
     24          1           0       -0.618465    3.922802   -0.671124
     25          6           0        2.380321    0.421160    0.386627
     26          6           0        3.734743   -0.193952    0.032845
     27          6           0        4.063657   -1.425129    0.877719
     28          1           0        2.376142    0.693966    1.451031
     29          1           0        1.595278   -0.336023    0.254997
     30          1           0        4.516631    0.564839    0.165148
     31          1           0        3.736856   -0.464248   -1.030899
     32          1           0        3.304750   -2.201837    0.738493
     33          1           0        4.088955   -1.166901    1.941336
     34          1           0        5.036144   -1.848821    0.608246
 ---------------------------------------------------------------------

 SCF Done:  E(RHF) =  -669.535271424     A.U. after   15 cycles
 E2 =    -0.2095980128D+01 EUMP2 =    -0.67163125155185D+03

 The electronic state is 1-A.
 Alpha  occ. eigenvalues --  -20.61046 -20.61040 -15.86046 -11.31311 -11.27898
 Alpha  occ. eigenvalues --  -11.27874 -11.27639 -11.26910 -11.26883 -11.21381
 Alpha  occ. eigenvalues --  -11.21092 -11.21070 -11.21004 -11.20900 -11.20298
 Alpha  occ. eigenvalues --   -1.60096  -1.39653  -1.19523  -1.08921  -1.08062
 Alpha  occ. eigenvalues --   -1.04897  -1.03143  -0.95767  -0.95608  -0.86629
 Alpha  occ. eigenvalues --   -0.86296  -0.82599  -0.79244  -0.77899  -0.77641
 Alpha  occ. eigenvalues --   -0.72279  -0.71429  -0.70611  -0.65166  -0.64894
 Alpha  occ. eigenvalues --   -0.64691  -0.62240  -0.60566  -0.59037  -0.57221
 Alpha  occ. eigenvalues --   -0.55401  -0.54893  -0.53371  -0.52982  -0.52285
 Alpha  occ. eigenvalues --   -0.52024  -0.49538  -0.49047  -0.49032  -0.47500
 Alpha  occ. eigenvalues --   -0.46239  -0.45622  -0.45375  -0.44633  -0.43406
 Alpha  occ. eigenvalues --   -0.37462  -0.36480
 Alpha virt. eigenvalues --    0.04844   0.11087   0.16300   0.21261   0.23159
 Alpha virt. eigenvalues --    0.24619   0.26814   0.27078   0.27682   0.28216
 Alpha virt. eigenvalues --    0.28417   0.30940   0.31638   0.31982   0.32179

 Mulliken charges:
               1
     1  C   -0.170327
     2  C   -0.215610
     3  C   -0.174855
     4  C    0.157594
     5  C   -0.171073
     6  C   -0.215432
     7  H    0.226486
     8  H    0.224494
     9  H    0.275965
    10  H    0.276502
    11  H    0.224355
    12  N    0.488884
    13  O   -0.458942
    14  O   -0.457742
    15  C   -0.298834
    16  C   -0.305326
    17  C   -0.474297
    18  H    0.147876
    19  H    0.151759
    20  H    0.146571
    21  H    0.160226
    22  H    0.155190
    23  H    0.155088
    24  H    0.153593
    25  C   -0.304624
    26  C   -0.297697
    27  C   -0.480832
    28  H    0.143105
    29  H    0.155974
    30  H    0.147969
    31  H    0.155639
    32  H    0.171326
    33  H    0.148823
    34  H    0.158174
 Sum of Mulliken charges =  -0.00000

 Dipole moment (field-independent basis, Debye):
    X=             -3.0743    Y=              3.4127    Z=              2.3258  Tot=              5.1485
 Quadrupole moment (field-independent basis, Debye-Ang):
   XX=            -85.4189   YY=           -103.0636   ZZ=            -91.1980
   XY=             -3.3718   XZ=             -1.7505   YZ=             -2.9194

 Normal termination of Gaussian 16 at Thu May  6 09:30:06 2021.
