 Gaussian 16, Revision A.03,
 Gaussian 16:  EM64L-G16RevA.03 25-Dec-2016

 -------------
 #p 6-31g* mp2
 -------------

 ------------------------------------------------------
 Input file generated by CHIRIPA (05-May-2021 14:55:23)
 ------------------------------------------------------
 Symbolic Z-matrix:
 Charge =  0 Multiplicity = 1

                         Standard orientation:
 ---------------------------------------------------------------------
 Center     Atomic      Atomic             Coordinates (Angstroms)
 Number     Number       Type             X           Y           Z
 ---------------------------------------------------------------------
      1          6           0       -0.999696    0.798859   -0.748389
      2          6           0       -2.148693    1.584000   -0.889388
      3          6           0       -3.403370    1.075427   -0.540548
      4          6           0       -3.472757   -0.228232   -0.051724
      5          6           0       -2.346281   -1.035235    0.100224
      6          6           0       -1.101977   -0.505952   -0.254903
      7          1           0       -0.029062    1.201974   -1.021818
      8          1           0       -2.072268    2.597670   -1.272372
      9          1           0       -4.309030    1.661420   -0.639586
     10          1           0       -2.454155   -2.042161    0.484777
     11          1           0       -0.211343   -1.117992   -0.144342
     12          7           0       -4.795537   -0.777597    0.320906
     13          8           0       -4.829913   -1.929120    0.749217
     14          8           0       -5.772908   -0.046265    0.177605
     15          6           0        4.088967    0.858141    0.480227
     16          6           0        2.810530    1.592327    0.074571
     17          6           0        2.670500    2.954964    0.753840
     18          1           0        4.099299    0.728430    1.571105
     19          1           0        4.957389    1.483783    0.231611
     20          1           0        1.944841    0.964895    0.322615
     21          1           0        2.803151    1.720136   -1.015486
     22          1           0        3.515407    3.602087    0.497003
     23          1           0        2.652220    2.842555    1.842707
     24          1           0        1.749743    3.462449    0.449662
     25          6           0        4.243186   -0.505655   -0.190595
     26          6           0        5.521623   -1.239841    0.215060
     27          6           0        5.661653   -2.602478   -0.464208
     28          1           0        3.374764   -1.131298    0.058021
     29          1           0        4.232855   -0.375944   -1.281472
     30          1           0        5.529002   -1.367649    1.305119
     31          1           0        6.387312   -0.612409   -0.032982
     32          1           0        5.679933   -2.490068   -1.553076
     33          1           0        4.816746   -3.249601   -0.207371
     34          1           0        6.582411   -3.109964   -0.160031
 ---------------------------------------------------------------------

 SCF Done:  E(RHF) =  -669.535420159     A.U. after   15 cycles
 E2 =    -0.2091682876D+01 EUMP2 =    -0.67162710303452D+03

 The electronic state is 1-A.
 Alpha  occ. eigenvalues --  -20.60726 -20.60721 -15.85780 -11.31135 -11.27712
 Alpha  occ. eigenvalues --  -11.27707 -11.27374 -11.26711 -11.26697 -11.22861
 Alpha  occ. eigenvalues --  -11.22369 -11.22327 -11.22273 -11.22117 -11.21685
 Alpha  occ. eigenvalues --   -1.59802  -1.39356  -1.19306  -1.09391  -1.08695
 Alpha  occ. eigenvalues --   -1.04712  -1.04458  -0.96867  -0.95534  -0.87882
 Alpha  occ. eigenvalues --   -0.86107  -0.82377  -0.80570  -0.79206  -0.77423
 Alpha  occ. eigenvalues --   -0.71998  -0.71126  -0.70409  -0.66017  -0.64955
 Alpha  occ. eigenvalues --   -0.64717  -0.62069  -0.61833  -0.60280  -0.58512
 Alpha  occ. eigenvalues --   -0.56132  -0.55166  -0.53565  -0.53289  -0.53036
 Alpha  occ. eigenvalues --   -0.52801  -0.50798  -0.48852  -0.48754  -0.48743
 Alpha  occ. eigenvalues --   -0.47587  -0.46721  -0.46639  -0.44764  -0.44706
 Alpha  occ. eigenvalues --   -0.37264  -0.36321
 Alpha virt. eigenvalues --    0.05100   0.11282   0.16551   0.19716   0.22282
 Alpha virt. eigenvalues --    0.23350   0.24493   0.25830   0.26416   0.28331
 Alpha virt. eigenvalues --    0.29233   0.30174   0.30724   0.30942   0.32245

 Mulliken charges:
               1
     1  C   -0.175134
     2  C   -0.220460
     3  C   -0.170654
     4  C    0.158129
     5  C   -0.170776
     6  C   -0.222230
     7  H    0.236233
     8  H    0.223194
     9  H    0.275367
    10  H    0.275336
    11  H    0.223597
    12  N    0.488098
    13  O   -0.460654
    14  O   -0.460577
    15  C   -0.297872
    16  C   -0.308337
    17  C   -0.475226
    18  H    0.153316
    19  H    0.153386
    20  H    0.147574
    21  H    0.149679
    22  H    0.159663
    23  H    0.160464
    24  H    0.156810
    25  C   -0.298425
    26  C   -0.300409
    27  C   -0.476211
    28  H    0.144184
    29  H    0.150195
    30  H    0.153824
    31  H    0.154071
    32  H    0.155897
    33  H    0.154846
    34  H    0.163103
 Sum of Mulliken charges =  -0.00000

 Dipole moment (field-independent basis, Debye):
    X=              4.9291    Y=              1.9732    Z=             -1.2573  Tot=              5.4562
 Quadrupole moment (field-independent basis, Debye-Ang):
   XX=           -125.4732   YY=            -92.6709   ZZ=            -94.5892
   XY=             -9.4484   XZ=              4.9200   YZ=             -1.7812

 Normal termination of Gaussian 16 at Wed May  5 19:04:26 2021.
