 Gaussian 16, Revision A.03,
 Gaussian 16:  EM64L-G16RevA.03 25-Dec-2016

 -------------
 #p 6-31g* mp2
 -------------

 ------------------------------------------------------
 Input file generated by CHIRIPA (05-May-2021 14:51:10)
 ------------------------------------------------------
 Symbolic Z-matrix:
 Charge =  0 Multiplicity = 1

                         Standard orientation:
 ---------------------------------------------------------------------
 Center     Atomic      Atomic             Coordinates (Angstroms)
 Number     Number       Type             X           Y           Z
 ---------------------------------------------------------------------
      1          6           0       -3.304981   -0.556928    0.367933
      2          6           0       -2.041673   -0.326108   -0.461984
      3          6           0       -0.766097   -0.729112    0.278480
      4          1           0       -3.228798    0.010483    1.305582
      5          1           0       -3.362319   -1.617811    0.648351
      6          1           0       -1.987454    0.733755   -0.741921
      7          1           0       -2.120956   -0.893983   -1.397852
      8          1           0       -0.794016   -1.790814    0.544209
      9          1           0       -0.659756   -0.153827    1.203866
     10          1           0        0.124881   -0.555760   -0.333048
     11          6           0       -4.588379   -0.158820   -0.358790
     12          6           0       -5.851686   -0.389640    0.471127
     13          6           0       -7.127262    0.013364   -0.269337
     14          1           0       -4.531041    0.902063   -0.639208
     15          1           0       -4.664561   -0.726231   -1.296439
     16          1           0       -5.772404    0.178235    1.406995
     17          1           0       -5.905906   -1.449504    0.751065
     18          1           0       -7.233604   -0.561921   -1.194723
     19          1           0       -7.099344    1.075066   -0.535065
     20          1           0       -8.018241   -0.159988    0.342191
     21          6           0        3.827842    1.112391   -0.008319
     22          6           0        2.348913    1.493667    0.065062
     23          6           0        2.127325    3.006486    0.056664
     24          1           0        4.359612    1.567006    0.838729
     25          1           0        4.265543    1.542962   -0.919592
     26          1           0        1.913798    1.061345    0.975220
     27          1           0        1.820565    1.037933   -0.782152
     28          1           0        2.535116    3.450496   -0.857209
     29          1           0        2.628878    3.474041    0.910150
     30          1           0        1.063158    3.256664    0.109787
     31          6           0        4.065518   -0.396643   -0.000825
     32          6           0        5.544447   -0.777919   -0.074205
     33          6           0        5.766035   -2.290738   -0.065807
     34          1           0        3.627817   -0.827214    0.910449
     35          1           0        3.533748   -0.851258   -0.847872
     36          1           0        6.072793   -0.322185    0.773009
     37          1           0        5.979562   -0.345597   -0.984364
     38          1           0        5.264482   -2.758293   -0.919293
     39          1           0        5.358244   -2.734748    0.848064
     40          1           0        6.830202   -2.540916   -0.118931
 ---------------------------------------------------------------------

 SCF Done:  E(RHF) =  -470.732586882     A.U. after   11 cycles
 E2 =    -0.1582965024D+01 EUMP2 =    -0.47231555190606D+03

 The electronic state is 1-A.
 Alpha  occ. eigenvalues --  -11.21590 -11.21587 -11.21555 -11.21543 -11.21386
 Alpha  occ. eigenvalues --  -11.21379 -11.21325 -11.21319 -11.21062 -11.21060
 Alpha  occ. eigenvalues --  -11.21058 -11.20927  -1.08425  -1.08390  -1.03545
 Alpha  occ. eigenvalues --   -1.03461  -0.95980  -0.95923  -0.87023  -0.86918
 Alpha  occ. eigenvalues --   -0.79689  -0.79461  -0.78251  -0.78187  -0.65052
 Alpha  occ. eigenvalues --   -0.65027  -0.60935  -0.60882  -0.59523  -0.59150
 Alpha  occ. eigenvalues --   -0.57641  -0.57481  -0.55259  -0.55214  -0.52784
 Alpha  occ. eigenvalues --   -0.52580  -0.52396  -0.52318  -0.49935  -0.49865
 Alpha  occ. eigenvalues --   -0.47992  -0.47766  -0.46662  -0.46532  -0.45781
 Alpha  occ. eigenvalues --   -0.45762  -0.45691  -0.45629  -0.43797  -0.43635
 Alpha virt. eigenvalues --    0.21882   0.23050   0.23645   0.24840   0.25811
 Alpha virt. eigenvalues --    0.26368   0.26741   0.27556   0.27827   0.29143
 Alpha virt. eigenvalues --    0.30181   0.31220   0.31579   0.32082   0.32205

 Mulliken charges:
               1
     1  C   -0.298275
     2  C   -0.299978
     3  C   -0.479242
     4  H    0.149450
     5  H    0.149493
     6  H    0.151405
     7  H    0.151385
     8  H    0.153871
     9  H    0.154327
    10  H    0.166960
    11  C   -0.298211
    12  C   -0.299613
    13  C   -0.475681
    14  H    0.149389
    15  H    0.149549
    16  H    0.151875
    17  H    0.151894
    18  H    0.155142
    19  H    0.155145
    20  H    0.160193
    21  C   -0.298129
    22  C   -0.302721
    23  C   -0.475596
    24  H    0.149429
    25  H    0.149100
    26  H    0.155715
    27  H    0.153503
    28  H    0.154938
    29  H    0.155012
    30  H    0.159837
    31  C   -0.298774
    32  C   -0.299541
    33  C   -0.475686
    34  H    0.150287
    35  H    0.149121
    36  H    0.151973
    37  H    0.151837
    38  H    0.155144
    39  H    0.155306
    40  H    0.160171
 Sum of Mulliken charges =  -0.00000

 Dipole moment (field-independent basis, Debye):
    X=              0.0291    Y=              0.0013    Z=              0.0072  Tot=              0.0300
 Quadrupole moment (field-independent basis, Debye-Ang):
   XX=            -86.0583   YY=            -85.1463   ZZ=            -83.7453
   XY=              0.6320   XZ=             -0.2825   YZ=              0.5005

 Normal termination of Gaussian 16 at Thu May  6 05:22:41 2021.
