 Gaussian 16, Revision A.03,
 Gaussian 16:  EM64L-G16RevA.03 25-Dec-2016

 -------------
 #p 6-31g* mp2
 -------------

 ------------------------------------------------------
 Input file generated by CHIRIPA (05-May-2021 14:57:24)
 ------------------------------------------------------
 Symbolic Z-matrix:
 Charge =  0 Multiplicity = 1

                         Standard orientation:
 ---------------------------------------------------------------------
 Center     Atomic      Atomic             Coordinates (Angstroms)
 Number     Number       Type             X           Y           Z
 ---------------------------------------------------------------------
      1          6           0        2.545721    2.322026   -0.411605
      2          6           0        3.869367    2.040602   -0.057653
      3          6           0        4.300856    0.718286    0.083221
      4          6           0        3.377916   -0.302680   -0.138367
      5          6           0        2.052563   -0.054453   -0.492081
      6          6           0        1.643135    1.275446   -0.627309
      7          1           0        2.219099    3.352178   -0.518847
      8          1           0        4.572517    2.851377    0.110484
      9          1           0        5.319780    0.472037    0.356302
     10          1           0        1.374698   -0.883888   -0.653181
     11          1           0        0.614566    1.491029   -0.902292
     12          7           0        3.823036   -1.706570    0.007782
     13          8           0        2.990449   -2.588131   -0.192931
     14          8           0        4.996080   -1.898796    0.320278
     15          6           0       -1.675898    1.924579    0.690433
     16          6           0       -1.366202    0.603106    1.028543
     17          6           0       -2.261071   -0.431767    0.740799
     18          6           0       -3.462008   -0.107866    0.111410
     19          6           0       -3.799259    1.198836   -0.237988
     20          6           0       -2.889298    2.217710    0.059359
     21          1           0       -0.974880    2.722279    0.917688
     22          1           0       -0.424600    0.372511    1.518701
     23          1           0       -2.046635   -1.463555    0.991496
     24          1           0       -4.745697    1.397667   -0.725985
     25          1           0       -3.132466    3.243067   -0.204381
     26          7           0       -4.417353   -1.194971   -0.198294
     27          8           0       -5.468793   -0.883411   -0.753308
     28          8           0       -4.096624   -2.338021    0.119838
 ---------------------------------------------------------------------

 SCF Done:  E(RHF) =  -868.335822517     A.U. after   16 cycles
 E2 =    -0.2602859367D+01 EUMP2 =    -0.87093868188397D+03

 The electronic state is 1-A.
 Alpha  occ. eigenvalues --  -20.61296 -20.61290 -20.61213 -20.61197 -15.86351
 Alpha  occ. eigenvalues --  -15.86265 -11.31874 -11.31858 -11.28430 -11.28419
 Alpha  occ. eigenvalues --  -11.28402 -11.28385 -11.28257 -11.28213 -11.27547
 Alpha  occ. eigenvalues --  -11.27477 -11.27447 -11.27381  -1.60369  -1.60279
 Alpha  occ. eigenvalues --   -1.39918  -1.39824  -1.20092  -1.20022  -1.09491
 Alpha  occ. eigenvalues --   -1.09377  -1.05559  -1.05373  -0.96249  -0.96209
 Alpha  occ. eigenvalues --   -0.86959  -0.86765  -0.83059  -0.83014  -0.78139
 Alpha  occ. eigenvalues --   -0.77954  -0.72562  -0.72478  -0.71700  -0.71606
 Alpha  occ. eigenvalues --   -0.71242  -0.71118  -0.65783  -0.65710  -0.65514
 Alpha  occ. eigenvalues --   -0.65298  -0.62926  -0.62638  -0.56028  -0.55974
 Alpha  occ. eigenvalues --   -0.54099  -0.53858  -0.53426  -0.53264  -0.49333
 Alpha  occ. eigenvalues --   -0.49313  -0.49256  -0.49220  -0.45288  -0.45179
 Alpha  occ. eigenvalues --   -0.38266  -0.37967  -0.37333  -0.36699
 Alpha virt. eigenvalues --    0.04362   0.04470   0.10221   0.10798   0.15703
 Alpha virt. eigenvalues --    0.15956   0.20092   0.21525   0.26015   0.26564
 Alpha virt. eigenvalues --    0.27335   0.28679   0.30382   0.30889   0.32055

 Mulliken charges:
               1
     1  C   -0.176185
     2  C   -0.217279
     3  C   -0.171142
     4  C    0.160172
     5  C   -0.179027
     6  C   -0.227599
     7  H    0.223202
     8  H    0.225361
     9  H    0.277827
    10  H    0.277380
    11  H    0.233301
    12  N    0.487751
    13  O   -0.458586
    14  O   -0.458103
    15  C   -0.182809
    16  C   -0.224814
    17  C   -0.173978
    18  C    0.160145
    19  C   -0.170474
    20  C   -0.218302
    21  H    0.224072
    22  H    0.232166
    23  H    0.281567
    24  H    0.278109
    25  H    0.224604
    26  N    0.487756
    27  O   -0.458870
    28  O   -0.456246
 Sum of Mulliken charges =  -0.00000

 Dipole moment (field-independent basis, Debye):
    X=              1.7208    Y=              8.5997    Z=              0.5871  Tot=              8.7898
 Quadrupole moment (field-independent basis, Debye-Ang):
   XX=           -131.7148   YY=           -106.8473   ZZ=           -104.7944
   XY=              2.9398   XZ=             -2.3257   YZ=             -1.3726

 Normal termination of Gaussian 16 at Wed May  5 17:54:57 2021.
