 Gaussian 16, Revision A.03,
 Gaussian 16:  EM64L-G16RevA.03 25-Dec-2016

 -------------
 #p 6-31g* mp2
 -------------

 ------------------------------------------------------
 Input file generated by CHIRIPA (05-May-2021 14:57:21)
 ------------------------------------------------------
 Symbolic Z-matrix:
 Charge =  0 Multiplicity = 1

                         Standard orientation:
 ---------------------------------------------------------------------
 Center     Atomic      Atomic             Coordinates (Angstroms)
 Number     Number       Type             X           Y           Z
 ---------------------------------------------------------------------
      1          6           0       -3.844936    2.384219   -0.455684
      2          6           0       -2.727790    2.215917    0.369047
      3          6           0       -2.308189    0.936020    0.743674
      4          6           0       -3.032315   -0.158339    0.273240
      5          6           0       -4.149390   -0.023229   -0.549669
      6          6           0       -4.550925    1.266080   -0.911606
      7          1           0       -4.163876    3.382130   -0.741774
      8          1           0       -2.177592    3.082460    0.724619
      9          1           0       -1.446892    0.776985    1.381086
     10          1           0       -4.677650   -0.906211   -0.888345
     11          1           0       -5.418889    1.393773   -1.552215
     12          7           0       -2.597664   -1.518291    0.663124
     13          8           0       -3.252679   -2.466239    0.235353
     14          8           0       -1.610201   -1.610523    1.389104
     15          6           0        4.944698    1.540664    0.420984
     16          6           0        5.232378    0.184476    0.235198
     17          6           0        4.220359   -0.714663   -0.113967
     18          6           0        2.925994   -0.221104   -0.269886
     19          6           0        2.607786    1.124368   -0.091731
     20          6           0        3.635629    2.005462    0.257215
     21          1           0        5.737005    2.232126    0.692138
     22          1           0        6.248103   -0.179311    0.361712
     23          1           0        4.415201   -1.769634   -0.263926
     24          1           0        1.585618    1.457315   -0.224910
     25          1           0        3.409291    3.058164    0.400857
     26          7           0        1.846239   -1.163430   -0.639415
     27          8           0        0.714044   -0.703534   -0.770817
     28          8           0        2.152569   -2.344076   -0.790653
 ---------------------------------------------------------------------

 SCF Done:  E(RHF) =  -868.336651504     A.U. after   16 cycles
 E2 =    -0.2601103096D+01 EUMP2 =    -0.87093775459979D+03

 The electronic state is 1-A.
 Alpha  occ. eigenvalues --  -20.60416 -20.60407 -20.59647 -20.59578 -15.85471
 Alpha  occ. eigenvalues --  -15.84680 -11.31065 -11.30342 -11.27714 -11.27615
 Alpha  occ. eigenvalues --  -11.27431 -11.27000 -11.26976 -11.26843 -11.26761
 Alpha  occ. eigenvalues --  -11.26688 -11.26139 -11.26076  -1.59455  -1.58653
 Alpha  occ. eigenvalues --   -1.39018  -1.38210  -1.19251  -1.18565  -1.08598
 Alpha  occ. eigenvalues --   -1.07909  -1.04698  -1.04046  -0.95403  -0.94697
 Alpha  occ. eigenvalues --   -0.86083  -0.85426  -0.82247  -0.81556  -0.77263
 Alpha  occ. eigenvalues --   -0.76527  -0.71734  -0.70962  -0.70754  -0.70368
 Alpha  occ. eigenvalues --   -0.69889  -0.69715  -0.64908  -0.64709  -0.64241
 Alpha  occ. eigenvalues --   -0.64088  -0.62056  -0.61402  -0.55183  -0.54569
 Alpha  occ. eigenvalues --   -0.53000  -0.52802  -0.52320  -0.52171  -0.48473
 Alpha  occ. eigenvalues --   -0.48422  -0.47695  -0.47647  -0.44470  -0.43415
 Alpha  occ. eigenvalues --   -0.37229  -0.36555  -0.36310  -0.35651
 Alpha virt. eigenvalues --    0.05275   0.06084   0.11336   0.11993   0.16745
 Alpha virt. eigenvalues --    0.17466   0.21156   0.22040   0.26642   0.27710
 Alpha virt. eigenvalues --    0.28400   0.29125   0.30951   0.31488   0.32336

 Mulliken charges:
               1
     1  C   -0.171452
     2  C   -0.221048
     3  C   -0.162588
     4  C    0.165212
     5  C   -0.170196
     6  C   -0.218820
     7  H    0.221331
     8  H    0.215219
     9  H    0.272842
    10  H    0.275091
    11  H    0.220667
    12  N    0.492388
    13  O   -0.463713
    14  O   -0.455073
    15  C   -0.171355
    16  C   -0.218150
    17  C   -0.170312
    18  C    0.161356
    19  C   -0.171786
    20  C   -0.218011
    21  H    0.224720
    22  H    0.223646
    23  H    0.277301
    24  H    0.269220
    25  H    0.220043
    26  N    0.491213
    27  O   -0.462483
    28  O   -0.455262
 Sum of Mulliken charges =  -0.00000

 Dipole moment (field-independent basis, Debye):
    X=              2.4399    Y=              7.7299    Z=             -0.0842  Tot=              8.1063
 Quadrupole moment (field-independent basis, Debye-Ang):
   XX=            -69.5321   YY=           -105.4825   ZZ=           -106.5129
   XY=             -6.4402   XZ=              9.0035   YZ=              1.5872

 Normal termination of Gaussian 16 at Thu May  6 01:43:37 2021.
