 Gaussian 16, Revision A.03,
 Gaussian 16:  EM64L-G16RevA.03 25-Dec-2016

 -------------
 #p 6-31g* mp2
 -------------

 ------------------------------------------------------
 Input file generated by CHIRIPA (05-May-2021 14:55:21)
 ------------------------------------------------------
 Symbolic Z-matrix:
 Charge =  0 Multiplicity = 1

                         Standard orientation:
 ---------------------------------------------------------------------
 Center     Atomic      Atomic             Coordinates (Angstroms)
 Number     Number       Type             X           Y           Z
 ---------------------------------------------------------------------
      1          6           0        1.130140   -2.969648    0.021964
      2          6           0        1.678599   -2.405596   -1.134565
      3          6           0        2.188338   -1.103907   -1.116702
      4          6           0        2.133265   -0.391543    0.080292
      5          6           0        1.593124   -0.925838    1.249081
      6          6           0        1.089225   -2.229274    1.208005
      7          1           0        0.736430   -3.981510   -0.000929
      8          1           0        1.711697   -2.978242   -2.057076
      9          1           0        2.618498   -0.642809   -1.997479
     10          1           0        1.574076   -0.330350    2.153763
     11          1           0        0.663868   -2.664764    2.107707
     12          7           0        2.669812    0.987422    0.111490
     13          8           0        2.609519    1.594208    1.178642
     14          8           0        3.140491    1.435357   -0.931799
     15          6           0       -3.264485    0.436352    0.099145
     16          6           0       -3.297360   -1.034523   -0.317307
     17          6           0       -4.598257   -1.732583    0.080406
     18          1           0       -3.401953    0.506029    1.186892
     19          1           0       -4.116469    0.958686   -0.357676
     20          1           0       -2.444783   -1.553626    0.139047
     21          1           0       -3.159608   -1.100717   -1.404163
     22          1           0       -5.457721   -1.240672   -0.386441
     23          1           0       -4.738835   -1.696154    1.165538
     24          1           0       -4.600395   -2.783022   -0.226892
     25          6           0       -1.970295    1.147810   -0.291529
     26          6           0       -1.937418    2.618684    0.124922
     27          6           0       -0.636522    3.316744   -0.272791
     28          1           0       -1.118310    0.625477    0.165292
     29          1           0       -1.832827    1.078133   -1.379276
     30          1           0       -2.075172    2.684879    1.211779
     31          1           0       -2.789996    3.137789   -0.331432
     32          1           0       -0.495943    3.280317   -1.357923
     33          1           0        0.222942    2.824834    0.194057
     34          1           0       -0.634385    4.367184    0.034507
 ---------------------------------------------------------------------

 SCF Done:  E(RHF) =  -669.536244131     A.U. after   15 cycles
 E2 =    -0.2093374153D+01 EUMP2 =    -0.67162961828458D+03

 The electronic state is 1-A.
 Alpha  occ. eigenvalues --  -20.60947 -20.60933 -15.85960 -11.31315 -11.27894
 Alpha  occ. eigenvalues --  -11.27861 -11.27621 -11.26908 -11.26868 -11.21747
 Alpha  occ. eigenvalues --  -11.21364 -11.21299 -11.21182 -11.21122 -11.20226
 Alpha  occ. eigenvalues --   -1.60001  -1.39556  -1.19485  -1.08881  -1.08301
 Alpha  occ. eigenvalues --   -1.04883  -1.03334  -0.95760  -0.95720  -0.86772
 Alpha  occ. eigenvalues --   -0.86280  -0.82553  -0.79425  -0.78089  -0.77605
 Alpha  occ. eigenvalues --   -0.72187  -0.71330  -0.70586  -0.65141  -0.64942
 Alpha  occ. eigenvalues --   -0.64881  -0.62229  -0.60728  -0.59195  -0.57369
 Alpha  occ. eigenvalues --   -0.55381  -0.55053  -0.53234  -0.52972  -0.52440
 Alpha  occ. eigenvalues --   -0.52159  -0.49713  -0.48953  -0.48943  -0.47719
 Alpha  occ. eigenvalues --   -0.46493  -0.45620  -0.45579  -0.44836  -0.43590
 Alpha  occ. eigenvalues --   -0.37437  -0.36463
 Alpha virt. eigenvalues --    0.04897   0.11114   0.16377   0.21256   0.22875
 Alpha virt. eigenvalues --    0.24426   0.26428   0.27241   0.27469   0.28059
 Alpha virt. eigenvalues --    0.28365   0.30720   0.31575   0.31796   0.32197

 Mulliken charges:
               1
     1  C   -0.170023
     2  C   -0.217763
     3  C   -0.170230
     4  C    0.160596
     5  C   -0.172809
     6  C   -0.218383
     7  H    0.226530
     8  H    0.224117
     9  H    0.276101
    10  H    0.276042
    11  H    0.224273
    12  N    0.487190
    13  O   -0.459292
    14  O   -0.457169
    15  C   -0.297534
    16  C   -0.299758
    17  C   -0.475384
    18  H    0.148198
    19  H    0.150102
    20  H    0.148312
    21  H    0.151120
    22  H    0.156784
    23  H    0.154346
    24  H    0.157035
    25  C   -0.301029
    26  C   -0.299513
    27  C   -0.482169
    28  H    0.148558
    29  H    0.148543
    30  H    0.150509
    31  H    0.149602
    32  H    0.153950
    33  H    0.168029
    34  H    0.161118
 Sum of Mulliken charges =  -0.00000

 Dipole moment (field-independent basis, Debye):
    X=             -1.6649    Y=             -4.8482    Z=             -0.1330  Tot=              5.1278
 Quadrupole moment (field-independent basis, Debye-Ang):
   XX=           -104.1902   YY=            -91.7392   ZZ=            -89.3443
   XY=            -10.4550   XZ=             -1.2360   YZ=              0.0092

 Normal termination of Gaussian 16 at Thu May  6 09:19:03 2021.
