 Gaussian 16, Revision A.03,
 Gaussian 16:  EM64L-G16RevA.03 25-Dec-2016

 -------------
 #p 6-31g* mp2
 -------------

 ------------------------------------------------------
 Input file generated by CHIRIPA (05-May-2021 14:51:13)
 ------------------------------------------------------
 Symbolic Z-matrix:
 Charge =  0 Multiplicity = 1

                         Standard orientation:
 ---------------------------------------------------------------------
 Center     Atomic      Atomic             Coordinates (Angstroms)
 Number     Number       Type             X           Y           Z
 ---------------------------------------------------------------------
      1          6           0       -2.578915   -1.055927   -0.522242
      2          6           0       -1.322942   -1.926297   -0.467718
      3          6           0       -1.448672   -3.198768   -1.306053
      4          1           0       -3.439540   -1.642969   -0.173458
      5          1           0       -2.786073   -0.788399   -1.567665
      6          1           0       -1.117427   -2.190957    0.577430
      7          1           0       -0.465174   -1.337055   -0.816491
      8          1           0       -1.630385   -2.951356   -2.356943
      9          1           0       -2.286344   -3.810110   -0.955102
     10          1           0       -0.539722   -3.806082   -1.252765
     11          6           0       -2.468559    0.219788    0.310887
     12          6           0       -3.724532    1.090158    0.256363
     13          6           0       -3.598802    2.362629    1.094698
     14          1           0       -2.261401   -0.047740    1.356310
     15          1           0       -1.607934    0.806830   -0.037897
     16          1           0       -4.582300    0.500916    0.605136
     17          1           0       -3.930046    1.354818   -0.788785
     18          1           0       -2.761130    2.973971    0.743747
     19          1           0       -3.417089    2.115217    2.145588
     20          1           0       -4.507752    2.969943    1.041410
     21          6           0        2.318713   -0.138138    0.587374
     22          6           0        3.082223   -1.444242    0.365723
     23          6           0        2.660950   -2.547392    1.337001
     24          1           0        2.476810    0.200814    1.620361
     25          1           0        1.241673   -0.328794    0.482347
     26          1           0        4.157587   -1.250896    0.469770
     27          1           0        2.922444   -1.780022   -0.666914
     28          1           0        1.594288   -2.769117    1.228967
     29          1           0        2.836447   -2.236984    2.372109
     30          1           0        3.219229   -3.472135    1.160833
     31          6           0        2.728760    0.974276   -0.376019
     32          6           0        1.965251    2.280381   -0.154368
     33          6           0        2.386524    3.383531   -1.125646
     34          1           0        3.805801    1.164932   -0.270992
     35          1           0        2.570663    0.635325   -1.409006
     36          1           0        2.125029    2.616161    0.878269
     37          1           0        0.889887    2.087035   -0.258415
     38          1           0        2.211027    3.073123   -2.160754
     39          1           0        3.453186    3.605256   -1.017612
     40          1           0        1.828245    4.308273   -0.949478
 ---------------------------------------------------------------------

 SCF Done:  E(RHF) =  -470.733016936     A.U. after   11 cycles
 E2 =    -0.1584418082D+01 EUMP2 =    -0.47231743501755D+03

 The electronic state is 1-A.
 Alpha  occ. eigenvalues --  -11.21701 -11.21650 -11.21611 -11.21553 -11.21483
 Alpha  occ. eigenvalues --  -11.21423 -11.21365 -11.21249 -11.21149 -11.21096
 Alpha  occ. eigenvalues --  -11.21084 -11.21017  -1.08523  -1.08384  -1.03612
 Alpha  occ. eigenvalues --   -1.03496  -0.96044  -0.95950  -0.87064  -0.86965
 Alpha  occ. eigenvalues --   -0.79720  -0.79535  -0.78454  -0.78083  -0.65258
 Alpha  occ. eigenvalues --   -0.64931  -0.61033  -0.60902  -0.59429  -0.59288
 Alpha  occ. eigenvalues --   -0.57664  -0.57549  -0.55348  -0.55227  -0.52741
 Alpha  occ. eigenvalues --   -0.52651  -0.52486  -0.52361  -0.50052  -0.49841
 Alpha  occ. eigenvalues --   -0.48134  -0.47799  -0.46719  -0.46578  -0.46391
 Alpha  occ. eigenvalues --   -0.45769  -0.45724  -0.45060  -0.43850  -0.43749
 Alpha virt. eigenvalues --    0.19914   0.21842   0.23482   0.24777   0.25258
 Alpha virt. eigenvalues --    0.26091   0.26902   0.27087   0.28580   0.29804
 Alpha virt. eigenvalues --    0.30951   0.31260   0.31638   0.31814   0.32109

 Mulliken charges:
               1
     1  C   -0.298011
     2  C   -0.305976
     3  C   -0.476172
     4  H    0.150186
     5  H    0.149563
     6  H    0.153446
     7  H    0.156380
     8  H    0.155362
     9  H    0.155680
    10  H    0.161112
    11  C   -0.303861
    12  C   -0.299564
    13  C   -0.475819
    14  H    0.150305
    15  H    0.153765
    16  H    0.152276
    17  H    0.151947
    18  H    0.155392
    19  H    0.155472
    20  H    0.160390
    21  C   -0.306880
    22  C   -0.298938
    23  C   -0.479510
    24  H    0.149250
    25  H    0.159103
    26  H    0.151721
    27  H    0.151227
    28  H    0.159176
    29  H    0.154906
    30  H    0.159752
    31  C   -0.298123
    32  C   -0.303530
    33  C   -0.475559
    34  H    0.149643
    35  H    0.148653
    36  H    0.152508
    37  H    0.154239
    38  H    0.154871
    39  H    0.155486
    40  H    0.160130
 Sum of Mulliken charges =  -0.00000

 Dipole moment (field-independent basis, Debye):
    X=             -0.0600    Y=             -0.0118    Z=              0.0071  Tot=              0.0616
 Quadrupole moment (field-independent basis, Debye-Ang):
   XX=            -84.2110   YY=            -86.1733   ZZ=            -84.3940
   XY=              0.3558   XZ=              0.3104   YZ=             -0.1358

 Normal termination of Gaussian 16 at Wed May  5 16:52:06 2021.
