 Gaussian 16, Revision A.03,
 Gaussian 16:  EM64L-G16RevA.03 25-Dec-2016

 -------------
 #p 6-31g* mp2
 -------------

 ------------------------------------------------------
 Input file generated by CHIRIPA (05-May-2021 14:57:24)
 ------------------------------------------------------
 Symbolic Z-matrix:
 Charge =  0 Multiplicity = 1

                         Standard orientation:
 ---------------------------------------------------------------------
 Center     Atomic      Atomic             Coordinates (Angstroms)
 Number     Number       Type             X           Y           Z
 ---------------------------------------------------------------------
      1          6           0        2.978160    2.523686   -0.707098
      2          6           0        4.094556    1.792990   -1.126939
      3          6           0        4.212427    0.435118   -0.815751
      4          6           0        3.190616   -0.162889   -0.079830
      5          6           0        2.066071    0.538213    0.352772
      6          6           0        1.969260    1.895074    0.030118
      7          1           0        2.894775    3.578121   -0.953290
      8          1           0        4.879618    2.278562   -1.699602
      9          1           0        5.065891   -0.154304   -1.128157
     10          1           0        1.299678    0.026596    0.922252
     11          1           0        1.101120    2.460053    0.357496
     12          7           0        3.304253   -1.599872    0.255681
     13          8           0        2.390364   -2.103437    0.905192
     14          8           0        4.305060   -2.195405   -0.137211
     15          6           0       -1.909137    0.464014    2.252196
     16          6           0       -2.965327    1.283104    1.839793
     17          6           0       -3.671993    0.994625    0.668490
     18          6           0       -3.293965   -0.125951   -0.069545
     19          6           0       -2.246296   -0.961245    0.315113
     20          6           0       -1.553620   -0.653576    1.489884
     21          1           0       -1.365617    0.695566    3.163440
     22          1           0       -3.243630    2.151695    2.429828
     23          1           0       -4.493753    1.611782    0.326077
     24          1           0       -1.992081   -1.820187   -0.293993
     25          1           0       -0.733798   -1.291469    1.807736
     26          7           0       -4.034675   -0.441508   -1.311387
     27          8           0       -3.682038   -1.434574   -1.943926
     28          8           0       -4.953857    0.310197   -1.628689
 ---------------------------------------------------------------------

 SCF Done:  E(RHF) =  -868.338767574     A.U. after   16 cycles
 E2 =    -0.2600475390D+01 EUMP2 =    -0.87093924296419D+03

 The electronic state is 1-A.
 Alpha  occ. eigenvalues --  -20.61383 -20.61335 -20.60957 -20.60942 -15.86404
 Alpha  occ. eigenvalues --  -15.86007 -11.31616 -11.31471 -11.28178 -11.28144
 Alpha  occ. eigenvalues --  -11.28082 -11.27990 -11.27871 -11.27849 -11.27155
 Alpha  occ. eigenvalues --  -11.27129 -11.27124 -11.26980  -1.60422  -1.60026
 Alpha  occ. eigenvalues --   -1.39987  -1.39576  -1.19775  -1.19665  -1.09193
 Alpha  occ. eigenvalues --   -1.09052  -1.05169  -1.05046  -0.96057  -0.95858
 Alpha  occ. eigenvalues --   -0.86594  -0.86431  -0.82899  -0.82665  -0.77995
 Alpha  occ. eigenvalues --   -0.77671  -0.72633  -0.72221  -0.71732  -0.71353
 Alpha  occ. eigenvalues --   -0.70901  -0.70756  -0.65432  -0.65304  -0.65257
 Alpha  occ. eigenvalues --   -0.64943  -0.62612  -0.62263  -0.55675  -0.55565
 Alpha  occ. eigenvalues --   -0.53525  -0.53458  -0.53251  -0.53012  -0.49399
 Alpha  occ. eigenvalues --   -0.49351  -0.48988  -0.48969  -0.45424  -0.44958
 Alpha  occ. eigenvalues --   -0.37741  -0.37695  -0.36821  -0.36595
 Alpha virt. eigenvalues --    0.04541   0.04834   0.10757   0.10922   0.16081
 Alpha virt. eigenvalues --    0.16248   0.20288   0.21746   0.25912   0.27208
 Alpha virt. eigenvalues --    0.28052   0.28795   0.30133   0.31183   0.31835

 Mulliken charges:
               1
     1  C   -0.169768
     2  C   -0.218517
     3  C   -0.169508
     4  C    0.158161
     5  C   -0.172314
     6  C   -0.221258
     7  H    0.227157
     8  H    0.225254
     9  H    0.276770
    10  H    0.272570
    11  H    0.223982
    12  N    0.489531
    13  O   -0.470460
    14  O   -0.455720
    15  C   -0.177407
    16  C   -0.220190
    17  C   -0.171218
    18  C    0.158297
    19  C   -0.171090
    20  C   -0.234620
    21  H    0.226796
    22  H    0.223246
    23  H    0.276125
    24  H    0.282440
    25  H    0.241968
    26  N    0.487872
    27  O   -0.457309
    28  O   -0.460791
 Sum of Mulliken charges =  -0.00000

 Dipole moment (field-independent basis, Debye):
    X=              2.2433    Y=              6.1183    Z=              3.0602  Tot=              7.1994
 Quadrupole moment (field-independent basis, Debye-Ang):
   XX=           -118.9503   YY=           -104.1830   ZZ=           -105.3085
   XY=              9.8023   XZ=            -21.5942   YZ=             -0.1816

 Normal termination of Gaussian 16 at Thu May  6 14:40:24 2021.
