 Gaussian 16, Revision A.03,
 Gaussian 16:  EM64L-G16RevA.03 25-Dec-2016

 -------------
 #p 6-31g* mp2
 -------------

 ------------------------------------------------------
 Input file generated by CHIRIPA (05-May-2021 14:55:24)
 ------------------------------------------------------
 Symbolic Z-matrix:
 Charge =  0 Multiplicity = 1

                         Standard orientation:
 ---------------------------------------------------------------------
 Center     Atomic      Atomic             Coordinates (Angstroms)
 Number     Number       Type             X           Y           Z
 ---------------------------------------------------------------------
      1          6           0       -2.167707    2.535125    0.172458
      2          6           0       -2.974183    2.083081   -0.877196
      3          6           0       -3.456555    0.770924   -0.887636
      4          6           0       -3.111309   -0.066011    0.172380
      5          6           0       -2.309778    0.354850    1.232434
      6          6           0       -1.838658    1.671089    1.222072
      7          1           0       -1.797359    3.556025    0.172488
      8          1           0       -3.231337    2.751889   -1.693660
      9          1           0       -4.082651    0.394918   -1.687662
     10          1           0       -2.070399   -0.335168    2.032429
     11          1           0       -1.212521    2.019422    2.038566
     12          7           0       -3.616018   -1.457294    0.172339
     13          8           0       -3.297533   -2.174949    1.117947
     14          8           0       -4.320537   -1.803782   -0.773301
     15          6           0        4.582028   -0.492765   -0.287311
     16          6           0        5.643262    0.348825    0.422263
     17          6           0        7.050573   -0.231688    0.279878
     18          1           0        4.601748   -1.513796    0.117723
     19          1           0        4.840171   -0.573927   -1.352285
     20          1           0        5.382454    0.429532    1.485316
     21          1           0        5.620884    1.368022    0.015627
     22          1           0        7.335573   -0.296651   -0.775184
     23          1           0        7.095788   -1.240473    0.702855
     24          1           0        7.793459    0.385610    0.794583
     25          6           0        3.169976    0.074743   -0.154000
     26          6           0        2.108742   -0.766847   -0.863574
     27          6           0        0.701431   -0.186332   -0.721189
     28          1           0        2.911833    0.155905    0.910974
     29          1           0        3.150256    1.095774   -0.559034
     30          1           0        2.131120   -1.786043   -0.456938
     31          1           0        2.369550   -0.847552   -1.926627
     32          1           0        0.656216    0.822452   -1.144167
     33          1           0        0.416431   -0.121370    0.333873
     34          1           0       -0.041455   -0.803632   -1.235894
 ---------------------------------------------------------------------

 SCF Done:  E(RHF) =  -669.534159846     A.U. after   15 cycles
 E2 =    -0.2093105349D+01 EUMP2 =    -0.67162726519489D+03

 The electronic state is 1-A.
 Alpha  occ. eigenvalues --  -20.60752 -20.60747 -15.85806 -11.31144 -11.27729
 Alpha  occ. eigenvalues --  -11.27713 -11.27472 -11.26747 -11.26723 -11.21776
 Alpha  occ. eigenvalues --  -11.21646 -11.21576 -11.21505 -11.21207 -11.21074
 Alpha  occ. eigenvalues --   -1.59829  -1.39383  -1.19335  -1.08731  -1.08572
 Alpha  occ. eigenvalues --   -1.04751  -1.03640  -0.96100  -0.95568  -0.87119
 Alpha  occ. eigenvalues --   -0.86141  -0.82408  -0.79715  -0.78397  -0.77453
 Alpha  occ. eigenvalues --   -0.72026  -0.71153  -0.70453  -0.65208  -0.64992
 Alpha  occ. eigenvalues --   -0.64752  -0.62098  -0.61048  -0.59470  -0.57724
 Alpha  occ. eigenvalues --   -0.55424  -0.55246  -0.53509  -0.52840  -0.52678
 Alpha  occ. eigenvalues --   -0.52193  -0.50048  -0.48783  -0.48781  -0.48014
 Alpha  occ. eigenvalues --   -0.46756  -0.45928  -0.45869  -0.44790  -0.43902
 Alpha  occ. eigenvalues --   -0.37284  -0.36231
 Alpha virt. eigenvalues --    0.05061   0.11285   0.16496   0.21292   0.22729
 Alpha virt. eigenvalues --    0.24143   0.26401   0.27007   0.27463   0.27978
 Alpha virt. eigenvalues --    0.28326   0.30903   0.31344   0.31684   0.31837

 Mulliken charges:
               1
     1  C   -0.170309
     2  C   -0.218031
     3  C   -0.171648
     4  C    0.162023
     5  C   -0.171004
     6  C   -0.214720
     7  H    0.225344
     8  H    0.223173
     9  H    0.275397
    10  H    0.275026
    11  H    0.223155
    12  N    0.487538
    13  O   -0.460715
    14  O   -0.460750
    15  C   -0.298280
    16  C   -0.299489
    17  C   -0.475769
    18  H    0.151236
    19  H    0.150196
    20  H    0.151013
    21  H    0.150705
    22  H    0.155584
    23  H    0.156093
    24  H    0.160086
    25  C   -0.297429
    26  C   -0.301015
    27  C   -0.472245
    28  H    0.146378
    29  H    0.146868
    30  H    0.154650
    31  H    0.151806
    32  H    0.151095
    33  H    0.152080
    34  H    0.161959
 Sum of Mulliken charges =  -0.00000

 Dipole moment (field-independent basis, Debye):
    X=              1.7431    Y=              4.8943    Z=             -0.0050  Tot=              5.1954
 Quadrupole moment (field-independent basis, Debye-Ang):
   XX=           -106.6733   YY=            -95.6713   ZZ=            -90.5129
   XY=            -15.7250   XZ=              2.5606   YZ=             -0.4752

 Normal termination of Gaussian 16 at Thu May  6 12:40:36 2021.
