 Gaussian 16, Revision A.03,
 Gaussian 16:  EM64L-G16RevA.03 25-Dec-2016

 -------------
 #p 6-31g* mp2
 -------------

 ------------------------------------------------------
 Input file generated by CHIRIPA (05-May-2021 14:51:09)
 ------------------------------------------------------
 Symbolic Z-matrix:
 Charge =  0 Multiplicity = 1

                         Standard orientation:
 ---------------------------------------------------------------------
 Center     Atomic      Atomic             Coordinates (Angstroms)
 Number     Number       Type             X           Y           Z
 ---------------------------------------------------------------------
      1          6           0        2.049385    1.028977    0.189597
      2          6           0        2.828249    2.344658    0.207986
      3          6           0        1.986312    3.523247    0.697743
      4          1           0        1.165691    1.142331   -0.453194
      5          1           0        1.675232    0.818274    1.201036
      6          1           0        3.201997    2.552116   -0.802900
      7          1           0        3.710296    2.228099    0.850655
      8          1           0        1.625112    3.342163    1.715262
      9          1           0        1.113925    3.668021    0.052311
     10          1           0        2.562663    4.453652    0.702889
     11          6           0        2.877625   -0.158576   -0.297706
     12          6           0        2.098761   -1.474258   -0.316095
     13          6           0        2.940699   -2.652847   -0.805852
     14          1           0        3.251778    0.052127   -1.309145
     15          1           0        3.761320   -0.271931    0.345085
     16          1           0        1.216714   -1.357698   -0.958765
     17          1           0        1.725013   -1.681716    0.694790
     18          1           0        3.813086   -2.797621   -0.160421
     19          1           0        3.301898   -2.471762   -1.823371
     20          1           0        2.364348   -3.583252   -0.810998
     21          6           0       -2.134410   -1.092499   -0.153520
     22          6           0       -1.850136   -2.026449    1.023302
     23          6           0       -1.191682   -3.337266    0.592039
     24          1           0       -2.781367   -1.609283   -0.875549
     25          1           0       -1.192659   -0.876092   -0.676653
     26          1           0       -2.791940   -2.239921    1.544888
     27          1           0       -1.203938   -1.507313    1.742705
     28          1           0       -0.238144   -3.142644    0.090552
     29          1           0       -1.835170   -3.879416   -0.108388
     30          1           0       -0.997358   -3.989850    1.448912
     31          6           0       -2.792600    0.222098    0.261629
     32          6           0       -3.076874    1.156049   -0.915193
     33          6           0       -3.735328    2.466866   -0.483930
     34          1           0       -3.734352    0.005692    0.784763
     35          1           0       -2.145644    0.738883    0.983658
     36          1           0       -3.723072    0.636911   -1.634596
     37          1           0       -2.135070    1.369521   -1.436779
     38          1           0       -3.091841    3.009016    0.216497
     39          1           0       -4.688866    2.272244    0.017557
     40          1           0       -3.929652    3.119450   -1.340803
 ---------------------------------------------------------------------

 SCF Done:  E(RHF) =  -470.732464389     A.U. after   11 cycles
 E2 =    -0.1584879837D+01 EUMP2 =    -0.47231734422564D+03

 The electronic state is 1-A.
 Alpha  occ. eigenvalues --  -11.21685 -11.21679 -11.21591 -11.21530 -11.21504
 Alpha  occ. eigenvalues --  -11.21440 -11.21343 -11.21277 -11.21145 -11.21138
 Alpha  occ. eigenvalues --  -11.21054 -11.20919  -1.08542  -1.08363  -1.03649
 Alpha  occ. eigenvalues --   -1.03450  -0.96080  -0.95906  -0.87077  -0.86939
 Alpha  occ. eigenvalues --   -0.79754  -0.79508  -0.78416  -0.78131  -0.65194
 Alpha  occ. eigenvalues --   -0.64979  -0.61020  -0.60953  -0.59442  -0.59255
 Alpha  occ. eigenvalues --   -0.57784  -0.57462  -0.55346  -0.55166  -0.52756
 Alpha  occ. eigenvalues --   -0.52623  -0.52512  -0.52314  -0.50024  -0.49837
 Alpha  occ. eigenvalues --   -0.48146  -0.47764  -0.46813  -0.46545  -0.46194
 Alpha  occ. eigenvalues --   -0.45856  -0.45650  -0.45177  -0.43870  -0.43724
 Alpha virt. eigenvalues --    0.20103   0.22367   0.23654   0.24306   0.25084
 Alpha virt. eigenvalues --    0.26195   0.26219   0.28195   0.28965   0.29951
 Alpha virt. eigenvalues --    0.30681   0.30926   0.31227   0.31817   0.32083

 Mulliken charges:
               1
     1  C   -0.300148
     2  C   -0.299722
     3  C   -0.475868
     4  H    0.150232
     5  H    0.149370
     6  H    0.152279
     7  H    0.152400
     8  H    0.155132
     9  H    0.155159
    10  H    0.160735
    11  C   -0.297295
    12  C   -0.308688
    13  C   -0.478205
    14  H    0.149747
    15  H    0.150106
    16  H    0.156590
    17  H    0.154907
    18  H    0.155877
    19  H    0.155709
    20  H    0.162527
    21  C   -0.304310
    22  C   -0.298831
    23  C   -0.485228
    24  H    0.149032
    25  H    0.155289
    26  H    0.151620
    27  H    0.151459
    28  H    0.167384
    29  H    0.154122
    30  H    0.158976
    31  C   -0.298155
    32  C   -0.299843
    33  C   -0.475840
    34  H    0.149298
    35  H    0.150519
    36  H    0.151896
    37  H    0.150930
    38  H    0.155569
    39  H    0.155270
    40  H    0.159998
 Sum of Mulliken charges =  -0.00000

 Dipole moment (field-independent basis, Debye):
    X=              0.0736    Y=              0.0116    Z=             -0.0077  Tot=              0.0749
 Quadrupole moment (field-independent basis, Debye-Ang):
   XX=            -84.2923   YY=            -86.5253   ZZ=            -83.9934
   XY=              1.1564   XZ=              0.6336   YZ=             -0.5322

 Normal termination of Gaussian 16 at Wed May  5 15:08:54 2021.
