 Gaussian 16, Revision A.03,
 Gaussian 16:  EM64L-G16RevA.03 25-Dec-2016

 -------------
 #p 6-31g* mp2
 -------------

 ------------------------------------------------------
 Input file generated by CHIRIPA (05-May-2021 14:53:16)
 ------------------------------------------------------
 Symbolic Z-matrix:
 Charge =  0 Multiplicity = 1

                         Standard orientation:
 ---------------------------------------------------------------------
 Center     Atomic      Atomic             Coordinates (Angstroms)
 Number     Number       Type             X           Y           Z
 ---------------------------------------------------------------------
      1          6           0        3.135000   -0.608354   -0.079194
      2          6           0        2.782247   -2.088806    0.068486
      3          6           0        1.289019   -2.361829   -0.114611
      4          1           0        2.561620   -0.026312    0.655249
      5          1           0        2.816573   -0.259932   -1.071465
      6          1           0        3.102494   -2.434680    1.059662
      7          1           0        3.356677   -2.667412   -0.666266
      8          1           0        0.958311   -2.043871   -1.108662
      9          1           0        0.702684   -1.809817    0.627073
     10          1           0        1.059111   -3.426241   -0.004940
     11          6           0        4.624215   -0.319505    0.101178
     12          6           0        4.976969    1.160948   -0.046503
     13          6           0        6.470196    1.433971    0.136594
     14          1           0        4.942643   -0.667926    1.093448
     15          1           0        5.197596   -0.901546   -0.633266
     16          1           0        4.402539    1.739554    0.688249
     17          1           0        4.656722    1.506822   -1.037678
     18          1           0        7.056532    0.881958   -0.605089
     19          1           0        6.800904    1.116013    1.130645
     20          1           0        6.700105    2.498383    0.026923
     21          6           0       -2.248640    2.760280   -0.074208
     22          6           0       -3.607033    2.471469    0.092758
     23          6           0       -4.051805    1.146594    0.130591
     24          6           0       -3.106574    0.130631   -0.002243
     25          6           0       -1.746482    0.386251   -0.169876
     26          6           0       -1.324330    1.718586   -0.204762
     27          1           0       -1.911916    3.792374   -0.102453
     28          1           0       -4.327114    3.278437    0.194402
     29          1           0       -5.097525    0.894655    0.258719
     30          1           0       -1.052371   -0.439520   -0.268512
     31          1           0       -0.268765    1.939910   -0.334548
     32          7           0       -3.565461   -1.275904    0.036249
     33          8           0       -2.712702   -2.152948   -0.083049
     34          8           0       -4.769209   -1.474670    0.184988
 ---------------------------------------------------------------------

 SCF Done:  E(RHF) =  -669.535571436     A.U. after   15 cycles
 E2 =    -0.2091654999D+01 EUMP2 =    -0.67162722643511D+03

 The electronic state is 1-A.
 Alpha  occ. eigenvalues --  -20.60689 -20.60682 -15.85737 -11.31085 -11.27676
 Alpha  occ. eigenvalues --  -11.27588 -11.27420 -11.26694 -11.26661 -11.22032
 Alpha  occ. eigenvalues --  -11.21885 -11.21809 -11.21747 -11.21414 -11.21209
 Alpha  occ. eigenvalues --   -1.59763  -1.39315  -1.19267  -1.08810  -1.08669
 Alpha  occ. eigenvalues --   -1.04668  -1.03847  -0.96293  -0.95501  -0.87308
 Alpha  occ. eigenvalues --   -0.86065  -0.82332  -0.79921  -0.78661  -0.77366
 Alpha  occ. eigenvalues --   -0.71955  -0.71086  -0.70385  -0.65436  -0.64919
 Alpha  occ. eigenvalues --   -0.64681  -0.62045  -0.61231  -0.59646  -0.57910
 Alpha  occ. eigenvalues --   -0.55586  -0.55181  -0.53022  -0.53000  -0.52916
 Alpha  occ. eigenvalues --   -0.52457  -0.50237  -0.48720  -0.48711  -0.48206
 Alpha  occ. eigenvalues --   -0.46951  -0.46177  -0.46110  -0.44722  -0.44096
 Alpha  occ. eigenvalues --   -0.37260  -0.36272
 Alpha virt. eigenvalues --    0.05130   0.11347   0.16635   0.20620   0.22649
 Alpha virt. eigenvalues --    0.23914   0.25900   0.26266   0.26630   0.28273
 Alpha virt. eigenvalues --    0.29773   0.30829   0.30986   0.31596   0.31888

 Mulliken charges:
               1
     1  C   -0.299745
     2  C   -0.300490
     3  C   -0.479735
     4  H    0.144382
     5  H    0.146253
     6  H    0.154254
     7  H    0.154161
     8  H    0.153708
     9  H    0.154070
    10  H    0.172335
    11  C   -0.297896
    12  C   -0.299828
    13  C   -0.475812
    14  H    0.151605
    15  H    0.151893
    16  H    0.149512
    17  H    0.150467
    18  H    0.156563
    19  H    0.156418
    20  H    0.160204
    21  C   -0.170484
    22  C   -0.219133
    23  C   -0.170169
    24  C    0.156451
    25  C   -0.180209
    26  C   -0.223761
    27  H    0.225214
    28  H    0.223005
    29  H    0.275236
    30  H    0.291285
    31  H    0.224900
    32  N    0.486966
    33  O   -0.460750
    34  O   -0.460869
 Sum of Mulliken charges =  -0.00000

 Dipole moment (field-independent basis, Debye):
    X=              1.7395    Y=              4.7770    Z=             -0.1258  Tot=              5.0854
 Quadrupole moment (field-independent basis, Debye-Ang):
   XX=           -101.2801   YY=            -93.1151   ZZ=            -94.6160
   XY=            -17.6522   XZ=             -0.4697   YZ=              0.2783

 Normal termination of Gaussian 16 at Thu May  6 09:03:51 2021.
