 Gaussian 16, Revision A.03,
 Gaussian 16:  EM64L-G16RevA.03 25-Dec-2016

 -------------
 #p 6-31g* mp2
 -------------

 ------------------------------------------------------
 Input file generated by CHIRIPA (05-May-2021 14:51:13)
 ------------------------------------------------------
 Symbolic Z-matrix:
 Charge =  0 Multiplicity = 1

                         Standard orientation:
 ---------------------------------------------------------------------
 Center     Atomic      Atomic             Coordinates (Angstroms)
 Number     Number       Type             X           Y           Z
 ---------------------------------------------------------------------
      1          6           0       -3.082753   -0.472869   -0.365563
      2          6           0       -4.214680   -0.049837    0.571331
      3          6           0       -5.253408    0.835087   -0.118413
      4          1           0       -2.593072    0.424765   -0.767322
      5          1           0       -3.508658   -1.008002   -1.225583
      6          1           0       -3.786644    0.483131    1.430020
      7          1           0       -4.701600   -0.948584    0.971055
      8          1           0       -5.707607    0.308488   -0.963989
      9          1           0       -4.787453    1.748338   -0.502417
     10          1           0       -6.053457    1.125840    0.569515
     11          6           0       -2.036448   -1.357918    0.309464
     12          6           0       -0.904521   -1.780950   -0.627430
     13          6           0        0.134208   -2.665874    0.062314
     14          1           0       -1.610543   -0.822785    1.169483
     15          1           0       -2.526129   -2.255552    0.711223
     16          1           0       -0.417601   -0.882203   -1.027154
     17          1           0       -1.332557   -2.313918   -1.486119
     18          1           0       -0.331748   -3.579125    0.446317
     19          1           0        0.588406   -2.139275    0.907890
     20          1           0        0.934257   -2.956627   -0.625614
     21          6           0        3.014075    0.413939   -0.326109
     22          6           0        3.583162   -0.654029    0.608541
     23          6           0        4.490399   -1.649875   -0.114649
     24          1           0        2.452986   -0.075912   -1.133679
     25          1           0        3.843855    0.952707   -0.804217
     26          1           0        2.752559   -1.189700    1.085794
     27          1           0        4.142801   -0.161569    1.414087
     28          1           0        5.338062   -1.133567   -0.576703
     29          1           0        3.939921   -2.167539   -0.906861
     30          1           0        4.886239   -2.404455    0.572214
     31          6           0        2.105127    1.416848    0.382209
     32          6           0        1.536038    2.484815   -0.552442
     33          6           0        0.628802    3.480662    0.170748
     34          1           0        1.275345    0.878080    0.860317
     35          1           0        2.666215    1.906700    1.189779
     36          1           0        0.976400    1.992357   -1.357988
     37          1           0        2.366642    3.020487   -1.029694
     38          1           0        1.179279    3.998326    0.962960
     39          1           0       -0.218862    2.964354    0.632802
     40          1           0        0.232962    4.235241   -0.516114
 ---------------------------------------------------------------------

 SCF Done:  E(RHF) =  -470.733063393     A.U. after   11 cycles
 E2 =    -0.1584343292D+01 EUMP2 =    -0.47231740668537D+03

 The electronic state is 1-A.
 Alpha  occ. eigenvalues --  -11.21694 -11.21655 -11.21642 -11.21526 -11.21478
 Alpha  occ. eigenvalues --  -11.21428 -11.21414 -11.21351 -11.21153 -11.21130
 Alpha  occ. eigenvalues --  -11.21094 -11.21038  -1.08518  -1.08424  -1.03609
 Alpha  occ. eigenvalues --   -1.03522  -0.96047  -0.95989  -0.87080  -0.86990
 Alpha  occ. eigenvalues --   -0.79694  -0.79571  -0.78337  -0.78228  -0.65403
 Alpha  occ. eigenvalues --   -0.64850  -0.61114  -0.60821  -0.59404  -0.59354
 Alpha  occ. eigenvalues --   -0.57657  -0.57598  -0.55343  -0.55270  -0.52733
 Alpha  occ. eigenvalues --   -0.52683  -0.52479  -0.52408  -0.50143  -0.49806
 Alpha  occ. eigenvalues --   -0.48005  -0.47904  -0.46847  -0.46506  -0.45953
 Alpha  occ. eigenvalues --   -0.45892  -0.45686  -0.45479  -0.43848  -0.43790
 Alpha virt. eigenvalues --    0.18493   0.22166   0.23853   0.24520   0.25413
 Alpha virt. eigenvalues --    0.25947   0.27057   0.27778   0.28316   0.29546
 Alpha virt. eigenvalues --    0.30947   0.31335   0.31744   0.32218   0.32402

 Mulliken charges:
               1
     1  C   -0.298714
     2  C   -0.299678
     3  C   -0.475818
     4  H    0.149819
     5  H    0.149810
     6  H    0.151940
     7  H    0.152079
     8  H    0.155211
     9  H    0.155503
    10  H    0.160454
    11  C   -0.299101
    12  C   -0.303042
    13  C   -0.480388
    14  H    0.149547
    15  H    0.150217
    16  H    0.154260
    17  H    0.152538
    18  H    0.155866
    19  H    0.158938
    20  H    0.161278
    21  C   -0.299869
    22  C   -0.304336
    23  C   -0.476067
    24  H    0.151480
    25  H    0.149568
    26  H    0.158206
    27  H    0.151259
    28  H    0.154891
    29  H    0.155274
    30  H    0.160291
    31  C   -0.300056
    32  C   -0.300655
    33  C   -0.475792
    34  H    0.149979
    35  H    0.150040
    36  H    0.152047
    37  H    0.152495
    38  H    0.155575
    39  H    0.154466
    40  H    0.160485
 Sum of Mulliken charges =  -0.00000

 Dipole moment (field-independent basis, Debye):
    X=             -0.0202    Y=             -0.0193    Z=              0.0021  Tot=              0.0280
 Quadrupole moment (field-independent basis, Debye-Ang):
   XX=            -84.9927   YY=            -84.7006   ZZ=            -84.9601
   XY=              2.0399   XZ=              0.2665   YZ=              0.2501

 Normal termination of Gaussian 16 at Wed May  5 18:21:36 2021.
