 Gaussian 16, Revision A.03,
 Gaussian 16:  EM64L-G16RevA.03 25-Dec-2016

 -------------
 #p 6-31g* mp2
 -------------

 ------------------------------------------------------
 Input file generated by CHIRIPA (05-May-2021 14:53:16)
 ------------------------------------------------------
 Symbolic Z-matrix:
 Charge =  0 Multiplicity = 1

                         Standard orientation:
 ---------------------------------------------------------------------
 Center     Atomic      Atomic             Coordinates (Angstroms)
 Number     Number       Type             X           Y           Z
 ---------------------------------------------------------------------
      1          6           0       -3.710256    0.629981    0.314409
      2          6           0       -3.685544    2.010847   -0.341778
      3          6           0       -2.822624    3.014015    0.424262
      4          1           0       -4.083519    0.726520    1.343146
      5          1           0       -2.682379    0.248862    0.389327
      6          1           0       -4.713293    2.388652   -0.416693
      7          1           0       -3.312477    1.910982   -1.369136
      8          1           0       -1.787623    2.662732    0.487303
      9          1           0       -3.196397    3.143116    1.445157
     10          1           0       -2.819109    3.994399   -0.062251
     11          6           0       -4.568763   -0.383869   -0.439781
     12          6           0       -4.593475   -1.764735    0.216406
     13          6           0       -5.456395   -2.767903   -0.549634
     14          1           0       -5.596639   -0.002750   -0.514699
     15          1           0       -4.195499   -0.480409   -1.468518
     16          1           0       -4.966542   -1.664870    1.243764
     17          1           0       -3.565726   -2.142540    0.291321
     18          1           0       -5.082621   -2.897004   -1.570529
     19          1           0       -6.491396   -2.416620   -0.612675
     20          1           0       -5.459910   -3.748287   -0.063121
     21          6           0        0.833803    0.577448    0.437948
     22          6           0        1.286282   -0.676626    0.861127
     23          6           0        2.614075   -1.060425    0.650865
     24          6           0        3.466033   -0.161257    0.011369
     25          6           0        3.045159    1.095116   -0.421852
     26          6           0        1.713136    1.457765   -0.201064
     27          1           0       -0.199302    0.867378    0.605373
     28          1           0        0.605614   -1.362335    1.357655
     29          1           0        2.990789   -2.025192    0.968243
     30          1           0        3.747213    1.757140   -0.914056
     31          1           0        1.364505    2.432335   -0.530785
     32          7           0        4.873948   -0.556373   -0.216798
     33          8           0        5.604658    0.253968   -0.782525
     34          8           0        5.220102   -1.668923    0.174413
 ---------------------------------------------------------------------

 SCF Done:  E(RHF) =  -669.535234285     A.U. after   15 cycles
 E2 =    -0.2091641004D+01 EUMP2 =    -0.67162687528866D+03

 The electronic state is 1-A.
 Alpha  occ. eigenvalues --  -20.60738 -20.60733 -15.85792 -11.31155 -11.27725
 Alpha  occ. eigenvalues --  -11.27721 -11.27433 -11.26737 -11.26726 -11.22682
 Alpha  occ. eigenvalues --  -11.22531 -11.22387 -11.22342 -11.22240 -11.21686
 Alpha  occ. eigenvalues --   -1.59814  -1.39368  -1.19326  -1.09417  -1.08721
 Alpha  occ. eigenvalues --   -1.04730  -1.04480  -0.96939  -0.95560  -0.87951
 Alpha  occ. eigenvalues --   -0.86126  -0.82397  -0.80549  -0.79220  -0.77438
 Alpha  occ. eigenvalues --   -0.72010  -0.71137  -0.70477  -0.66047  -0.64979
 Alpha  occ. eigenvalues --   -0.64733  -0.62083  -0.61875  -0.60317  -0.58540
 Alpha  occ. eigenvalues --   -0.56263  -0.55244  -0.53603  -0.53359  -0.53057
 Alpha  occ. eigenvalues --   -0.52820  -0.50890  -0.48858  -0.48765  -0.48761
 Alpha  occ. eigenvalues --   -0.47573  -0.46747  -0.46656  -0.44774  -0.44733
 Alpha  occ. eigenvalues --   -0.37303  -0.36336
 Alpha virt. eigenvalues --    0.05090   0.11314   0.16553   0.18555   0.22536
 Alpha virt. eigenvalues --    0.23563   0.25091   0.25734   0.26363   0.27890
 Alpha virt. eigenvalues --    0.29263   0.30218   0.30886   0.31034   0.31325

 Mulliken charges:
               1
     1  C   -0.301207
     2  C   -0.301355
     3  C   -0.478507
     4  H    0.152743
     5  H    0.140711
     6  H    0.157448
     7  H    0.153959
     8  H    0.143869
     9  H    0.160248
    10  H    0.165604
    11  C   -0.298705
    12  C   -0.299755
    13  C   -0.476319
    14  H    0.152933
    15  H    0.151928
    16  H    0.153021
    17  H    0.148795
    18  H    0.156770
    19  H    0.156888
    20  H    0.162198
    21  C   -0.180776
    22  C   -0.221019
    23  C   -0.170656
    24  C    0.158185
    25  C   -0.170669
    26  C   -0.221771
    27  H    0.240289
    28  H    0.223563
    29  H    0.275451
    30  H    0.275513
    31  H    0.223659
    32  N    0.487970
    33  O   -0.460502
    34  O   -0.460505
 Sum of Mulliken charges =  -0.00000

 Dipole moment (field-independent basis, Debye):
    X=             -5.2556    Y=              1.4130    Z=              0.7639  Tot=              5.4956
 Quadrupole moment (field-independent basis, Debye-Ang):
   XX=           -128.0274   YY=            -91.7219   ZZ=            -94.3383
   XY=              5.6792   XZ=              1.6908   YZ=             -2.5898

 Normal termination of Gaussian 16 at Thu May  6 20:28:59 2021.
