 Gaussian 16, Revision A.03,
 Gaussian 16:  EM64L-G16RevA.03 25-Dec-2016

 -------------
 #p 6-31g* mp2
 -------------

 ------------------------------------------------------
 Input file generated by CHIRIPA (05-May-2021 14:57:24)
 ------------------------------------------------------
 Symbolic Z-matrix:
 Charge =  0 Multiplicity = 1

                         Standard orientation:
 ---------------------------------------------------------------------
 Center     Atomic      Atomic             Coordinates (Angstroms)
 Number     Number       Type             X           Y           Z
 ---------------------------------------------------------------------
      1          6           0       -1.951069    1.078597    2.266494
      2          6           0       -1.367939   -0.104097    1.799895
      3          6           0       -1.883808   -0.754332    0.674897
      4          6           0       -2.988692   -0.191489    0.037927
      5          6           0       -3.591827    0.985511    0.478595
      6          6           0       -3.059198    1.618675    1.605520
      7          1           0       -1.543820    1.577084    3.141168
      8          1           0       -0.507275   -0.525818    2.311221
      9          1           0       -1.451911   -1.671123    0.292305
     10          1           0       -4.448973    1.381783   -0.052147
     11          1           0       -3.514113    2.537046    1.965646
     12          7           0       -3.543691   -0.870827   -1.154078
     13          8           0       -4.517775   -0.354598   -1.697497
     14          8           0       -2.994106   -1.906658   -1.522382
     15          6           0        2.237726    2.318919   -1.191520
     16          6           0        3.584638    2.031237   -0.947417
     17          6           0        3.961589    0.793729   -0.417295
     18          6           0        2.960979   -0.136970   -0.141852
     19          6           0        1.610636    0.119891   -0.373982
     20          6           0        1.256752    1.364011   -0.904529
     21          1           0        1.953861    3.282813   -1.603496
     22          1           0        4.348625    2.770917   -1.169327
     23          1           0        4.996929    0.544754   -0.218547
     24          1           0        0.871707   -0.637631   -0.142544
     25          1           0        0.209947    1.584676   -1.093078
     26          7           0        3.347829   -1.450564    0.419590
     27          8           0        2.447168   -2.253480    0.653622
     28          8           0        4.544380   -1.652370    0.614984
 ---------------------------------------------------------------------

 SCF Done:  E(RHF) =  -868.337623929     A.U. after   16 cycles
 E2 =    -0.2602097607D+01 EUMP2 =    -0.87093972153579D+03

 The electronic state is 1-A.
 Alpha  occ. eigenvalues --  -20.61236 -20.61221 -20.61211 -20.61180 -15.86287
 Alpha  occ. eigenvalues --  -15.86239 -11.31797 -11.31493 -11.28324 -11.28285
 Alpha  occ. eigenvalues --  -11.28034 -11.28017 -11.28010 -11.27746 -11.27357
 Alpha  occ. eigenvalues --  -11.27279 -11.27038 -11.26987  -1.60310  -1.60267
 Alpha  occ. eigenvalues --   -1.39856  -1.39828  -1.19957  -1.19650  -1.09298
 Alpha  occ. eigenvalues --   -1.09065  -1.05387  -1.05000  -0.96122  -0.95918
 Alpha  occ. eigenvalues --   -0.86713  -0.86445  -0.82946  -0.82740  -0.78040
 Alpha  occ. eigenvalues --   -0.77769  -0.72496  -0.72454  -0.71652  -0.71588
 Alpha  occ. eigenvalues --   -0.71036  -0.70732  -0.65585  -0.65304  -0.65280
 Alpha  occ. eigenvalues --   -0.65024  -0.62798  -0.62249  -0.55786  -0.55547
 Alpha  occ. eigenvalues --   -0.53726  -0.53419  -0.53282  -0.53103  -0.49266
 Alpha  occ. eigenvalues --   -0.49245  -0.49228  -0.49196  -0.45253  -0.45229
 Alpha  occ. eigenvalues --   -0.37952  -0.37636  -0.37131  -0.36404
 Alpha virt. eigenvalues --    0.04445   0.04716   0.10529   0.11078   0.15900
 Alpha virt. eigenvalues --    0.16273   0.20349   0.21646   0.25631   0.27264
 Alpha virt. eigenvalues --    0.27570   0.28861   0.30613   0.30961   0.31610

 Mulliken charges:
               1
     1  C   -0.171973
     2  C   -0.220821
     3  C   -0.188850
     4  C    0.157505
     5  C   -0.173959
     6  C   -0.219234
     7  H    0.228891
     8  H    0.235883
     9  H    0.283987
    10  H    0.276870
    11  H    0.225154
    12  N    0.487399
    13  O   -0.459540
    14  O   -0.456744
    15  C   -0.171336
    16  C   -0.218729
    17  C   -0.170748
    18  C    0.158069
    19  C   -0.173465
    20  C   -0.220609
    21  H    0.226547
    22  H    0.224248
    23  H    0.275973
    24  H    0.273232
    25  H    0.227497
    26  N    0.488199
    27  O   -0.465833
    28  O   -0.457610
 Sum of Mulliken charges =  -0.00000

 Dipole moment (field-independent basis, Debye):
    X=              0.5275    Y=              7.0673    Z=              2.2820  Tot=              7.4453
 Quadrupole moment (field-independent basis, Debye-Ang):
   XX=           -117.5523   YY=           -104.8811   ZZ=           -104.9968
   XY=              5.2222   XZ=            -18.2688   YZ=             -1.4511

 Normal termination of Gaussian 16 at Thu May  6 05:04:16 2021.
