 Gaussian 16, Revision A.03,
 Gaussian 16:  EM64L-G16RevA.03 25-Dec-2016

 -------------
 #p 6-31g* mp2
 -------------

 ------------------------------------------------------
 Input file generated by CHIRIPA (05-May-2021 14:57:25)
 ------------------------------------------------------
 Symbolic Z-matrix:
 Charge =  0 Multiplicity = 1

                         Standard orientation:
 ---------------------------------------------------------------------
 Center     Atomic      Atomic             Coordinates (Angstroms)
 Number     Number       Type             X           Y           Z
 ---------------------------------------------------------------------
      1          6           0       -0.715596   -0.555579    0.924731
      2          6           0       -1.007505   -0.602411   -0.442425
      3          6           0       -2.298793   -0.327794   -0.902543
      4          6           0       -3.278376   -0.008409    0.036446
      5          6           0       -3.018711    0.046389    1.404971
      6          6           0       -1.720359   -0.231899    1.842448
      7          1           0        0.290251   -0.770334    1.273368
      8          1           0       -0.229181   -0.853497   -1.157415
      9          1           0       -2.552284   -0.356869   -1.955309
     10          1           0       -3.815525    0.299710    2.093690
     11          1           0       -1.496542   -0.194776    2.904791
     12          7           0       -4.649144    0.284259   -0.438677
     13          8           0       -5.494478    0.563083    0.408852
     14          8           0       -4.852262    0.229286   -1.649609
     15          6           0        2.815211   -2.454253   -0.185698
     16          6           0        2.918584   -1.795364    1.043815
     17          6           0        3.050410   -0.404488    1.095113
     18          6           0        3.075394    0.299388   -0.107892
     19          6           0        2.974564   -0.328276   -1.348522
     20          6           0        2.843482   -1.719900   -1.375843
     21          1           0        2.713095   -3.535010   -0.216234
     22          1           0        2.896924   -2.363103    1.969693
     23          1           0        3.132346    0.131016    2.033165
     24          1           0        2.999258    0.264746   -2.254686
     25          1           0        2.763401   -2.228937   -2.332145
     26          7           0        3.214558    1.772243   -0.066277
     27          8           0        3.233949    2.369504   -1.140307
     28          8           0        3.301610    2.301518    1.039584
 ---------------------------------------------------------------------

 SCF Done:  E(RHF) =  -868.336539302     A.U. after   16 cycles
 E2 =    -0.2603384580D+01 EUMP2 =    -0.87093992388215D+03

 The electronic state is 1-A.
 Alpha  occ. eigenvalues --  -20.61772 -20.61762 -20.60675 -20.60670 -15.86838
 Alpha  occ. eigenvalues --  -15.85728 -11.32536 -11.31070 -11.29129 -11.29122
 Alpha  occ. eigenvalues --  -11.28886 -11.28177 -11.28165 -11.27648 -11.27645
 Alpha  occ. eigenvalues --  -11.27226 -11.26640 -11.26588  -1.60839  -1.59751
 Alpha  occ. eigenvalues --   -1.40383  -1.39305  -1.20778  -1.19236  -1.10058
 Alpha  occ. eigenvalues --   -1.08626  -1.06218  -1.04646  -0.96835  -0.95471
 Alpha  occ. eigenvalues --   -0.87537  -0.86041  -0.83658  -0.82316  -0.78657
 Alpha  occ. eigenvalues --   -0.77373  -0.73041  -0.72184  -0.71946  -0.71765
 Alpha  occ. eigenvalues --   -0.71074  -0.70381  -0.66367  -0.66124  -0.64885
 Alpha  occ. eigenvalues --   -0.64689  -0.63494  -0.62021  -0.56592  -0.55613
 Alpha  occ. eigenvalues --   -0.54220  -0.54055  -0.52971  -0.52700  -0.49826
 Alpha  occ. eigenvalues --   -0.49781  -0.48709  -0.48703  -0.45715  -0.44717
 Alpha  occ. eigenvalues --   -0.38802  -0.37796  -0.37140  -0.36252
 Alpha virt. eigenvalues --    0.03826   0.05155   0.09739   0.11400   0.15169
 Alpha virt. eigenvalues --    0.16697   0.20129   0.21917   0.25852   0.27152
 Alpha virt. eigenvalues --    0.27393   0.28968   0.29842   0.31353   0.31854

 Mulliken charges:
               1
     1  C   -0.175993
     2  C   -0.226299
     3  C   -0.170839
     4  C    0.158377
     5  C   -0.170235
     6  C   -0.220857
     7  H    0.232724
     8  H    0.222092
     9  H    0.274177
    10  H    0.275205
    11  H    0.221654
    12  N    0.488097
    13  O   -0.460562
    14  O   -0.461133
    15  C   -0.169055
    16  C   -0.227016
    17  C   -0.184881
    18  C    0.166847
    19  C   -0.174474
    20  C   -0.224432
    21  H    0.232226
    22  H    0.228683
    23  H    0.279539
    24  H    0.281156
    25  H    0.229558
    26  N    0.488621
    27  O   -0.455618
    28  O   -0.457561
 Sum of Mulliken charges =  -0.00000

 Dipole moment (field-independent basis, Debye):
    X=              4.7572    Y=             -6.1861    Z=              1.4441  Tot=              7.9363
 Quadrupole moment (field-independent basis, Debye-Ang):
   XX=           -139.7150   YY=           -108.7329   ZZ=            -95.1204
   XY=            -13.3180   XZ=             -7.3966   YZ=              1.1861

 Normal termination of Gaussian 16 at Thu May  6 06:43:59 2021.
