 Gaussian 16, Revision A.03,
 Gaussian 16:  EM64L-G16RevA.03 25-Dec-2016

 -------------
 #p 6-31g* mp2
 -------------

 ------------------------------------------------------
 Input file generated by CHIRIPA (05-May-2021 14:51:12)
 ------------------------------------------------------
 Symbolic Z-matrix:
 Charge =  0 Multiplicity = 1

                         Standard orientation:
 ---------------------------------------------------------------------
 Center     Atomic      Atomic             Coordinates (Angstroms)
 Number     Number       Type             X           Y           Z
 ---------------------------------------------------------------------
      1          6           0       -3.419478    0.894178   -0.341476
      2          6           0       -2.885583    2.046630    0.509873
      3          6           0       -3.617545    3.363292    0.248290
      4          1           0       -3.330880    1.159825   -1.403798
      5          1           0       -4.491899    0.764889   -0.140000
      6          1           0       -1.814185    2.172807    0.307878
      7          1           0       -2.975284    1.778130    1.570287
      8          1           0       -4.685139    3.260834    0.468171
      9          1           0       -3.517442    3.657754   -0.801411
     10          1           0       -3.219898    4.173546    0.867341
     11          6           0       -2.697748   -0.428786   -0.091275
     12          6           0       -3.231643   -1.581238   -0.942624
     13          6           0       -2.499681   -2.897900   -0.681041
     14          1           0       -1.625327   -0.299498   -0.292751
     15          1           0       -2.786346   -0.694433    0.971047
     16          1           0       -3.141941   -1.312738   -2.003038
     17          1           0       -4.303041   -1.707415   -0.740629
     18          1           0       -2.599784   -3.192362    0.368660
     19          1           0       -1.432087   -2.795443   -0.900922
     20          1           0       -2.897328   -3.708154   -1.300093
     21          6           0        3.484681    0.031846   -0.359745
     22          6           0        4.704723    0.828193    0.104272
     23          6           0        5.547184    1.350810   -1.059742
     24          1           0        3.819154   -0.811212   -0.979687
     25          1           0        2.864259    0.668183   -1.005924
     26          1           0        5.321946    0.190981    0.750501
     27          1           0        4.367320    1.669341    0.723338
     28          1           0        4.951736    2.008115   -1.701608
     29          1           0        5.911786    0.521356   -1.674291
     30          1           0        6.414114    1.917127   -0.705376
     31          6           0        2.632544   -0.497237    0.792496
     32          6           0        1.412503   -1.293584    0.328479
     33          6           0        0.570042   -1.816201    1.492493
     34          1           0        3.252966   -1.133575    1.438675
     35          1           0        2.298072    0.345821    1.412438
     36          1           0        1.749906   -2.134733   -0.290587
     37          1           0        0.795279   -0.656372   -0.317751
     38          1           0        0.205439   -0.986746    2.107042
     39          1           0        1.165490   -2.473507    2.134359
     40          1           0       -0.296889   -2.382518    1.138127
 ---------------------------------------------------------------------

 SCF Done:  E(RHF) =  -470.731834759     A.U. after   11 cycles
 E2 =    -0.1584680127D+01 EUMP2 =    -0.47231651488597D+03

 The electronic state is 1-A.
 Alpha  occ. eigenvalues --  -11.21629 -11.21619 -11.21601 -11.21583 -11.21399
 Alpha  occ. eigenvalues --  -11.21395 -11.21338 -11.21320 -11.21098 -11.21092
 Alpha  occ. eigenvalues --  -11.21074 -11.20856  -1.08474  -1.08390  -1.03604
 Alpha  occ. eigenvalues --   -1.03459  -0.96022  -0.95927  -0.87052  -0.86935
 Alpha  occ. eigenvalues --   -0.79647  -0.79554  -0.78308  -0.78197  -0.65176
 Alpha  occ. eigenvalues --   -0.64965  -0.61012  -0.60872  -0.59661  -0.59112
 Alpha  occ. eigenvalues --   -0.57800  -0.57364  -0.55331  -0.55192  -0.52833
 Alpha  occ. eigenvalues --   -0.52686  -0.52473  -0.52149  -0.49968  -0.49867
 Alpha  occ. eigenvalues --   -0.48024  -0.47735  -0.46760  -0.46568  -0.45941
 Alpha  occ. eigenvalues --   -0.45769  -0.45727  -0.45395  -0.43805  -0.43703
 Alpha virt. eigenvalues --    0.21068   0.23216   0.23470   0.24754   0.25702
 Alpha virt. eigenvalues --    0.26325   0.26869   0.27635   0.28014   0.29616
 Alpha virt. eigenvalues --    0.30521   0.31559   0.31682   0.31925   0.31999

 Mulliken charges:
               1
     1  C   -0.297849
     2  C   -0.299516
     3  C   -0.475660
     4  H    0.149285
     5  H    0.149509
     6  H    0.150926
     7  H    0.152026
     8  H    0.155375
     9  H    0.155180
    10  H    0.160197
    11  C   -0.306430
    12  C   -0.298589
    13  C   -0.481856
    14  H    0.158007
    15  H    0.150720
    16  H    0.151722
    17  H    0.151916
    18  H    0.155862
    19  H    0.159926
    20  H    0.161144
    21  C   -0.298291
    22  C   -0.299640
    23  C   -0.475691
    24  H    0.149612
    25  H    0.148963
    26  H    0.152031
    27  H    0.151957
    28  H    0.155056
    29  H    0.155173
    30  H    0.160284
    31  C   -0.297995
    32  C   -0.304357
    33  C   -0.483153
    34  H    0.149834
    35  H    0.149813
    36  H    0.151384
    37  H    0.153498
    38  H    0.154874
    39  H    0.153729
    40  H    0.171024
 Sum of Mulliken charges =  -0.00000

 Dipole moment (field-independent basis, Debye):
    X=             -0.0353    Y=             -0.0232    Z=             -0.0058  Tot=              0.0427
 Quadrupole moment (field-independent basis, Debye-Ang):
   XX=            -84.7577   YY=            -85.2104   ZZ=            -84.8389
   XY=             -0.1365   XZ=             -0.0471   YZ=              0.2449

 Normal termination of Gaussian 16 at Wed May  5 21:31:27 2021.
