 Gaussian 16, Revision A.03,
 Gaussian 16:  EM64L-G16RevA.03 25-Dec-2016

 -------------
 #p 6-31g* mp2
 -------------

 ------------------------------------------------------
 Input file generated by CHIRIPA (05-May-2021 14:57:23)
 ------------------------------------------------------
 Symbolic Z-matrix:
 Charge =  0 Multiplicity = 1

                         Standard orientation:
 ---------------------------------------------------------------------
 Center     Atomic      Atomic             Coordinates (Angstroms)
 Number     Number       Type             X           Y           Z
 ---------------------------------------------------------------------
      1          6           0        5.397532   -0.648212    1.208993
      2          6           0        5.414887    0.384687    0.265945
      3          6           0        4.272748    0.680627   -0.484046
      4          6           0        3.125333   -0.079909   -0.264246
      5          6           0        3.076654   -1.115252    0.667948
      6          6           0        4.230528   -1.393571    1.406636
      7          1           0        6.289331   -0.871261    1.787214
      8          1           0        6.319782    0.965200    0.110337
      9          1           0        4.258488    1.474758   -1.220641
     10          1           0        2.159699   -1.676475    0.800765
     11          1           0        4.214147   -2.196311    2.138336
     12          7           0        1.909990    0.224062   -1.052245
     13          8           0        0.911704   -0.460714   -0.839773
     14          8           0        1.978703    1.141334   -1.867430
     15          6           0       -2.470899    2.425326    0.740063
     16          6           0       -2.001191    1.784772   -0.411277
     17          6           0       -2.467783    0.512933   -0.756624
     18          6           0       -3.408269   -0.091896    0.075819
     19          6           0       -3.895484    0.520495    1.229461
     20          6           0       -3.414882    1.792260    1.555320
     21          1           0       -2.102998    3.413292    1.000768
     22          1           0       -1.268083    2.274023   -1.046283
     23          1           0       -2.121121   -0.005738   -1.642188
     24          1           0       -4.626309    0.007532    1.842797
     25          1           0       -3.781443    2.287336    2.450070
     26          7           0       -3.909645   -1.438295   -0.279470
     27          8           0       -4.738191   -1.949829    0.470518
     28          8           0       -3.464584   -1.956575   -1.301206
 ---------------------------------------------------------------------

 SCF Done:  E(RHF) =  -868.339985736     A.U. after   16 cycles
 E2 =    -0.2599347093D+01 EUMP2 =    -0.87093933282941D+03

 The electronic state is 1-A.
 Alpha  occ. eigenvalues --  -20.61520 -20.61463 -20.59772 -20.59741 -15.86493
 Alpha  occ. eigenvalues --  -15.84803 -11.31624 -11.29961 -11.28182 -11.28134
 Alpha  occ. eigenvalues --  -11.27869 -11.27138 -11.27104 -11.26645 -11.26363
 Alpha  occ. eigenvalues --  -11.26335 -11.25657 -11.25358  -1.60554  -1.58839
 Alpha  occ. eigenvalues --   -1.40108  -1.38395  -1.19776  -1.18149  -1.09220
 Alpha  occ. eigenvalues --   -1.07609  -1.05139  -1.03492  -0.96093  -0.94460
 Alpha  occ. eigenvalues --   -0.86549  -0.84928  -0.82929  -0.81276  -0.78001
 Alpha  occ. eigenvalues --   -0.76328  -0.72734  -0.71848  -0.71032  -0.70879
 Alpha  occ. eigenvalues --   -0.70158  -0.69294  -0.65430  -0.65140  -0.63802
 Alpha  occ. eigenvalues --   -0.63502  -0.62484  -0.60823  -0.55655  -0.54096
 Alpha  occ. eigenvalues --   -0.53487  -0.53226  -0.51893  -0.51577  -0.49498
 Alpha  occ. eigenvalues --   -0.49477  -0.47794  -0.47768  -0.45556  -0.43843
 Alpha  occ. eigenvalues --   -0.37749  -0.36732  -0.36198  -0.35037
 Alpha virt. eigenvalues --    0.04489   0.06186   0.10926   0.12551   0.16038
 Alpha virt. eigenvalues --    0.17681   0.21098   0.22635   0.27030   0.27960
 Alpha virt. eigenvalues --    0.28665   0.29487   0.30695   0.32075   0.32240

 Mulliken charges:
               1
     1  C   -0.169983
     2  C   -0.218765
     3  C   -0.171025
     4  C    0.157480
     5  C   -0.170338
     6  C   -0.218805
     7  H    0.227220
     8  H    0.224364
     9  H    0.274895
    10  H    0.278840
    11  H    0.225880
    12  N    0.489202
    13  O   -0.459717
    14  O   -0.466220
    15  C   -0.173496
    16  C   -0.221445
    17  C   -0.156707
    18  C    0.153165
    19  C   -0.173571
    20  C   -0.220331
    21  H    0.220448
    22  H    0.233507
    23  H    0.284922
    24  H    0.270602
    25  H    0.217319
    26  N    0.488048
    27  O   -0.466739
    28  O   -0.458751
 Sum of Mulliken charges =  -0.00000

 Dipole moment (field-independent basis, Debye):
    X=              6.5222    Y=              3.5497    Z=              3.8422  Tot=              8.3607
 Quadrupole moment (field-independent basis, Debye-Ang):
   XX=            -89.1225   YY=           -104.2243   ZZ=           -102.7075
   XY=            -18.1750   XZ=              0.5242   YZ=             -2.0006

 Normal termination of Gaussian 16 at Fri May  7 09:27:53 2021.
