 Gaussian 16, Revision A.03,
 Gaussian 16:  EM64L-G16RevA.03 25-Dec-2016

 -------------
 #p 6-31g* mp2
 -------------

 ------------------------------------------------------
 Input file generated by CHIRIPA (05-May-2021 14:57:23)
 ------------------------------------------------------
 Symbolic Z-matrix:
 Charge =  0 Multiplicity = 1

                         Standard orientation:
 ---------------------------------------------------------------------
 Center     Atomic      Atomic             Coordinates (Angstroms)
 Number     Number       Type             X           Y           Z
 ---------------------------------------------------------------------
      1          6           0        0.406546   -1.056303   -0.430751
      2          6           0        1.364090   -1.235901   -1.434432
      3          6           0        2.692457   -0.853623   -1.225021
      4          6           0        3.029961   -0.292363    0.005575
      5          6           0        2.098897   -0.100511    1.025184
      6          6           0        0.776354   -0.490179    0.793695
      7          1           0       -0.623099   -1.356136   -0.602001
      8          1           0        1.079755   -1.675303   -2.386337
      9          1           0        3.454015   -0.981268   -1.984728
     10          1           0        2.412493    0.340219    1.963710
     11          1           0        0.034836   -0.349506    1.574981
     12          7           0        4.433161    0.116249    0.238955
     13          8           0        4.705042    0.608430    1.331876
     14          8           0        5.234538   -0.063398   -0.675461
     15          6           0       -3.854304   -1.863422    0.589047
     16          6           0       -3.284950   -1.085730    1.602730
     17          6           0       -2.697314    0.147667    1.306145
     18          6           0       -2.696644    0.574631   -0.020879
     19          6           0       -3.255769   -0.177340   -1.052969
     20          6           0       -3.837925   -1.407548   -0.733236
     21          1           0       -4.308666   -2.820316    0.828434
     22          1           0       -3.296223   -1.437248    2.630520
     23          1           0       -2.249359    0.769903    2.071375
     24          1           0       -3.229279    0.199612   -2.068164
     25          1           0       -4.279340   -2.009400   -1.522522
     26          7           0       -2.077441    1.878686   -0.347113
     27          8           0       -2.089727    2.232434   -1.524122
     28          8           0       -1.591548    2.522363    0.580369
 ---------------------------------------------------------------------

 SCF Done:  E(RHF) =  -868.335337980     A.U. after   16 cycles
 E2 =    -0.2605360659D+01 EUMP2 =    -0.87094069863941D+03

 The electronic state is 1-A.
 Alpha  occ. eigenvalues --  -20.61706 -20.61697 -20.60432 -20.60425 -15.86758
 Alpha  occ. eigenvalues --  -15.85485 -11.32443 -11.30836 -11.29038 -11.29000
 Alpha  occ. eigenvalues --  -11.28780 -11.28117 -11.28103 -11.27425 -11.27407
 Alpha  occ. eigenvalues --  -11.27089 -11.26449 -11.26405  -1.60761  -1.59505
 Alpha  occ. eigenvalues --   -1.40310  -1.39060  -1.20706  -1.19014  -1.09974
 Alpha  occ. eigenvalues --   -1.08423  -1.06126  -1.04426  -0.96758  -0.95258
 Alpha  occ. eigenvalues --   -0.87472  -0.85841  -0.83573  -0.82100  -0.78588
 Alpha  occ. eigenvalues --   -0.77146  -0.72969  -0.72148  -0.71723  -0.71682
 Alpha  occ. eigenvalues --   -0.70823  -0.70155  -0.66279  -0.66057  -0.64682
 Alpha  occ. eigenvalues --   -0.64525  -0.63405  -0.61800  -0.56508  -0.55487
 Alpha  occ. eigenvalues --   -0.54150  -0.53869  -0.52732  -0.52505  -0.49751
 Alpha  occ. eigenvalues --   -0.49714  -0.48471  -0.48459  -0.45636  -0.44469
 Alpha  occ. eigenvalues --   -0.38761  -0.37755  -0.36874  -0.35996
 Alpha virt. eigenvalues --    0.03850   0.05426   0.09748   0.11674   0.15372
 Alpha virt. eigenvalues --    0.16887   0.20025   0.22026   0.25552   0.26882
 Alpha virt. eigenvalues --    0.28321   0.28723   0.29943   0.30706   0.32120

 Mulliken charges:
               1
     1  C   -0.181117
     2  C   -0.218110
     3  C   -0.169818
     4  C    0.158607
     5  C   -0.167079
     6  C   -0.217450
     7  H    0.230454
     8  H    0.220686
     9  H    0.274823
    10  H    0.275572
    11  H    0.217874
    12  N    0.488223
    13  O   -0.460444
    14  O   -0.461258
    15  C   -0.172509
    16  C   -0.218040
    17  C   -0.185958
    18  C    0.163447
    19  C   -0.181631
    20  C   -0.219874
    21  H    0.231196
    22  H    0.228785
    23  H    0.277743
    24  H    0.279702
    25  H    0.228529
    26  N    0.491276
    27  O   -0.456265
    28  O   -0.457364
 Sum of Mulliken charges =  -0.00000

 Dipole moment (field-independent basis, Debye):
    X=             -7.3973    Y=             -5.9143    Z=              0.3042  Tot=              9.4758
 Quadrupole moment (field-independent basis, Debye-Ang):
   XX=           -122.9309   YY=           -109.8571   ZZ=            -95.9830
   XY=              8.4233   XZ=             -5.5923   YZ=              3.2508

 Normal termination of Gaussian 16 at Thu May  6 12:59:39 2021.
