 Gaussian 16, Revision A.03,
 Gaussian 16:  EM64L-G16RevA.03 25-Dec-2016

 -------------
 #p 6-31g* mp2
 -------------

 ------------------------------------------------------
 Input file generated by CHIRIPA (05-May-2021 14:53:12)
 ------------------------------------------------------
 Symbolic Z-matrix:
 Charge =  0 Multiplicity = 1

                         Standard orientation:
 ---------------------------------------------------------------------
 Center     Atomic      Atomic             Coordinates (Angstroms)
 Number     Number       Type             X           Y           Z
 ---------------------------------------------------------------------
      1          6           0       -3.550986    0.351029    0.176076
      2          6           0       -2.427587    0.179374   -0.846908
      3          6           0       -1.120303    0.838081   -0.405423
      4          1           0       -3.719205    1.422645    0.350111
      5          1           0       -3.230779   -0.075191    1.136908
      6          1           0       -2.750349    0.604554   -1.805898
      7          1           0       -2.262153   -0.891955   -1.018670
      8          1           0       -0.771862    0.407756    0.539040
      9          1           0       -1.262832    1.912767   -0.252662
     10          1           0       -0.330871    0.703201   -1.151389
     11          6           0       -4.864283   -0.302080   -0.251038
     12          6           0       -5.987682   -0.130424    0.771946
     13          6           0       -7.294966   -0.789131    0.330461
     14          1           0       -5.184490    0.124141   -1.211870
     15          1           0       -4.696064   -1.373695   -0.425072
     16          1           0       -6.153116    0.940904    0.943708
     17          1           0       -5.664920   -0.555604    1.730937
     18          1           0       -7.152438   -1.863817    0.177700
     19          1           0       -7.643407   -0.358806   -0.614001
     20          1           0       -8.084398   -0.654252    1.076427
     21          6           0        2.687882    2.431677    0.011565
     22          6           0        3.349425    1.880780    1.114014
     23          6           0        3.686414    0.524107    1.134707
     24          6           0        3.345155   -0.256055    0.030995
     25          6           0        2.686069    0.263451   -1.082112
     26          6           0        2.358895    1.622681   -1.081053
     27          1           0        2.429914    3.486565    0.003938
     28          1           0        3.606167    2.506664    1.963953
     29          1           0        4.198580    0.071710    1.975205
     30          1           0        2.443273   -0.385663   -1.914649
     31          1           0        1.845135    2.047800   -1.938591
     32          7           0        3.696715   -1.693657    0.041387
     33          8           0        3.384975   -2.359704   -0.943415
     34          8           0        4.277351   -2.127180    1.034139
 ---------------------------------------------------------------------

 SCF Done:  E(RHF) =  -669.534442094     A.U. after   15 cycles
 E2 =    -0.2092250334D+01 EUMP2 =    -0.67162669242807D+03

 The electronic state is 1-A.
 Alpha  occ. eigenvalues --  -20.60763 -20.60758 -15.85817 -11.31179 -11.27733
 Alpha  occ. eigenvalues --  -11.27728 -11.27470 -11.26764 -11.26750 -11.21809
 Alpha  occ. eigenvalues --  -11.21710 -11.21571 -11.21488 -11.21356 -11.21150
 Alpha  occ. eigenvalues --   -1.59839  -1.39392  -1.19351  -1.08745  -1.08592
 Alpha  occ. eigenvalues --   -1.04769  -1.03704  -0.96165  -0.95580  -0.87192
 Alpha  occ. eigenvalues --   -0.86150  -0.82422  -0.79774  -0.78402  -0.77467
 Alpha  occ. eigenvalues --   -0.72035  -0.71162  -0.70454  -0.65222  -0.65008
 Alpha  occ. eigenvalues --   -0.64771  -0.62128  -0.61101  -0.59566  -0.57782
 Alpha  occ. eigenvalues --   -0.55451  -0.55251  -0.53486  -0.52867  -0.52591
 Alpha  occ. eigenvalues --   -0.52444  -0.50099  -0.48794  -0.48790  -0.48092
 Alpha  occ. eigenvalues --   -0.46799  -0.45945  -0.45864  -0.44799  -0.43981
 Alpha  occ. eigenvalues --   -0.37312  -0.36251
 Alpha virt. eigenvalues --    0.05053   0.11274   0.16469   0.21016   0.22766
 Alpha virt. eigenvalues --    0.24145   0.26488   0.26625   0.27307   0.28217
 Alpha virt. eigenvalues --    0.28426   0.30715   0.31225   0.31771   0.32442

 Mulliken charges:
               1
     1  C   -0.298573
     2  C   -0.300697
     3  C   -0.473549
     4  H    0.147894
     5  H    0.150776
     6  H    0.149737
     7  H    0.155393
     8  H    0.158873
     9  H    0.148951
    10  H    0.155984
    11  C   -0.298495
    12  C   -0.299731
    13  C   -0.475827
    14  H    0.148998
    15  H    0.151367
    16  H    0.151099
    17  H    0.152568
    18  H    0.156134
    19  H    0.154947
    20  H    0.160465
    21  C   -0.171081
    22  C   -0.218402
    23  C   -0.171722
    24  C    0.158610
    25  C   -0.170135
    26  C   -0.213960
    27  H    0.225549
    28  H    0.223380
    29  H    0.275407
    30  H    0.275258
    31  H    0.223792
    32  N    0.488023
    33  O   -0.460539
    34  O   -0.460497
 Sum of Mulliken charges =  -0.00000

 Dipole moment (field-independent basis, Debye):
    X=             -1.2302    Y=              5.0523    Z=             -0.0057  Tot=              5.1999
 Quadrupole moment (field-independent basis, Debye-Ang):
   XX=           -103.9039   YY=            -97.3816   ZZ=            -90.6776
   XY=             17.2161   XZ=              1.8950   YZ=              0.2699

 Normal termination of Gaussian 16 at Thu May  6 11:58:26 2021.
