 Gaussian 16, Revision A.03,
 Gaussian 16:  EM64L-G16RevA.03 25-Dec-2016

 -------------
 #p 6-31g* mp2
 -------------

 ------------------------------------------------------
 Input file generated by CHIRIPA (05-May-2021 14:55:25)
 ------------------------------------------------------
 Symbolic Z-matrix:
 Charge =  0 Multiplicity = 1

                         Standard orientation:
 ---------------------------------------------------------------------
 Center     Atomic      Atomic             Coordinates (Angstroms)
 Number     Number       Type             X           Y           Z
 ---------------------------------------------------------------------
      1          6           0        4.239269    0.716124   -0.006183
      2          6           0        3.931869   -0.168056   -1.045535
      3          6           0        2.769663   -0.943633   -0.997543
      4          6           0        1.933554   -0.809170    0.109765
      5          6           0        2.212388    0.062858    1.161006
      6          6           0        3.380063    0.828560    1.091835
      7          1           0        5.144223    1.314775   -0.051690
      8          1           0        4.597296   -0.257451   -1.899502
      9          1           0        2.507475   -1.635989   -1.788314
     10          1           0        1.529624    0.130103    1.999296
     11          1           0        3.616256    1.514402    1.900462
     12          7           0        0.700284   -1.625012    0.171783
     13          8           0       -0.019923   -1.488087    1.158287
     14          8           0        0.477205   -2.385946   -0.767287
     15          6           0       -1.996697    1.044014   -0.052410
     16          6           0       -1.689286    2.499775   -0.404891
     17          6           0       -0.207963    2.845403   -0.249913
     18          1           0       -1.679334    0.848766    0.981082
     19          1           0       -1.396206    0.384092   -0.693744
     20          1           0       -2.291207    3.156741    0.235969
     21          1           0       -2.007593    2.691631   -1.437601
     22          1           0        0.405099    2.214168   -0.901294
     23          1           0        0.119873    2.681921    0.781784
     24          1           0       -0.010597    3.890781   -0.506991
     25          6           0       -3.473541    0.683243   -0.202422
     26          6           0       -3.780952   -0.772518    0.150059
     27          6           0       -5.262275   -1.118147   -0.004920
     28          1           0       -4.074032    1.343165    0.438912
     29          1           0       -3.790904    0.878491   -1.235914
     30          1           0       -3.462645   -0.964375    1.182768
     31          1           0       -3.179031   -1.429485   -0.490801
     32          1           0       -5.590111   -0.954665   -1.036616
     33          1           0       -5.875337   -0.486912    0.646462
     34          1           0       -5.459641   -2.163525    0.252159
 ---------------------------------------------------------------------

 SCF Done:  E(RHF) =  -669.535446690     A.U. after   15 cycles
 E2 =    -0.2094296472D+01 EUMP2 =    -0.67162974316272D+03

 The electronic state is 1-A.
 Alpha  occ. eigenvalues --  -20.60909 -20.60886 -15.85903 -11.31238 -11.27816
 Alpha  occ. eigenvalues --  -11.27809 -11.27542 -11.26812 -11.26797 -11.21112
 Alpha  occ. eigenvalues --  -11.20903 -11.20498 -11.20436 -11.20265 -11.20062
 Alpha  occ. eigenvalues --   -1.59952  -1.39509  -1.19412  -1.08813  -1.07581
 Alpha  occ. eigenvalues --   -1.04809  -1.02755  -0.95658  -0.95255  -0.86291
 Alpha  occ. eigenvalues --   -0.86205  -0.82498  -0.78827  -0.77583  -0.77293
 Alpha  occ. eigenvalues --   -0.72145  -0.71247  -0.70524  -0.65069  -0.64815
 Alpha  occ. eigenvalues --   -0.64219  -0.62163  -0.60161  -0.58662  -0.56845
 Alpha  occ. eigenvalues --   -0.55314  -0.54571  -0.53180  -0.52903  -0.51977
 Alpha  occ. eigenvalues --   -0.51628  -0.49246  -0.48914  -0.48902  -0.47146
 Alpha  occ. eigenvalues --   -0.45849  -0.45385  -0.44752  -0.44279  -0.42976
 Alpha  occ. eigenvalues --   -0.37378  -0.36378
 Alpha virt. eigenvalues --    0.04943   0.11223   0.16401   0.21141   0.23440
 Alpha virt. eigenvalues --    0.24817   0.26512   0.27560   0.27702   0.28638
 Alpha virt. eigenvalues --    0.29006   0.31046   0.31647   0.32270   0.32603

 Mulliken charges:
               1
     1  C   -0.170284
     2  C   -0.218635
     3  C   -0.172007
     4  C    0.157429
     5  C   -0.166957
     6  C   -0.217905
     7  H    0.225943
     8  H    0.223604
     9  H    0.275557
    10  H    0.274875
    11  H    0.223719
    12  N    0.488150
    13  O   -0.456437
    14  O   -0.460964
    15  C   -0.298494
    16  C   -0.299358
    17  C   -0.474829
    18  H    0.158922
    19  H    0.148018
    20  H    0.149728
    21  H    0.150254
    22  H    0.154627
    23  H    0.148136
    24  H    0.156855
    25  C   -0.298943
    26  C   -0.299963
    27  C   -0.475923
    28  H    0.144711
    29  H    0.145538
    30  H    0.159054
    31  H    0.163564
    32  H    0.151402
    33  H    0.150425
    34  H    0.160189
 Sum of Mulliken charges =  -0.00000

 Dipole moment (field-independent basis, Debye):
    X=              4.4943    Y=              2.6529    Z=             -0.1306  Tot=              5.2205
 Quadrupole moment (field-independent basis, Debye-Ang):
   XX=            -80.0333   YY=            -99.8163   ZZ=            -90.1522
   XY=              1.5626   XZ=             -1.5208   YZ=              2.8968

 Normal termination of Gaussian 16 at Thu May  6 16:04:40 2021.
