 Gaussian 16, Revision A.03,
 Gaussian 16:  EM64L-G16RevA.03 25-Dec-2016

 -------------
 #p 6-31g* mp2
 -------------

 ------------------------------------------------------
 Input file generated by CHIRIPA (05-May-2021 14:57:27)
 ------------------------------------------------------
 Symbolic Z-matrix:
 Charge =  0 Multiplicity = 1

                         Standard orientation:
 ---------------------------------------------------------------------
 Center     Atomic      Atomic             Coordinates (Angstroms)
 Number     Number       Type             X           Y           Z
 ---------------------------------------------------------------------
      1          6           0       -4.132903    1.709652    0.888987
      2          6           0       -3.077475    1.223746    1.667761
      3          6           0       -2.317330    0.133973    1.232881
      4          6           0       -2.641681   -0.448466    0.008605
      5          6           0       -3.687122    0.012666   -0.789956
      6          6           0       -4.433827    1.103630   -0.335228
      7          1           0       -4.718181    2.556677    1.234522
      8          1           0       -2.841504    1.692416    2.618925
      9          1           0       -1.494864   -0.262483    1.815797
     10          1           0       -3.898440   -0.475340   -1.733679
     11          1           0       -5.252921    1.478865   -0.942129
     12          7           0       -1.844064   -1.602790   -0.462289
     13          8           0       -2.150003   -2.098348   -1.544629
     14          8           0       -0.928054   -1.990134    0.259880
     15          6           0        3.007033   -2.046628    0.913233
     16          6           0        3.449309   -0.926763    1.625143
     17          6           0        3.324737    0.355079    1.081166
     18          6           0        2.750526    0.481044   -0.182837
     19          6           0        2.300350   -0.615263   -0.916829
     20          6           0        2.434973   -1.887585   -0.353248
     21          1           0        3.107707   -3.038696    1.343422
     22          1           0        3.893970   -1.047274    2.608910
     23          1           0        3.658728    1.239196    1.610510
     24          1           0        1.861236   -0.463463   -1.895375
     25          1           0        2.090615   -2.755488   -0.908411
     26          7           0        2.613327    1.833033   -0.769099
     27          8           0        2.103946    1.917272   -1.884478
     28          8           0        3.017769    2.782883   -0.102129
 ---------------------------------------------------------------------

 SCF Done:  E(RHF) =  -868.339410634     A.U. after   16 cycles
 E2 =    -0.2599782633D+01 EUMP2 =    -0.87093919326690D+03

 The electronic state is 1-A.
 Alpha  occ. eigenvalues --  -20.61162 -20.61138 -20.60288 -20.60275 -15.86164
 Alpha  occ. eigenvalues --  -15.85323 -11.31280 -11.30422 -11.27829 -11.27816
 Alpha  occ. eigenvalues --  -11.27517 -11.26979 -11.26821 -11.26784 -11.26772
 Alpha  occ. eigenvalues --  -11.26558 -11.25991 -11.25736  -1.60224  -1.59367
 Alpha  occ. eigenvalues --   -1.39781  -1.38926  -1.19429  -1.18534  -1.08875
 Alpha  occ. eigenvalues --   -1.07979  -1.04797  -1.03878  -0.95755  -0.94869
 Alpha  occ. eigenvalues --   -0.86209  -0.85298  -0.82599  -0.81702  -0.77674
 Alpha  occ. eigenvalues --   -0.76793  -0.72416  -0.71556  -0.71522  -0.70689
 Alpha  occ. eigenvalues --   -0.70542  -0.69646  -0.65091  -0.64806  -0.64181
 Alpha  occ. eigenvalues --   -0.63874  -0.62154  -0.61240  -0.55312  -0.54396
 Alpha  occ. eigenvalues --   -0.53133  -0.52893  -0.52236  -0.51969  -0.49187
 Alpha  occ. eigenvalues --   -0.49149  -0.48318  -0.48279  -0.45242  -0.44390
 Alpha  occ. eigenvalues --   -0.37394  -0.36493  -0.36378  -0.35386
 Alpha virt. eigenvalues --    0.04816   0.05726   0.11273   0.12206   0.16362
 Alpha virt. eigenvalues --    0.17346   0.21413   0.22305   0.27325   0.28205
 Alpha virt. eigenvalues --    0.28337   0.29110   0.30985   0.31873   0.32466

 Mulliken charges:
               1
     1  C   -0.169139
     2  C   -0.217438
     3  C   -0.170228
     4  C    0.158405
     5  C   -0.169560
     6  C   -0.217857
     7  H    0.227036
     8  H    0.224286
     9  H    0.274390
    10  H    0.275487
    11  H    0.224545
    12  N    0.488277
    13  O   -0.462012
    14  O   -0.465119
    15  C   -0.171460
    16  C   -0.219754
    17  C   -0.176092
    18  C    0.156078
    19  C   -0.173982
    20  C   -0.197857
    21  H    0.224737
    22  H    0.218904
    23  H    0.270377
    24  H    0.274969
    25  H    0.232218
    26  N    0.487765
    27  O   -0.462066
    28  O   -0.464911
 Sum of Mulliken charges =  -0.00000

 Dipole moment (field-independent basis, Debye):
    X=             -2.6020    Y=             -0.9020    Z=              3.6435  Tot=              4.5672
 Quadrupole moment (field-independent basis, Debye-Ang):
   XX=            -86.3651   YY=           -113.3080   ZZ=            -99.4156
   XY=            -22.5845   XZ=              5.5106   YZ=              3.4750

 Normal termination of Gaussian 16 at Thu May  6 00:27:34 2021.
