 Gaussian 16, Revision A.03,
 Gaussian 16:  EM64L-G16RevA.03 25-Dec-2016

 -------------
 #p 6-31g* mp2
 -------------

 ------------------------------------------------------
 Input file generated by CHIRIPA (05-May-2021 14:57:24)
 ------------------------------------------------------
 Symbolic Z-matrix:
 Charge =  0 Multiplicity = 1

                         Standard orientation:
 ---------------------------------------------------------------------
 Center     Atomic      Atomic             Coordinates (Angstroms)
 Number     Number       Type             X           Y           Z
 ---------------------------------------------------------------------
      1          6           0        2.334658    2.430019    0.114335
      2          6           0        1.744013    1.244371    0.563667
      3          6           0        2.447998    0.037493    0.514716
      4          6           0        3.746615    0.052755    0.008108
      5          6           0        4.362471    1.217559   -0.447134
      6          6           0        3.639701    2.412859   -0.388745
      7          1           0        1.780489    3.363054    0.156027
      8          1           0        0.730650    1.254705    0.954863
      9          1           0        2.014902   -0.894943    0.855903
     10          1           0        5.374230    1.175720   -0.831856
     11          1           0        4.100936    3.332123   -0.738402
     12          7           0        4.501836   -1.218784   -0.048711
     13          8           0        5.644578   -1.178712   -0.499458
     14          8           0        3.936736   -2.231412    0.358578
     15          6           0       -4.769061    1.984758   -0.051353
     16          6           0       -3.416093    1.894515    0.291949
     17          6           0       -2.770351    0.654725    0.314031
     18          6           0       -3.511266   -0.479560   -0.014197
     19          6           0       -4.860395   -0.422209   -0.360391
     20          6           0       -5.485630    0.828148   -0.375855
     21          1           0       -5.262723    2.951960   -0.065937
     22          1           0       -2.857101    2.791081    0.544417
     23          1           0       -1.723930    0.556132    0.576138
     24          1           0       -5.391334   -1.333566   -0.607270
     25          1           0       -6.536467    0.895221   -0.642853
     26          7           0       -2.838503   -1.797662    0.005678
     27          8           0       -3.513447   -2.782097   -0.287536
     28          8           0       -1.648985   -1.821398    0.314094
 ---------------------------------------------------------------------

 SCF Done:  E(RHF) =  -868.336726671     A.U. after   16 cycles
 E2 =    -0.2599807000D+01 EUMP2 =    -0.87093653367059D+03

 The electronic state is 1-A.
 Alpha  occ. eigenvalues --  -20.61298 -20.61271 -20.60448 -20.60417 -15.86346
 Alpha  occ. eigenvalues --  -15.85495 -11.31799 -11.30980 -11.28486 -11.28312
 Alpha  occ. eigenvalues --  -11.28095 -11.27629 -11.27532 -11.27487 -11.27459
 Alpha  occ. eigenvalues --  -11.27337 -11.26745 -11.26676  -1.60351  -1.59511
 Alpha  occ. eigenvalues --   -1.39909  -1.39058  -1.19969  -1.19209  -1.09336
 Alpha  occ. eigenvalues --   -1.08605  -1.05400  -1.04631  -0.96166  -0.95398
 Alpha  occ. eigenvalues --   -0.86790  -0.86044  -0.83009  -0.82228  -0.78060
 Alpha  occ. eigenvalues --   -0.77225  -0.72564  -0.71712  -0.71672  -0.71087
 Alpha  occ. eigenvalues --   -0.70837  -0.70342  -0.65628  -0.65429  -0.64872
 Alpha  occ. eigenvalues --   -0.64685  -0.62784  -0.61938  -0.55873  -0.55200
 Alpha  occ. eigenvalues --   -0.53698  -0.53525  -0.52956  -0.52720  -0.49326
 Alpha  occ. eigenvalues --   -0.49304  -0.48492  -0.48450  -0.45294  -0.44435
 Alpha  occ. eigenvalues --   -0.37926  -0.37241  -0.36997  -0.36227
 Alpha virt. eigenvalues --    0.04513   0.05313   0.10658   0.11386   0.16000
 Alpha virt. eigenvalues --    0.16693   0.18534   0.22027   0.24607   0.27091
 Alpha virt. eigenvalues --    0.28328   0.29208   0.30136   0.31035   0.32528

 Mulliken charges:
               1
     1  C   -0.171335
     2  C   -0.221090
     3  C   -0.169740
     4  C    0.157738
     5  C   -0.170088
     6  C   -0.219030
     7  H    0.220435
     8  H    0.217397
     9  H    0.288030
    10  H    0.275656
    11  H    0.222160
    12  N    0.487787
    13  O   -0.462380
    14  O   -0.455223
    15  C   -0.170325
    16  C   -0.219434
    17  C   -0.175348
    18  C    0.159918
    19  C   -0.169124
    20  C   -0.218289
    21  H    0.227100
    22  H    0.219136
    23  H    0.273441
    24  H    0.278142
    25  H    0.225945
    26  N    0.487925
    27  O   -0.455604
    28  O   -0.463799
 Sum of Mulliken charges =  -0.00000

 Dipole moment (field-independent basis, Debye):
    X=             -5.2010    Y=              8.8728    Z=              0.0784  Tot=             10.2851
 Quadrupole moment (field-independent basis, Debye-Ang):
   XX=           -100.4877   YY=           -107.6941   ZZ=           -105.2794
   XY=              5.5155   XZ=              0.8609   YZ=             -0.4809

 Normal termination of Gaussian 16 at Thu May  6 11:22:06 2021.
