 Gaussian 16, Revision A.03,
 Gaussian 16:  EM64L-G16RevA.03 25-Dec-2016

 -------------
 #p 6-31g* mp2
 -------------

 ------------------------------------------------------
 Input file generated by CHIRIPA (05-May-2021 14:51:12)
 ------------------------------------------------------
 Symbolic Z-matrix:
 Charge =  0 Multiplicity = 1

                         Standard orientation:
 ---------------------------------------------------------------------
 Center     Atomic      Atomic             Coordinates (Angstroms)
 Number     Number       Type             X           Y           Z
 ---------------------------------------------------------------------
      1          6           0       -4.288343    0.519785   -0.242382
      2          6           0       -4.052823    1.879665    0.415829
      3          6           0       -5.250649    2.819565    0.275841
      4          1           0       -4.516544    0.669250   -1.306585
      5          1           0       -5.176497    0.052535    0.205118
      6          1           0       -3.164570    2.343603   -0.031814
      7          1           0       -3.824968    1.726932    1.478547
      8          1           0       -6.140517    2.381173    0.739034
      9          1           0       -5.476366    3.001348   -0.779909
     10          1           0       -5.060705    3.785847    0.753419
     11          6           0       -3.099800   -0.430897   -0.110855
     12          6           0       -3.335320   -1.790777   -0.769065
     13          6           0       -2.137495   -2.730677   -0.629077
     14          1           0       -2.211647    0.036353   -0.558354
     15          1           0       -2.871600   -0.580363    0.953349
     16          1           0       -3.563175   -1.638044   -1.831783
     17          1           0       -4.223573   -2.254715   -0.321422
     18          1           0       -1.911777   -2.912460    0.426673
     19          1           0       -1.247627   -2.292285   -1.092270
     20          1           0       -2.327438   -3.696959   -1.106655
     21          6           0        3.318100   -0.454346    0.700123
     22          6           0        2.007114   -1.045389    0.180535
     23          6           0        1.266465   -1.862736    1.239392
     24          1           0        3.964579   -1.268455    1.055420
     25          1           0        3.106176    0.179738    1.572144
     26          1           0        2.221286   -1.677067   -0.691089
     27          1           0        1.363757   -0.229794   -0.173743
     28          1           0        1.024085   -1.240153    2.106712
     29          1           0        1.886485   -2.695649    1.586426
     30          1           0        0.332179   -2.275921    0.846648
     31          6           0        4.070044    0.365459   -0.346886
     32          6           0        5.381029    0.956501    0.172700
     33          6           0        6.121678    1.773848   -0.886157
     34          1           0        4.281968   -0.268625   -1.218907
     35          1           0        3.423565    1.179567   -0.702183
     36          1           0        6.024386    0.140907    0.526979
     37          1           0        5.166858    1.588179    1.044326
     38          1           0        5.501658    2.606760   -1.233190
     39          1           0        6.364059    1.151265   -1.753476
     40          1           0        7.055965    2.187033   -0.493412
 ---------------------------------------------------------------------

 SCF Done:  E(RHF) =  -470.732707100     A.U. after   11 cycles
 E2 =    -0.1583020295D+01 EUMP2 =    -0.47231572739527D+03

 The electronic state is 1-A.
 Alpha  occ. eigenvalues --  -11.21640 -11.21622 -11.21576 -11.21534 -11.21430
 Alpha  occ. eigenvalues --  -11.21370 -11.21362 -11.21300 -11.21118 -11.21088
 Alpha  occ. eigenvalues --  -11.21053 -11.20851  -1.08461  -1.08378  -1.03580
 Alpha  occ. eigenvalues --   -1.03454  -0.96053  -0.95881  -0.87093  -0.86880
 Alpha  occ. eigenvalues --   -0.79663  -0.79510  -0.78272  -0.78197  -0.65088
 Alpha  occ. eigenvalues --   -0.65010  -0.60962  -0.60863  -0.59525  -0.59232
 Alpha  occ. eigenvalues --   -0.57828  -0.57327  -0.55308  -0.55194  -0.52936
 Alpha  occ. eigenvalues --   -0.52706  -0.52423  -0.52025  -0.49961  -0.49852
 Alpha  occ. eigenvalues --   -0.48055  -0.47691  -0.46667  -0.46568  -0.45802
 Alpha  occ. eigenvalues --   -0.45766  -0.45712  -0.45653  -0.43817  -0.43670
 Alpha virt. eigenvalues --    0.21774   0.23100   0.23495   0.25072   0.26008
 Alpha virt. eigenvalues --    0.26679   0.26755   0.27566   0.27871   0.29111
 Alpha virt. eigenvalues --    0.30457   0.31349   0.31465   0.31834   0.32247

 Mulliken charges:
               1
     1  C   -0.298271
     2  C   -0.299639
     3  C   -0.475727
     4  H    0.149711
     5  H    0.149646
     6  H    0.151775
     7  H    0.152023
     8  H    0.155255
     9  H    0.155219
    10  H    0.160274
    11  C   -0.298879
    12  C   -0.299511
    13  C   -0.481180
    14  H    0.149698
    15  H    0.150217
    16  H    0.152097
    17  H    0.152113
    18  H    0.158055
    19  H    0.158491
    20  H    0.160958
    21  C   -0.298240
    22  C   -0.299242
    23  C   -0.485116
    24  H    0.149646
    25  H    0.149489
    26  H    0.151216
    27  H    0.151048
    28  H    0.153703
    29  H    0.153865
    30  H    0.171936
    31  C   -0.298190
    32  C   -0.299597
    33  C   -0.475665
    34  H    0.149341
    35  H    0.149312
    36  H    0.151928
    37  H    0.151892
    38  H    0.155059
    39  H    0.155114
    40  H    0.160174
 Sum of Mulliken charges =  -0.00000

 Dipole moment (field-independent basis, Debye):
    X=             -0.0674    Y=             -0.0248    Z=             -0.0160  Tot=              0.0736
 Quadrupole moment (field-independent basis, Debye-Ang):
   XX=            -85.4876   YY=            -84.8971   ZZ=            -84.3908
   XY=             -0.0015   XZ=             -0.1159   YZ=              0.3944

 Normal termination of Gaussian 16 at Thu May  6 07:04:18 2021.
