 Gaussian 16, Revision A.03,
 Gaussian 16:  EM64L-G16RevA.03 25-Dec-2016

 -------------
 #p 6-31g* mp2
 -------------

 ------------------------------------------------------
 Input file generated by CHIRIPA (05-May-2021 14:55:22)
 ------------------------------------------------------
 Symbolic Z-matrix:
 Charge =  0 Multiplicity = 1

                         Standard orientation:
 ---------------------------------------------------------------------
 Center     Atomic      Atomic             Coordinates (Angstroms)
 Number     Number       Type             X           Y           Z
 ---------------------------------------------------------------------
      1          6           0        1.552024   -2.098441    1.111893
      2          6           0        2.906735   -1.915844    1.408436
      3          6           0        3.630078   -0.877726    0.813764
      4          6           0        2.964141   -0.037093   -0.076829
      5          6           0        1.615367   -0.193239   -0.392608
      6          6           0        0.911793   -1.238073    0.213901
      7          1           0        0.997793   -2.907485    1.578446
      8          1           0        3.406542   -2.582484    2.105450
      9          1           0        4.679694   -0.713616    1.025403
     10          1           0        1.144478    0.487454   -1.091421
     11          1           0       -0.140205   -1.377496   -0.018278
     12          7           0        3.719448    1.065471   -0.712647
     13          8           0        3.109671    1.792432   -1.493888
     14          8           0        4.906932    1.181822   -0.417721
     15          6           0       -3.291782    0.961804   -0.068090
     16          6           0       -3.818967    1.955490    0.967597
     17          6           0       -3.123050    3.314733    0.890464
     18          1           0       -2.210634    0.830514    0.076226
     19          1           0       -3.423744    1.385828   -1.073170
     20          1           0       -3.687316    1.529130    1.970343
     21          1           0       -4.899020    2.084285    0.820919
     22          1           0       -3.265245    3.764826   -0.097361
     23          1           0       -2.046656    3.206517    1.058594
     24          1           0       -3.515254    4.009646    1.639553
     25          6           0       -3.977742   -0.401652   -0.003491
     26          6           0       -3.450556   -1.395339   -1.039179
     27          6           0       -4.146474   -2.754582   -0.962047
     28          1           0       -3.845779   -0.825676    1.001588
     29          1           0       -5.058889   -0.270362   -0.147809
     30          1           0       -2.370503   -1.524133   -0.892502
     31          1           0       -3.582208   -0.968979   -2.041925
     32          1           0       -5.222868   -2.646365   -1.130177
     33          1           0       -4.004278   -3.204674    0.025778
     34          1           0       -3.754270   -3.449494   -1.711135
 ---------------------------------------------------------------------

 SCF Done:  E(RHF) =  -669.535526043     A.U. after   15 cycles
 E2 =    -0.2091469672D+01 EUMP2 =    -0.67162699571544D+03

 The electronic state is 1-A.
 Alpha  occ. eigenvalues --  -20.60751 -20.60746 -15.85805 -11.31177 -11.27753
 Alpha  occ. eigenvalues --  -11.27742 -11.27496 -11.26768 -11.26744 -11.22554
 Alpha  occ. eigenvalues --  -11.22133 -11.22067 -11.22009 -11.21857 -11.21338
 Alpha  occ. eigenvalues --   -1.59827  -1.39380  -1.19352  -1.09125  -1.08746
 Alpha  occ. eigenvalues --   -1.04757  -1.04160  -0.96581  -0.95579  -0.87597
 Alpha  occ. eigenvalues --   -0.86157  -0.82414  -0.80250  -0.78928  -0.77455
 Alpha  occ. eigenvalues --   -0.72023  -0.71150  -0.70461  -0.65819  -0.65004
 Alpha  occ. eigenvalues --   -0.64740  -0.62129  -0.61537  -0.59966  -0.58193
 Alpha  occ. eigenvalues --   -0.55864  -0.55262  -0.53276  -0.53089  -0.53001
 Alpha  occ. eigenvalues --   -0.52854  -0.50528  -0.48793  -0.48777  -0.48533
 Alpha  occ. eigenvalues --   -0.47295  -0.46452  -0.46366  -0.44784  -0.44421
 Alpha  occ. eigenvalues --   -0.37335  -0.36359
 Alpha virt. eigenvalues --    0.05068   0.11285   0.16512   0.18781   0.22852
 Alpha virt. eigenvalues --    0.23632   0.24648   0.26451   0.27432   0.28053
 Alpha virt. eigenvalues --    0.29545   0.30028   0.31221   0.31298   0.32003

 Mulliken charges:
               1
     1  C   -0.173414
     2  C   -0.218484
     3  C   -0.171031
     4  C    0.158831
     5  C   -0.174834
     6  C   -0.228515
     7  H    0.226178
     8  H    0.223376
     9  H    0.275610
    10  H    0.276558
    11  H    0.237958
    12  N    0.488102
    13  O   -0.460204
    14  O   -0.460624
    15  C   -0.299164
    16  C   -0.300044
    17  C   -0.476551
    18  H    0.143208
    19  H    0.152895
    20  H    0.151827
    21  H    0.153561
    22  H    0.157196
    23  H    0.157051
    24  H    0.162106
    25  C   -0.298514
    26  C   -0.305611
    27  C   -0.475614
    28  H    0.148397
    29  H    0.153833
    30  H    0.143468
    31  H    0.157374
    32  H    0.159460
    33  H    0.153639
    34  H    0.161977
 Sum of Mulliken charges =  -0.00000

 Dipole moment (field-independent basis, Debye):
    X=             -2.8450    Y=             -3.8180    Z=              2.2256  Tot=              5.2559
 Quadrupole moment (field-independent basis, Debye-Ang):
   XX=           -106.1195   YY=            -95.4143   ZZ=            -93.9855
   XY=            -13.5860   XZ=              9.8865   YZ=             -0.8877

 Normal termination of Gaussian 16 at Thu May  6 14:13:23 2021.
