 Gaussian 16, Revision A.03,
 Gaussian 16:  EM64L-G16RevA.03 25-Dec-2016

 -------------
 #p 6-31g* mp2
 -------------

 ------------------------------------------------------
 Input file generated by CHIRIPA (05-May-2021 14:57:25)
 ------------------------------------------------------
 Symbolic Z-matrix:
 Charge =  0 Multiplicity = 1

                         Standard orientation:
 ---------------------------------------------------------------------
 Center     Atomic      Atomic             Coordinates (Angstroms)
 Number     Number       Type             X           Y           Z
 ---------------------------------------------------------------------
      1          6           0       -4.982387   -1.203625   -1.234975
      2          6           0       -4.869075    0.162087   -1.515174
      3          6           0       -4.000860    0.969285   -0.774104
      4          6           0       -3.257633    0.375073    0.244629
      5          6           0       -3.348421   -0.982527    0.547890
      6          6           0       -4.223037   -1.770574   -0.206151
      7          1           0       -5.659323   -1.823237   -1.815694
      8          1           0       -5.457562    0.605102   -2.313588
      9          1           0       -3.893631    2.029302   -0.969766
     10          1           0       -2.748795   -1.395546    1.349938
     11          1           0       -4.308992   -2.830918    0.013683
     12          7           0       -2.335105    1.219480    1.036032
     13          8           0       -1.691290    0.671833    1.928345
     14          8           0       -2.273311    2.412984    0.749036
     15          6           0        5.691178    0.699353   -0.648955
     16          6           0        5.569307   -0.590952   -0.122854
     17          6           0        4.310226   -1.119378    0.177191
     18          6           0        3.189110   -0.326322   -0.062498
     19          6           0        3.277884    0.962706   -0.585771
     20          6           0        4.547095    1.470704   -0.878330
     21          1           0        6.673197    1.101913   -0.879130
     22          1           0        6.456082   -1.192261    0.056315
     23          1           0        4.187070   -2.115231    0.585270
     24          1           0        2.375618    1.538205   -0.753502
     25          1           0        4.638722    2.473092   -1.286825
     26          7           0        1.850816   -0.874931    0.251185
     27          8           0        0.878548   -0.156055    0.030839
     28          8           0        1.799468   -2.013418    0.711454
 ---------------------------------------------------------------------

 SCF Done:  E(RHF) =  -868.337838419     A.U. after   16 cycles
 E2 =    -0.2599803353D+01 EUMP2 =    -0.87093764177186D+03

 The electronic state is 1-A.
 Alpha  occ. eigenvalues --  -20.60317 -20.60237 -20.59569 -20.59436 -15.85327
 Alpha  occ. eigenvalues --  -15.84555 -11.30744 -11.30064 -11.27350 -11.27286
 Alpha  occ. eigenvalues --  -11.27104 -11.26733 -11.26600 -11.26514 -11.26382
 Alpha  occ. eigenvalues --  -11.26342 -11.25801 -11.25716  -1.59340  -1.58551
 Alpha  occ. eigenvalues --   -1.38895  -1.38107  -1.18928  -1.18270  -1.08319
 Alpha  occ. eigenvalues --   -1.07649  -1.04341  -1.03710  -0.95145  -0.94460
 Alpha  occ. eigenvalues --   -0.85738  -0.85103  -0.81981  -0.81303  -0.77009
 Alpha  occ. eigenvalues --   -0.76304  -0.71609  -0.70820  -0.70643  -0.70051
 Alpha  occ. eigenvalues --   -0.69776  -0.69415  -0.64585  -0.64352  -0.63940
 Alpha  occ. eigenvalues --   -0.63742  -0.61684  -0.61057  -0.54857  -0.54251
 Alpha  occ. eigenvalues --   -0.52668  -0.52437  -0.52019  -0.51821  -0.48340
 Alpha  occ. eigenvalues --   -0.48307  -0.47581  -0.47526  -0.44335  -0.43387
 Alpha  occ. eigenvalues --   -0.36921  -0.36272  -0.35946  -0.35313
 Alpha virt. eigenvalues --    0.05522   0.06289   0.11707   0.12341   0.17002
 Alpha virt. eigenvalues --    0.17710   0.21816   0.22353   0.27724   0.28248
 Alpha virt. eigenvalues --    0.28727   0.29290   0.31355   0.31852   0.33002

 Mulliken charges:
               1
     1  C   -0.171756
     2  C   -0.219322
     3  C   -0.172066
     4  C    0.162429
     5  C   -0.164112
     6  C   -0.219517
     7  H    0.221390
     8  H    0.218685
     9  H    0.271629
    10  H    0.280984
    11  H    0.221414
    12  N    0.491793
    13  O   -0.450565
    14  O   -0.470974
    15  C   -0.171089
    16  C   -0.218787
    17  C   -0.171214
    18  C    0.158895
    19  C   -0.170091
    20  C   -0.218863
    21  H    0.224178
    22  H    0.221733
    23  H    0.274086
    24  H    0.279587
    25  H    0.223265
    26  N    0.489536
    27  O   -0.455826
    28  O   -0.465419
 Sum of Mulliken charges =  -0.00000

 Dipole moment (field-independent basis, Debye):
    X=              1.6369    Y=             -1.0723    Z=             -3.7294  Tot=              4.2117
 Quadrupole moment (field-independent basis, Debye-Ang):
   XX=            -55.4979   YY=           -102.4147   ZZ=           -105.5411
   XY=             10.5171   XZ=              5.7376   YZ=             -5.7190

 Normal termination of Gaussian 16 at Fri May  7 00:27:20 2021.
