 Gaussian 16, Revision A.03,
 Gaussian 16:  EM64L-G16RevA.03 25-Dec-2016

 -------------
 #p 6-31g* mp2
 -------------

 ------------------------------------------------------
 Input file generated by CHIRIPA (05-May-2021 14:53:11)
 ------------------------------------------------------
 Symbolic Z-matrix:
 Charge =  0 Multiplicity = 1

                         Standard orientation:
 ---------------------------------------------------------------------
 Center     Atomic      Atomic             Coordinates (Angstroms)
 Number     Number       Type             X           Y           Z
 ---------------------------------------------------------------------
      1          6           0       -4.322757   -0.506815    0.011661
      2          6           0       -5.489560    0.341615    0.518338
      3          6           0       -6.634204   -0.502437    1.079731
      4          1           0       -4.687351   -1.194712   -0.763461
      5          1           0       -3.949101   -1.132400    0.834108
      6          1           0       -5.860010    0.966426   -0.304459
      7          1           0       -5.122109    1.027706    1.292208
      8          1           0       -6.286189   -1.114738    1.917928
      9          1           0       -7.028284   -1.176366    0.312189
     10          1           0       -7.457676    0.124178    1.436251
     11          6           0       -3.170706    0.322714   -0.552598
     12          6           0       -2.003903   -0.525716   -1.059275
     13          6           0       -0.859260    0.318336   -1.620668
     14          1           0       -3.544362    0.948299   -1.375045
     15          1           0       -2.806113    1.010612    0.222524
     16          1           0       -2.371355   -1.211806   -1.833145
     17          1           0       -1.633453   -1.150526   -0.236478
     18          1           0       -0.465180    0.992266   -0.853126
     19          1           0       -1.207274    0.930638   -2.458865
     20          1           0       -0.035787   -0.308279   -1.977187
     21          6           0        2.379623    2.534231    0.267420
     22          6           0        2.410446    1.851627   -0.953081
     23          6           0        2.712614    0.487300   -0.996114
     24          6           0        2.980066   -0.166134    0.205878
     25          6           0        2.957170    0.486212    1.437629
     26          6           0        2.652601    1.850551    1.456783
     27          1           0        2.143959    3.594078    0.291575
     28          1           0        2.198865    2.380017   -1.878328
     29          1           0        2.743370   -0.065636   -1.927100
     30          1           0        3.172492   -0.067543    2.343394
     31          1           0        2.629386    2.378104    2.406096
     32          7           0        3.301228   -1.610492    0.172961
     33          8           0        3.533131   -2.163346    1.245906
     34          8           0        3.314970   -2.162377   -0.925161
 ---------------------------------------------------------------------

 SCF Done:  E(RHF) =  -669.534465722     A.U. after   15 cycles
 E2 =    -0.2092664121D+01 EUMP2 =    -0.67162712984280D+03

 The electronic state is 1-A.
 Alpha  occ. eigenvalues --  -20.60784 -20.60779 -15.85836 -11.31189 -11.27760
 Alpha  occ. eigenvalues --  -11.27740 -11.27506 -11.26787 -11.26740 -11.21697
 Alpha  occ. eigenvalues --  -11.21648 -11.21509 -11.21430 -11.21191 -11.21133
 Alpha  occ. eigenvalues --   -1.59859  -1.39413  -1.19373  -1.08769  -1.08519
 Alpha  occ. eigenvalues --   -1.04780  -1.03617  -0.96091  -0.95601  -0.87116
 Alpha  occ. eigenvalues --   -0.86172  -0.82433  -0.79693  -0.78332  -0.77478
 Alpha  occ. eigenvalues --   -0.72055  -0.71182  -0.70485  -0.65151  -0.65022
 Alpha  occ. eigenvalues --   -0.64777  -0.62129  -0.61029  -0.59458  -0.57691
 Alpha  occ. eigenvalues --   -0.55448  -0.55276  -0.53341  -0.52897  -0.52581
 Alpha  occ. eigenvalues --   -0.52436  -0.49983  -0.48812  -0.48811  -0.48005
 Alpha  occ. eigenvalues --   -0.46705  -0.45876  -0.45797  -0.44821  -0.43893
 Alpha  occ. eigenvalues --   -0.37352  -0.36262
 Alpha virt. eigenvalues --    0.05046   0.11196   0.16508   0.21206   0.22780
 Alpha virt. eigenvalues --    0.24160   0.26535   0.26638   0.27348   0.28001
 Alpha virt. eigenvalues --    0.28442   0.30283   0.31250   0.31513   0.31929

 Mulliken charges:
               1
     1  C   -0.298518
     2  C   -0.299495
     3  C   -0.475776
     4  H    0.150751
     5  H    0.150910
     6  H    0.151324
     7  H    0.150697
     8  H    0.155844
     9  H    0.155836
    10  H    0.159935
    11  C   -0.298270
    12  C   -0.299345
    13  C   -0.480114
    14  H    0.148146
    15  H    0.147389
    16  H    0.153509
    17  H    0.154960
    18  H    0.157955
    19  H    0.150131
    20  H    0.160177
    21  C   -0.172643
    22  C   -0.215588
    23  C   -0.166722
    24  C    0.158106
    25  C   -0.171642
    26  C   -0.218684
    27  H    0.225758
    28  H    0.224451
    29  H    0.275145
    30  H    0.275461
    31  H    0.223359
    32  N    0.488213
    33  O   -0.460401
    34  O   -0.460858
 Sum of Mulliken charges =  -0.00000

 Dipole moment (field-independent basis, Debye):
    X=             -1.1054    Y=              5.0686    Z=              0.1259  Tot=              5.1893
 Quadrupole moment (field-independent basis, Debye-Ang):
   XX=           -103.0200   YY=            -97.3273   ZZ=            -89.1836
   XY=             15.2858   XZ=              1.3753   YZ=              1.2885

 Normal termination of Gaussian 16 at Thu May  6 00:53:23 2021.
