 Gaussian 16, Revision A.03,
 Gaussian 16:  EM64L-G16RevA.03 25-Dec-2016

 -------------
 #p 6-31g* mp2
 -------------

 ------------------------------------------------------
 Input file generated by CHIRIPA (05-May-2021 14:55:25)
 ------------------------------------------------------
 Symbolic Z-matrix:
 Charge =  0 Multiplicity = 1

                         Standard orientation:
 ---------------------------------------------------------------------
 Center     Atomic      Atomic             Coordinates (Angstroms)
 Number     Number       Type             X           Y           Z
 ---------------------------------------------------------------------
      1          6           0       -1.805511    1.477980    0.244600
      2          6           0       -2.288976    0.765521    1.346955
      3          6           0       -3.413549   -0.055887    1.223783
      4          6           0       -4.032899   -0.141862   -0.022132
      5          6           0       -3.575181    0.555447   -1.139067
      6          6           0       -2.449022    1.370857   -0.992711
      7          1           0       -0.931300    2.113740    0.349288
      8          1           0       -1.791233    0.846794    2.309084
      9          1           0       -3.808983   -0.618505    2.060749
     10          1           0       -4.092598    0.454205   -2.085348
     11          1           0       -2.075774    1.923003   -1.850537
     12          7           0       -5.224273   -1.008276   -0.164800
     13          8           0       -5.751987   -1.066944   -1.273274
     14          8           0       -5.607800   -1.612297    0.834551
     15          6           0        5.645370    0.015240   -0.210426
     16          6           0        6.385061   -1.293068    0.070948
     17          6           0        7.853596   -1.244633   -0.351963
     18          1           0        5.712205    0.243479   -1.282987
     19          1           0        6.152612    0.835642    0.315922
     20          1           0        5.875763   -2.110974   -0.454657
     21          1           0        6.316294   -1.518317    1.142933
     22          1           0        8.382136   -0.448178    0.181802
     23          1           0        7.939103   -1.044202   -1.424864
     24          1           0        8.363299   -2.190087   -0.141777
     25          6           0        4.176188   -0.017629    0.206889
     26          6           0        3.436496    1.290679   -0.074485
     27          6           0        1.967962    1.242244    0.348427
     28          1           0        3.668945   -0.838030   -0.319458
     29          1           0        4.109352   -0.245868    1.279449
     30          1           0        3.505264    1.515929   -1.146470
     31          1           0        3.945794    2.108585    0.451120
     32          1           0        1.882455    1.041813    1.421327
     33          1           0        1.439422    0.445789   -0.185339
     34          1           0        1.458259    2.187699    0.138240
 ---------------------------------------------------------------------

 SCF Done:  E(RHF) =  -669.535356131     A.U. after   15 cycles
 E2 =    -0.2091079882D+01 EUMP2 =    -0.67162643601355D+03

 The electronic state is 1-A.
 Alpha  occ. eigenvalues --  -20.60702 -20.60697 -15.85756 -11.31098 -11.27677
 Alpha  occ. eigenvalues --  -11.27671 -11.27343 -11.26670 -11.26658 -11.22449
 Alpha  occ. eigenvalues --  -11.22247 -11.22039 -11.22016 -11.21885 -11.21416
 Alpha  occ. eigenvalues --   -1.59779  -1.39333  -1.19271  -1.09057  -1.08661
 Alpha  occ. eigenvalues --   -1.04674  -1.04204  -0.96687  -0.95497  -0.87714
 Alpha  occ. eigenvalues --   -0.86067  -0.82340  -0.80280  -0.78825  -0.77393
 Alpha  occ. eigenvalues --   -0.71974  -0.71103  -0.70375  -0.65678  -0.64918
 Alpha  occ. eigenvalues --   -0.64679  -0.62025  -0.61589  -0.60121  -0.58266
 Alpha  occ. eigenvalues --   -0.55958  -0.55240  -0.53329  -0.53125  -0.52934
 Alpha  occ. eigenvalues --   -0.52763  -0.50601  -0.48731  -0.48730  -0.48586
 Alpha  occ. eigenvalues --   -0.47280  -0.46380  -0.46273  -0.44744  -0.44447
 Alpha  occ. eigenvalues --   -0.37218  -0.36287
 Alpha virt. eigenvalues --    0.05132   0.11365   0.16592   0.20568   0.22382
 Alpha virt. eigenvalues --    0.23811   0.26024   0.26199   0.26774   0.27350
 Alpha virt. eigenvalues --    0.28442   0.30076   0.30819   0.31418   0.32398

 Mulliken charges:
               1
     1  C   -0.170576
     2  C   -0.221243
     3  C   -0.170931
     4  C    0.158101
     5  C   -0.170905
     6  C   -0.221511
     7  H    0.233148
     8  H    0.223374
     9  H    0.275190
    10  H    0.275161
    11  H    0.222953
    12  N    0.488078
    13  O   -0.460795
    14  O   -0.460739
    15  C   -0.298834
    16  C   -0.300144
    17  C   -0.476041
    18  H    0.150435
    19  H    0.150108
    20  H    0.152982
    21  H    0.152449
    22  H    0.155487
    23  H    0.155698
    24  H    0.161696
    25  C   -0.299461
    26  C   -0.299425
    27  C   -0.480937
    28  H    0.151436
    29  H    0.150332
    30  H    0.153642
    31  H    0.153718
    32  H    0.155429
    33  H    0.161624
    34  H    0.150504
 Sum of Mulliken charges =  -0.00000

 Dipole moment (field-independent basis, Debye):
    X=              4.4327    Y=              3.0034    Z=              0.4952  Tot=              5.3772
 Quadrupole moment (field-independent basis, Debye-Ang):
   XX=           -129.9176   YY=            -96.0884   ZZ=            -89.3577
   XY=            -12.9898   XZ=             -1.3015   YZ=             -1.2645

 Normal termination of Gaussian 16 at Wed May  5 22:25:47 2021.
