 Gaussian 16, Revision A.03,
 Gaussian 16:  EM64L-G16RevA.03 25-Dec-2016

 -------------
 #p 6-31g* mp2
 -------------

 ------------------------------------------------------
 Input file generated by CHIRIPA (05-May-2021 14:53:11)
 ------------------------------------------------------
 Symbolic Z-matrix:
 Charge =  0 Multiplicity = 1

                         Standard orientation:
 ---------------------------------------------------------------------
 Center     Atomic      Atomic             Coordinates (Angstroms)
 Number     Number       Type             X           Y           Z
 ---------------------------------------------------------------------
      1          6           0        3.941822   -0.654032   -0.208634
      2          6           0        5.139192   -1.427478    0.344604
      3          6           0        4.946879   -2.942777    0.276220
      4          1           0        3.040248   -0.936328    0.352096
      5          1           0        3.768999   -0.955971   -1.250920
      6          1           0        5.310562   -1.123154    1.385102
      7          1           0        6.038055   -1.143165   -0.217382
      8          1           0        4.798263   -3.265903   -0.759205
      9          1           0        4.066637   -3.245779    0.852384
     10          1           0        5.814621   -3.476076    0.676816
     11          6           0        4.119084    0.862055   -0.147093
     12          6           0        2.921714    1.635500   -0.700331
     13          6           0        3.114028    3.150800   -0.631947
     14          1           0        4.291908    1.163994    0.895193
     15          1           0        5.020658    1.144351   -0.707823
     16          1           0        2.022852    1.351187   -0.138345
     17          1           0        2.750345    1.331176   -1.740829
     18          1           0        3.994270    3.453802   -1.208111
     19          1           0        3.262643    3.473926    0.403478
     20          1           0        2.246286    3.684098   -1.032542
     21          6           0       -0.919119    0.832548    0.886912
     22          6           0       -1.003837   -0.458588    0.355584
     23          6           0       -2.233976   -0.975197   -0.062057
     24          6           0       -3.364348   -0.169603    0.066646
     25          6           0       -3.312315    1.120588    0.591993
     26          6           0       -2.071596    1.616634    1.003217
     27          1           0        0.040592    1.225875    1.208853
     28          1           0       -0.110461   -1.069776    0.264074
     29          1           0       -2.328128   -1.971399   -0.476948
     30          1           0       -4.220292    1.706079    0.670715
     31          1           0       -2.008797    2.619698    1.415481
     32          7           0       -4.672241   -0.705628   -0.372094
     33          8           0       -5.653398    0.024171   -0.248154
     34          8           0       -4.691445   -1.845413   -0.831612
 ---------------------------------------------------------------------

 SCF Done:  E(RHF) =  -669.535399791     A.U. after   15 cycles
 E2 =    -0.2091571919D+01 EUMP2 =    -0.67162697170906D+03

 The electronic state is 1-A.
 Alpha  occ. eigenvalues --  -20.60744 -20.60739 -15.85798 -11.31165 -11.27731
 Alpha  occ. eigenvalues --  -11.27726 -11.27458 -11.26748 -11.26736 -11.22653
 Alpha  occ. eigenvalues --  -11.22380 -11.22327 -11.22281 -11.21978 -11.21726
 Alpha  occ. eigenvalues --   -1.59820  -1.39373  -1.19336  -1.09348  -1.08731
 Alpha  occ. eigenvalues --   -1.04737  -1.04393  -0.96825  -0.95568  -0.87839
 Alpha  occ. eigenvalues --   -0.86135  -0.82402  -0.80464  -0.79169  -0.77443
 Alpha  occ. eigenvalues --   -0.72016  -0.71143  -0.70474  -0.65993  -0.64987
 Alpha  occ. eigenvalues --   -0.64733  -0.62084  -0.61800  -0.60197  -0.58439
 Alpha  occ. eigenvalues --   -0.56125  -0.55248  -0.53500  -0.53244  -0.53065
 Alpha  occ. eigenvalues --   -0.52827  -0.50767  -0.48794  -0.48771  -0.48742
 Alpha  occ. eigenvalues --   -0.47501  -0.46707  -0.46613  -0.44778  -0.44655
 Alpha  occ. eigenvalues --   -0.37303  -0.36340
 Alpha virt. eigenvalues --    0.05067   0.11289   0.16489   0.18816   0.22762
 Alpha virt. eigenvalues --    0.23145   0.24793   0.26125   0.26783   0.27802
 Alpha virt. eigenvalues --    0.29220   0.30459   0.30919   0.31128   0.31791

 Mulliken charges:
               1
     1  C   -0.298370
     2  C   -0.300208
     3  C   -0.476208
     4  H    0.140884
     5  H    0.152353
     6  H    0.152901
     7  H    0.154861
     8  H    0.156629
     9  H    0.153665
    10  H    0.163327
    11  C   -0.298814
    12  C   -0.303094
    13  C   -0.476925
    14  H    0.149576
    15  H    0.154134
    16  H    0.142002
    17  H    0.157108
    18  H    0.159931
    19  H    0.154065
    20  H    0.161901
    21  C   -0.172192
    22  C   -0.220782
    23  C   -0.171294
    24  C    0.158656
    25  C   -0.171058
    26  C   -0.219238
    27  H    0.228558
    28  H    0.225735
    29  H    0.275740
    30  H    0.275500
    31  H    0.223540
    32  N    0.488046
    33  O   -0.460492
    34  O   -0.460439
 Sum of Mulliken charges =  -0.00000

 Dipole moment (field-independent basis, Debye):
    X=              4.8259    Y=              1.9059    Z=              1.4672  Tot=              5.3921
 Quadrupole moment (field-independent basis, Debye-Ang):
   XX=           -124.1229   YY=            -92.8762   ZZ=            -94.0513
   XY=             -9.3578   XZ=             -6.2630   YZ=              1.1561

 Normal termination of Gaussian 16 at Wed May  5 20:04:15 2021.
