 Gaussian 16, Revision A.03,
 Gaussian 16:  EM64L-G16RevA.03 25-Dec-2016

 -------------
 #p 6-31g* mp2
 -------------

 ------------------------------------------------------
 Input file generated by CHIRIPA (05-May-2021 14:53:15)
 ------------------------------------------------------
 Symbolic Z-matrix:
 Charge =  0 Multiplicity = 1

                         Standard orientation:
 ---------------------------------------------------------------------
 Center     Atomic      Atomic             Coordinates (Angstroms)
 Number     Number       Type             X           Y           Z
 ---------------------------------------------------------------------
      1          6           0        2.414880    1.639736   -0.268967
      2          6           0        0.903578    1.833250   -0.140501
      3          6           0        0.465302    3.270197   -0.424913
      4          1           0        2.925807    2.324029    0.422149
      5          1           0        2.729399    1.926280   -1.282064
      6          1           0        0.591799    1.545113    0.871619
      7          1           0        0.396183    1.148281   -0.831865
      8          1           0        0.748178    3.565369   -1.440519
      9          1           0        0.944905    3.964455    0.272645
     10          1           0       -0.618642    3.386062   -0.327433
     11          6           0        2.868442    0.208357    0.012393
     12          6           0        4.379744    0.014844   -0.116074
     13          6           0        4.818021   -1.422104    0.168339
     14          1           0        2.553923   -0.078187    1.025489
     15          1           0        2.357515   -0.475936   -0.678724
     16          1           0        4.887139    0.699812    0.575291
     17          1           0        4.691524    0.302981   -1.128194
     18          1           0        4.338417   -2.116362   -0.529219
     19          1           0        4.535144   -1.717276    1.183944
     20          1           0        5.901964   -1.537969    0.070858
     21          6           0       -3.767358    1.135749    0.213831
     22          6           0       -2.841602    0.970642    1.249319
     23          6           0       -1.893195   -0.055189    1.196945
     24          6           0       -1.899104   -0.901503    0.089241
     25          6           0       -2.808419   -0.762691   -0.958216
     26          6           0       -3.747846    0.270081   -0.884696
     27          1           0       -4.500615    1.935335    0.262729
     28          1           0       -2.854411    1.641434    2.103672
     29          1           0       -1.165001   -0.205676    1.984667
     30          1           0       -2.770946   -1.447131   -1.796999
     31          1           0       -4.465594    0.395929   -1.690330
     32          7           0       -0.899821   -1.991179    0.022602
     33          8           0       -0.925884   -2.723476   -0.964159
     34          8           0       -0.109442   -2.092336    0.958393
 ---------------------------------------------------------------------

 SCF Done:  E(RHF) =  -669.535046207     A.U. after   15 cycles
 E2 =    -0.2094189672D+01 EUMP2 =    -0.67162923587895D+03

 The electronic state is 1-A.
 Alpha  occ. eigenvalues --  -20.60848 -20.60813 -15.85869 -11.31194 -11.27805
 Alpha  occ. eigenvalues --  -11.27794 -11.27554 -11.26805 -11.26791 -11.21485
 Alpha  occ. eigenvalues --  -11.21119 -11.21015 -11.20951 -11.20624 -11.20261
 Alpha  occ. eigenvalues --   -1.59896  -1.39451  -1.19403  -1.08797  -1.07979
 Alpha  occ. eigenvalues --   -1.04809  -1.03121  -0.95636  -0.95552  -0.86580
 Alpha  occ. eigenvalues --   -0.86199  -0.82469  -0.79246  -0.77753  -0.77484
 Alpha  occ. eigenvalues --   -0.72092  -0.71207  -0.70520  -0.65057  -0.64828
 Alpha  occ. eigenvalues --   -0.64604  -0.62163  -0.60527  -0.59002  -0.57174
 Alpha  occ. eigenvalues --   -0.55312  -0.54836  -0.53121  -0.52903  -0.52280
 Alpha  occ. eigenvalues --   -0.51956  -0.49495  -0.48854  -0.48848  -0.47524
 Alpha  occ. eigenvalues --   -0.46292  -0.45433  -0.45163  -0.44664  -0.43349
 Alpha  occ. eigenvalues --   -0.37342  -0.36341
 Alpha virt. eigenvalues --    0.04989   0.11222   0.16456   0.21046   0.23169
 Alpha virt. eigenvalues --    0.24685   0.26026   0.27109   0.27597   0.28334
 Alpha virt. eigenvalues --    0.28921   0.31121   0.31537   0.31829   0.32180

 Mulliken charges:
               1
     1  C   -0.298429
     2  C   -0.297254
     3  C   -0.476179
     4  H    0.146861
     5  H    0.148192
     6  H    0.145916
     7  H    0.151434
     8  H    0.155838
     9  H    0.153686
    10  H    0.155384
    11  C   -0.299405
    12  C   -0.300004
    13  C   -0.475224
    14  H    0.155787
    15  H    0.156052
    16  H    0.148104
    17  H    0.149186
    18  H    0.160731
    19  H    0.157796
    20  H    0.156112
    21  C   -0.170959
    22  C   -0.218665
    23  C   -0.165583
    24  C    0.159876
    25  C   -0.172338
    26  C   -0.218447
    27  H    0.225944
    28  H    0.223744
    29  H    0.274928
    30  H    0.275638
    31  H    0.223536
    32  N    0.488284
    33  O   -0.461096
    34  O   -0.459445
 Sum of Mulliken charges =  -0.00000

 Dipole moment (field-independent basis, Debye):
    X=             -3.5874    Y=              3.6577    Z=              0.2625  Tot=              5.1300
 Quadrupole moment (field-independent basis, Debye-Ang):
   XX=            -81.8191   YY=           -103.2734   ZZ=            -90.0452
   XY=             -3.5030   XZ=              1.2013   YZ=              2.0283

 Normal termination of Gaussian 16 at Thu May  6 15:30:18 2021.
