 Gaussian 16, Revision A.03,
 Gaussian 16:  EM64L-G16RevA.03 25-Dec-2016

 -------------
 #p 6-31g* mp2
 -------------

 ------------------------------------------------------
 Input file generated by CHIRIPA (05-May-2021 14:57:26)
 ------------------------------------------------------
 Symbolic Z-matrix:
 Charge =  0 Multiplicity = 1

                         Standard orientation:
 ---------------------------------------------------------------------
 Center     Atomic      Atomic             Coordinates (Angstroms)
 Number     Number       Type             X           Y           Z
 ---------------------------------------------------------------------
      1          6           0        1.899287   -2.008428   -0.041233
      2          6           0        1.467000   -0.679944   -0.110358
      3          6           0        2.392423    0.367826   -0.128199
      4          6           0        3.748589    0.049533   -0.075359
      5          6           0        4.210514   -1.263900   -0.006017
      6          6           0        3.267253   -2.295660    0.010626
      7          1           0        1.173468   -2.816143   -0.027839
      8          1           0        0.405247   -0.453906   -0.150741
      9          1           0        2.085315    1.405267   -0.181298
     10          1           0        5.275522   -1.457926    0.033096
     11          1           0        3.605860   -3.326438    0.064352
     12          7           0        4.737735    1.150286   -0.093612
     13          8           0        5.926948    0.843444   -0.046095
     14          8           0        4.305086    2.299056   -0.155090
     15          6           0       -3.700863    2.652230    0.094393
     16          6           0       -2.632969    1.994903    0.714108
     17          6           0       -2.558820    0.598833    0.708096
     18          6           0       -3.574420   -0.111773    0.070219
     19          6           0       -4.651162    0.514171   -0.555968
     20          6           0       -4.704780    1.911072   -0.537553
     21          1           0       -3.750489    3.737055    0.103880
     22          1           0       -1.851891    2.567923    1.205649
     23          1           0       -1.743364    0.064394    1.180138
     24          1           0       -5.414798   -0.084162   -1.037918
     25          1           0       -5.535302    2.418882   -1.019642
     26          7           0       -3.506788   -1.590170    0.057290
     27          8           0       -4.414180   -2.193320   -0.511471
     28          8           0       -2.547668   -2.117796    0.616161
 ---------------------------------------------------------------------

 SCF Done:  E(RHF) =  -868.339048378     A.U. after   16 cycles
 E2 =    -0.2599409335D+01 EUMP2 =    -0.87093845771368D+03

 The electronic state is 1-A.
 Alpha  occ. eigenvalues --  -20.61751 -20.61688 -20.60747 -20.60733 -15.86763
 Alpha  occ. eigenvalues --  -15.85795 -11.32024 -11.31059 -11.28612 -11.28504
 Alpha  occ. eigenvalues --  -11.28202 -11.27679 -11.27612 -11.27549 -11.27489
 Alpha  occ. eigenvalues --  -11.27203 -11.26584 -11.26535  -1.60788  -1.59821
 Alpha  occ. eigenvalues --   -1.40349  -1.39378  -1.20161  -1.19214  -1.09559
 Alpha  occ. eigenvalues --   -1.08590  -1.05549  -1.04620  -0.96423  -0.95448
 Alpha  occ. eigenvalues --   -0.86946  -0.85996  -0.83260  -0.82305  -0.78346
 Alpha  occ. eigenvalues --   -0.77394  -0.72983  -0.72105  -0.72012  -0.71249
 Alpha  occ. eigenvalues --   -0.71144  -0.70234  -0.65807  -0.65552  -0.64852
 Alpha  occ. eigenvalues --   -0.64608  -0.62913  -0.61956  -0.56005  -0.54989
 Alpha  occ. eigenvalues --   -0.53875  -0.53641  -0.52933  -0.52669  -0.49753
 Alpha  occ. eigenvalues --   -0.49718  -0.48778  -0.48758  -0.45776  -0.44808
 Alpha  occ. eigenvalues --   -0.38099  -0.37147  -0.37128  -0.36243
 Alpha virt. eigenvalues --    0.04136   0.05160   0.10393   0.11386   0.15724
 Alpha virt. eigenvalues --    0.16666   0.19980   0.22038   0.25662   0.27153
 Alpha virt. eigenvalues --    0.28481   0.28932   0.30152   0.30990   0.32114

 Mulliken charges:
               1
     1  C   -0.171879
     2  C   -0.224578
     3  C   -0.172948
     4  C    0.158264
     5  C   -0.170843
     6  C   -0.219226
     7  H    0.239469
     8  H    0.224635
     9  H    0.269992
    10  H    0.275167
    11  H    0.224755
    12  N    0.488358
    13  O   -0.460175
    14  O   -0.463528
    15  C   -0.169909
    16  C   -0.219126
    17  C   -0.179265
    18  C    0.159524
    19  C   -0.170389
    20  C   -0.217326
    21  H    0.229920
    22  H    0.226856
    23  H    0.272641
    24  H    0.277608
    25  H    0.226969
    26  N    0.489048
    27  O   -0.455050
    28  O   -0.468966
 Sum of Mulliken charges =  -0.00000

 Dipole moment (field-independent basis, Debye):
    X=             -4.0613    Y=              1.2820    Z=              0.0551  Tot=              4.2592
 Quadrupole moment (field-independent basis, Debye-Ang):
   XX=           -122.2504   YY=           -104.3114   ZZ=           -105.0028
   XY=            -37.1279   XZ=              3.3376   YZ=              0.6543

 Normal termination of Gaussian 16 at Thu May  6 01:59:59 2021.
