 Gaussian 16, Revision A.03,
 Gaussian 16:  EM64L-G16RevA.03 25-Dec-2016

 -------------
 #p 6-31g* mp2
 -------------

 ------------------------------------------------------
 Input file generated by CHIRIPA (05-May-2021 14:55:20)
 ------------------------------------------------------
 Symbolic Z-matrix:
 Charge =  0 Multiplicity = 1

                         Standard orientation:
 ---------------------------------------------------------------------
 Center     Atomic      Atomic             Coordinates (Angstroms)
 Number     Number       Type             X           Y           Z
 ---------------------------------------------------------------------
      1          6           0       -0.179933    0.400936    1.991755
      2          6           0       -1.012455    1.434969    1.551070
      3          6           0       -2.048387    1.176693    0.648470
      4          6           0       -2.224121   -0.133189    0.205056
      5          6           0       -1.411376   -1.184792    0.625611
      6          6           0       -0.381694   -0.903345    1.528435
      7          1           0        0.622376    0.610571    2.693003
      8          1           0       -0.858103    2.448852    1.909206
      9          1           0       -2.707648    1.958351    0.290974
     10          1           0       -1.589884   -2.185350    0.250864
     11          1           0        0.263307   -1.708365    1.868965
     12          7           0       -3.317507   -0.418880   -0.750605
     13          8           0       -3.451525   -1.581440   -1.126277
     14          8           0       -4.019782    0.525166   -1.105885
     15          6           0        3.008254   -0.477712   -0.174108
     16          6           0        2.480046   -1.840006   -0.624814
     17          6           0        3.274631   -3.006280   -0.036397
     18          1           0        4.064153   -0.386923   -0.463554
     19          1           0        2.979343   -0.425750    0.923098
     20          1           0        2.508650   -1.888860   -1.720903
     21          1           0        1.425228   -1.927485   -0.334430
     22          1           0        3.236154   -2.985619    1.057538
     23          1           0        4.325731   -2.946774   -0.336813
     24          1           0        2.880051   -3.970545   -0.371594
     25          6           0        2.224176    0.698138   -0.754046
     26          6           0        2.752384    2.060433   -0.303341
     27          6           0        1.957799    3.226706   -0.891757
     28          1           0        2.253087    0.646176   -1.851251
     29          1           0        1.168276    0.607349   -0.464600
     30          1           0        3.807202    2.147911   -0.593724
     31          1           0        2.723780    2.109286    0.792748
     32          1           0        0.906699    3.167200   -0.591342
     33          1           0        1.996277    3.206046   -1.985693
     34          1           0        2.352379    4.190972   -0.556560
 ---------------------------------------------------------------------

 SCF Done:  E(RHF) =  -669.533066029     A.U. after   15 cycles
 E2 =    -0.2097352228D+01 EUMP2 =    -0.67163041825776D+03

 The electronic state is 1-A.
 Alpha  occ. eigenvalues --  -20.60895 -20.60890 -15.85951 -11.31398 -11.27969
 Alpha  occ. eigenvalues --  -11.27952 -11.27661 -11.26975 -11.26929 -11.22086
 Alpha  occ. eigenvalues --  -11.22057 -11.21919 -11.21674 -11.21554 -11.21502
 Alpha  occ. eigenvalues --   -1.59968  -1.39519  -1.19588  -1.09063  -1.08779
 Alpha  occ. eigenvalues --   -1.04999  -1.04021  -0.96468  -0.95767  -0.87484
 Alpha  occ. eigenvalues --   -0.86366  -0.82606  -0.80092  -0.78695  -0.77638
 Alpha  occ. eigenvalues --   -0.72166  -0.71292  -0.70660  -0.65742  -0.65217
 Alpha  occ. eigenvalues --   -0.64867  -0.62408  -0.61370  -0.59827  -0.58072
 Alpha  occ. eigenvalues --   -0.55838  -0.55440  -0.53422  -0.53115  -0.53050
 Alpha  occ. eigenvalues --   -0.52865  -0.50423  -0.48931  -0.48917  -0.48410
 Alpha  occ. eigenvalues --   -0.47169  -0.46227  -0.46008  -0.44907  -0.44240
 Alpha  occ. eigenvalues --   -0.37458  -0.36503
 Alpha virt. eigenvalues --    0.04830   0.10944   0.16129   0.19354   0.22782
 Alpha virt. eigenvalues --    0.23665   0.25288   0.26886   0.27348   0.27847
 Alpha virt. eigenvalues --    0.29648   0.29983   0.31177   0.31610   0.31914

 Mulliken charges:
               1
     1  C   -0.173496
     2  C   -0.217709
     3  C   -0.171797
     4  C    0.159509
     5  C   -0.170284
     6  C   -0.217830
     7  H    0.227154
     8  H    0.225578
     9  H    0.276948
    10  H    0.277036
    11  H    0.227365
    12  N    0.488149
    13  O   -0.459592
    14  O   -0.459647
    15  C   -0.295990
    16  C   -0.305330
    17  C   -0.476360
    18  H    0.151978
    19  H    0.137500
    20  H    0.156879
    21  H    0.150902
    22  H    0.148139
    23  H    0.158669
    24  H    0.162264
    25  C   -0.306383
    26  C   -0.297686
    27  C   -0.477407
    28  H    0.151451
    29  H    0.163979
    30  H    0.153473
    31  H    0.141589
    32  H    0.152506
    33  H    0.159188
    34  H    0.159257
 Sum of Mulliken charges =  -0.00000

 Dipole moment (field-independent basis, Debye):
    X=              3.6947    Y=              0.9912    Z=              3.2888  Tot=              5.0447
 Quadrupole moment (field-independent basis, Debye-Ang):
   XX=           -112.2996   YY=            -91.5001   ZZ=            -93.4725
   XY=             -3.8335   XZ=             -7.7643   YZ=              0.1930

 Normal termination of Gaussian 16 at Wed May  5 18:55:34 2021.
