 Gaussian 16, Revision A.03,
 Gaussian 16:  EM64L-G16RevA.03 25-Dec-2016

 -------------
 #p 6-31g* mp2
 -------------

 ------------------------------------------------------
 Input file generated by CHIRIPA (05-May-2021 14:55:20)
 ------------------------------------------------------
 Symbolic Z-matrix:
 Charge =  0 Multiplicity = 1

                         Standard orientation:
 ---------------------------------------------------------------------
 Center     Atomic      Atomic             Coordinates (Angstroms)
 Number     Number       Type             X           Y           Z
 ---------------------------------------------------------------------
      1          6           0       -5.499385   -1.776040    0.019541
      2          6           0       -5.959225   -0.455298    0.046131
      3          6           0       -5.055970    0.611572    0.024490
      4          6           0       -3.693634    0.320065   -0.024031
      5          6           0       -3.204480   -0.985027   -0.051483
      6          6           0       -4.125902   -2.036231   -0.029096
      7          1           0       -6.208111   -2.598725    0.036642
      8          1           0       -7.025326   -0.250245    0.083909
      9          1           0       -5.384606    1.643573    0.044229
     10          1           0       -2.135794   -1.157981   -0.089080
     11          1           0       -3.765916   -3.060938   -0.049835
     12          7           0       -2.727783    1.441220   -0.047337
     13          8           0       -1.532582    1.157848   -0.090136
     14          8           0       -3.184238    2.582124   -0.022363
     15          6           0        4.275377   -0.131594    0.414514
     16          6           0        3.038121   -0.331153   -0.461477
     17          6           0        1.733016   -0.245210    0.330425
     18          1           0        4.278127   -0.887446    1.211775
     19          1           0        4.210520    0.846399    0.911221
     20          1           0        3.105961   -1.307890   -0.957461
     21          1           0        3.038416    0.425142   -1.256860
     22          1           0        1.638671    0.733179    0.812562
     23          1           0        1.706600   -1.009699    1.113662
     24          1           0        0.861338   -0.390726   -0.315224
     25          6           0        5.587838   -0.214735   -0.362827
     26          6           0        6.825094   -0.015176    0.513164
     27          6           0        8.130199   -0.101120   -0.278739
     28          1           0        5.652696   -1.192728   -0.859534
     29          1           0        5.585088    0.541117   -1.160088
     30          1           0        6.824800   -0.771472    1.308546
     31          1           0        6.757254    0.961560    1.009147
     32          1           0        8.156615    0.663370   -1.061975
     33          1           0        8.224543   -1.079508   -0.760874
     34          1           0        9.001877    0.044397    0.366911
 ---------------------------------------------------------------------

 SCF Done:  E(RHF) =  -669.535685955     A.U. after   15 cycles
 E2 =    -0.2090885755D+01 EUMP2 =    -0.67162657171064D+03

 The electronic state is 1-A.
 Alpha  occ. eigenvalues --  -20.60826 -20.60821 -15.85868 -11.31224 -11.27794
 Alpha  occ. eigenvalues --  -11.27790 -11.27538 -11.26810 -11.26800 -11.21211
 Alpha  occ. eigenvalues --  -11.20912 -11.20857 -11.20766 -11.20748 -11.20008
 Alpha  occ. eigenvalues --   -1.59897  -1.39452  -1.19398  -1.08796  -1.07875
 Alpha  occ. eigenvalues --   -1.04800  -1.02922  -0.95641  -0.95345  -0.86366
 Alpha  occ. eigenvalues --   -0.86199  -0.82466  -0.79002  -0.77691  -0.77502
 Alpha  occ. eigenvalues --   -0.72096  -0.71215  -0.70508  -0.65055  -0.64804
 Alpha  occ. eigenvalues --   -0.64510  -0.62149  -0.60320  -0.58738  -0.56963
 Alpha  occ. eigenvalues --   -0.55304  -0.54640  -0.53130  -0.52895  -0.52014
 Alpha  occ. eigenvalues --   -0.51782  -0.49307  -0.48843  -0.48833  -0.47306
 Alpha  occ. eigenvalues --   -0.46046  -0.45224  -0.45148  -0.44850  -0.43159
 Alpha  occ. eigenvalues --   -0.37380  -0.36403
 Alpha virt. eigenvalues --    0.05015   0.11251   0.16505   0.21081   0.23374
 Alpha virt. eigenvalues --    0.24541   0.26491   0.27181   0.27655   0.28032
 Alpha virt. eigenvalues --    0.29116   0.30307   0.31630   0.32007   0.32346

 Mulliken charges:
               1
     1  C   -0.170578
     2  C   -0.218663
     3  C   -0.170798
     4  C    0.157494
     5  C   -0.171239
     6  C   -0.219251
     7  H    0.225724
     8  H    0.223553
     9  H    0.275659
    10  H    0.277914
    11  H    0.223805
    12  N    0.492870
    13  O   -0.464561
    14  O   -0.460168
    15  C   -0.297905
    16  C   -0.300387
    17  C   -0.476561
    18  H    0.146954
    19  H    0.150973
    20  H    0.145770
    21  H    0.153963
    22  H    0.165255
    23  H    0.144470
    24  H    0.169158
    25  C   -0.297730
    26  C   -0.299248
    27  C   -0.475400
    28  H    0.147512
    29  H    0.149936
    30  H    0.150720
    31  H    0.152317
    32  H    0.155196
    33  H    0.154105
    34  H    0.159142
 Sum of Mulliken charges =  -0.00000

 Dipole moment (field-independent basis, Debye):
    X=             -3.6044    Y=             -3.8400    Z=              0.0755  Tot=              5.2672
 Quadrupole moment (field-independent basis, Debye-Ang):
   XX=            -68.8606   YY=            -94.5499   ZZ=            -95.9421
   XY=             11.2228   XZ=              0.0609   YZ=              0.0845

 Normal termination of Gaussian 16 at Thu May  6 10:50:41 2021.
