 Gaussian 16, Revision A.03,
 Gaussian 16:  EM64L-G16RevA.03 25-Dec-2016

 -------------
 #p 6-31g* mp2
 -------------

 ------------------------------------------------------
 Input file generated by CHIRIPA (05-May-2021 14:57:25)
 ------------------------------------------------------
 Symbolic Z-matrix:
 Charge =  0 Multiplicity = 1

                         Standard orientation:
 ---------------------------------------------------------------------
 Center     Atomic      Atomic             Coordinates (Angstroms)
 Number     Number       Type             X           Y           Z
 ---------------------------------------------------------------------
      1          6           0       -2.833593    2.462854    0.292939
      2          6           0       -4.039053    2.127091   -0.332082
      3          6           0       -4.403743    0.787699   -0.498149
      4          6           0       -3.535246   -0.194747   -0.025070
      5          6           0       -2.327461    0.107906    0.601784
      6          6           0       -1.983144    1.453968    0.757059
      7          1           0       -2.558206    3.505916    0.417752
      8          1           0       -4.701481    2.908502   -0.693509
      9          1           0       -5.331008    0.499637   -0.978374
     10          1           0       -1.687754   -0.693197    0.951679
     11          1           0       -1.046343    1.711778    1.242840
     12          7           0       -3.910543   -1.616232   -0.195165
     13          8           0       -3.127976   -2.463065    0.230392
     14          8           0       -4.980162   -1.856643   -0.750823
     15          6           0        3.246188    2.468874   -0.151987
     16          6           0        4.312786    1.823691   -0.786516
     17          6           0        4.448622    0.434325   -0.710642
     18          6           0        3.495358   -0.282034    0.011443
     19          6           0        2.421606    0.331826    0.654502
     20          6           0        2.305660    1.722198    0.565233
     21          1           0        3.148393    3.548558   -0.216129
     22          1           0        5.044710    2.401019   -1.344212
     23          1           0        5.264576   -0.090700   -1.192291
     24          1           0        1.707769   -0.270555    1.203130
     25          1           0        1.476301    2.220577    1.059022
     26          7           0        3.628633   -1.753427    0.098858
     27          8           0        2.775483   -2.361853    0.741189
     28          8           0        4.583720   -2.270417   -0.476613
 ---------------------------------------------------------------------

 SCF Done:  E(RHF) =  -868.335711731     A.U. after   16 cycles
 E2 =    -0.2600235318D+01 EUMP2 =    -0.87093594704940D+03

 The electronic state is 1-A.
 Alpha  occ. eigenvalues --  -20.61035 -20.61027 -20.60879 -20.60858 -15.86097
 Alpha  occ. eigenvalues --  -15.85934 -11.31664 -11.31504 -11.28348 -11.28221
 Alpha  occ. eigenvalues --  -11.28148 -11.28093 -11.28062 -11.27954 -11.27451
 Alpha  occ. eigenvalues --  -11.27307 -11.27265 -11.27144  -1.60105  -1.59945
 Alpha  occ. eigenvalues --   -1.39654  -1.39491  -1.19867  -1.19719  -1.09222
 Alpha  occ. eigenvalues --   -1.09084  -1.05327  -1.05164  -0.96021  -0.95875
 Alpha  occ. eigenvalues --   -0.86720  -0.86553  -0.82880  -0.82705  -0.77906
 Alpha  occ. eigenvalues --   -0.77694  -0.72309  -0.72147  -0.71432  -0.71273
 Alpha  occ. eigenvalues --   -0.70980  -0.70836  -0.65541  -0.65496  -0.65379
 Alpha  occ. eigenvalues --   -0.65091  -0.62803  -0.62390  -0.55816  -0.55673
 Alpha  occ. eigenvalues --   -0.53624  -0.53549  -0.53458  -0.53160  -0.49086
 Alpha  occ. eigenvalues --   -0.49055  -0.48927  -0.48888  -0.45015  -0.44851
 Alpha  occ. eigenvalues --   -0.37843  -0.37715  -0.36958  -0.36724
 Alpha virt. eigenvalues --    0.04672   0.04858   0.10653   0.10936   0.16026
 Alpha virt. eigenvalues --    0.16313   0.17813   0.22160   0.24533   0.25817
 Alpha virt. eigenvalues --    0.28064   0.28863   0.30149   0.31381   0.32751

 Mulliken charges:
               1
     1  C   -0.171343
     2  C   -0.218411
     3  C   -0.169683
     4  C    0.159086
     5  C   -0.171399
     6  C   -0.218933
     7  H    0.223255
     8  H    0.224437
     9  H    0.277419
    10  H    0.278960
    11  H    0.214448
    12  N    0.487706
    13  O   -0.455776
    14  O   -0.459951
    15  C   -0.170529
    16  C   -0.218092
    17  C   -0.169421
    18  C    0.159669
    19  C   -0.170309
    20  C   -0.218690
    21  H    0.225484
    22  H    0.225374
    23  H    0.278073
    24  H    0.271956
    25  H    0.214777
    26  N    0.488065
    27  O   -0.457804
    28  O   -0.458366
 Sum of Mulliken charges =  -0.00000

 Dipole moment (field-independent basis, Debye):
    X=              0.8926    Y=              9.9965    Z=              0.1462  Tot=             10.0374
 Quadrupole moment (field-independent basis, Debye-Ang):
   XX=           -109.3642   YY=           -110.4799   ZZ=           -103.6765
   XY=             -0.8005   XZ=             -3.8605   YZ=             -1.2184

 Normal termination of Gaussian 16 at Fri May  7 08:06:56 2021.
