 Gaussian 16, Revision A.03,
 Gaussian 16:  EM64L-G16RevA.03 25-Dec-2016

 -------------
 #p 6-31g* mp2
 -------------

 ------------------------------------------------------
 Input file generated by CHIRIPA (05-May-2021 14:55:21)
 ------------------------------------------------------
 Symbolic Z-matrix:
 Charge =  0 Multiplicity = 1

                         Standard orientation:
 ---------------------------------------------------------------------
 Center     Atomic      Atomic             Coordinates (Angstroms)
 Number     Number       Type             X           Y           Z
 ---------------------------------------------------------------------
      1          6           0        2.977643    1.913314    1.398476
      2          6           0        3.551646    1.745682    0.133983
      3          6           0        3.198289    0.655935   -0.667353
      4          6           0        2.263458   -0.251025   -0.170558
      5          6           0        1.673975   -0.111405    1.084952
      6          6           0        2.042288    0.985871    1.869095
      7          1           0        3.257948    2.762780    2.014295
      8          1           0        4.278324    2.464367   -0.234086
      9          1           0        3.627143    0.501986   -1.650105
     10          1           0        0.952427   -0.844467    1.424667
     11          1           0        1.594883    1.113522    2.850715
     12          7           0        1.881458   -1.408676   -1.009796
     13          8           0        1.055472   -2.193659   -0.549159
     14          8           0        2.415265   -1.509139   -2.112336
     15          6           0       -3.067539    0.568215   -0.536814
     16          6           0       -3.284328    2.010841   -0.078755
     17          6           0       -3.462214    2.981501   -1.246645
     18          1           0       -2.184026    0.525959   -1.188402
     19          1           0       -3.923306    0.252955   -1.149732
     20          1           0       -2.429055    2.322822    0.534264
     21          1           0       -4.167314    2.049634    0.571972
     22          1           0       -4.326869    2.697614   -1.855236
     23          1           0       -2.578733    2.972355   -1.893159
     24          1           0       -3.615791    4.007017   -0.896516
     25          6           0       -2.888086   -0.414027    0.619353
     26          6           0       -2.671298   -1.856653    0.161293
     27          6           0       -2.493411   -2.827313    1.329184
     28          1           0       -2.032319   -0.098768    1.232271
     29          1           0       -3.771599   -0.371773    1.270941
     30          1           0       -1.788311   -1.895446   -0.489434
     31          1           0       -3.526570   -2.168634   -0.451725
     32          1           0       -3.376892   -2.818168    1.975697
     33          1           0       -1.628756   -2.543427    1.937775
     34          1           0       -2.339834   -3.852829    0.979055
 ---------------------------------------------------------------------

 SCF Done:  E(RHF) =  -669.536214575     A.U. after   15 cycles
 E2 =    -0.2092112667D+01 EUMP2 =    -0.67162832724200D+03

 The electronic state is 1-A.
 Alpha  occ. eigenvalues --  -20.60984 -20.60975 -15.86006 -11.31321 -11.27884
 Alpha  occ. eigenvalues --  -11.27879 -11.27613 -11.26888 -11.26878 -11.21516
 Alpha  occ. eigenvalues --  -11.21145 -11.21079 -11.21008 -11.20801 -11.20505
 Alpha  occ. eigenvalues --   -1.60040  -1.39596  -1.19488  -1.08893  -1.08112
 Alpha  occ. eigenvalues --   -1.04882  -1.03160  -0.95739  -0.95646  -0.86672
 Alpha  occ. eigenvalues --   -0.86282  -0.82571  -0.79241  -0.77905  -0.77625
 Alpha  occ. eigenvalues --   -0.72234  -0.71354  -0.70594  -0.65149  -0.64909
 Alpha  occ. eigenvalues --   -0.64716  -0.62232  -0.60537  -0.59027  -0.57237
 Alpha  occ. eigenvalues --   -0.55384  -0.54954  -0.53212  -0.52972  -0.52328
 Alpha  occ. eigenvalues --   -0.52078  -0.49621  -0.48994  -0.48986  -0.47563
 Alpha  occ. eigenvalues --   -0.46298  -0.45511  -0.45449  -0.44778  -0.43436
 Alpha  occ. eigenvalues --   -0.37463  -0.36479
 Alpha virt. eigenvalues --    0.04847   0.11137   0.16325   0.19996   0.22857
 Alpha virt. eigenvalues --    0.23925   0.26192   0.27463   0.27892   0.28042
 Alpha virt. eigenvalues --    0.29183   0.30400   0.31460   0.32173   0.32254

 Mulliken charges:
               1
     1  C   -0.170383
     2  C   -0.218561
     3  C   -0.170583
     4  C    0.157588
     5  C   -0.173227
     6  C   -0.219423
     7  H    0.226259
     8  H    0.224006
     9  H    0.275897
    10  H    0.279120
    11  H    0.224450
    12  N    0.488546
    13  O   -0.460687
    14  O   -0.458543
    15  C   -0.297894
    16  C   -0.298733
    17  C   -0.475444
    18  H    0.151340
    19  H    0.150839
    20  H    0.147694
    21  H    0.151143
    22  H    0.156263
    23  H    0.155325
    24  H    0.158167
    25  C   -0.296458
    26  C   -0.309565
    27  C   -0.471489
    28  H    0.138495
    29  H    0.147238
    30  H    0.176166
    31  H    0.149513
    32  H    0.149660
    33  H    0.147592
    34  H    0.165692
 Sum of Mulliken charges =  -0.00000

 Dipole moment (field-independent basis, Debye):
    X=              1.5090    Y=              3.9836    Z=              2.8016  Tot=              5.0986
 Quadrupole moment (field-independent basis, Debye-Ang):
   XX=            -86.4184   YY=            -97.4879   ZZ=            -94.2280
   XY=             10.7085   XZ=              4.1885   YZ=             -1.8179

 Normal termination of Gaussian 16 at Thu May  6 02:59:00 2021.
