 Gaussian 16, Revision A.03,
 Gaussian 16:  EM64L-G16RevA.03 25-Dec-2016

 -------------
 #p 6-31g* mp2
 -------------

 ------------------------------------------------------
 Input file generated by CHIRIPA (05-May-2021 14:53:16)
 ------------------------------------------------------
 Symbolic Z-matrix:
 Charge =  0 Multiplicity = 1

                         Standard orientation:
 ---------------------------------------------------------------------
 Center     Atomic      Atomic             Coordinates (Angstroms)
 Number     Number       Type             X           Y           Z
 ---------------------------------------------------------------------
      1          6           0        3.276795   -0.333158    0.046231
      2          6           0        3.102226   -1.816766   -0.279984
      3          6           0        3.998177   -2.718314    0.569885
      4          1           0        4.328509   -0.052765   -0.102843
      5          1           0        3.057860   -0.170709    1.110690
      6          1           0        3.320083   -1.976140   -1.343824
      7          1           0        2.050767   -2.093615   -0.130301
      8          1           0        3.776547   -2.588649    1.634154
      9          1           0        5.053075   -2.470507    0.413736
     10          1           0        3.857255   -3.774569    0.320233
     11          6           0        2.387769    0.580828   -0.795191
     12          6           0        2.562338    2.064436   -0.468976
     13          6           0        1.666388    2.965984   -1.318845
     14          1           0        2.606705    0.418379   -1.859650
     15          1           0        1.336056    0.300435   -0.646118
     16          1           0        3.613797    2.341285   -0.618660
     17          1           0        2.344482    2.223810    0.594863
     18          1           0        0.611490    2.718177   -1.162696
     19          1           0        1.888017    2.836319   -2.383114
     20          1           0        1.807310    4.022240   -1.069194
     21          6           0       -0.841181    1.576025    1.591269
     22          6           0       -2.014847    1.982126    0.947752
     23          6           0       -2.782655    1.063890    0.225352
     24          6           0       -2.345316   -0.258463    0.167008
     25          6           0       -1.180643   -0.693739    0.797375
     26          6           0       -0.428553    0.241741    1.514163
     27          1           0       -0.250834    2.296031    2.150267
     28          1           0       -2.337725    3.017698    1.005925
     29          1           0       -3.695395    1.351219   -0.282354
     30          1           0       -0.884342   -1.732896    0.721376
     31          1           0        0.482498   -0.076478    2.012929
     32          7           0       -3.149841   -1.239686   -0.594794
     33          8           0       -2.742964   -2.398901   -0.630989
     34          8           0       -4.172069   -0.830975   -1.141274
 ---------------------------------------------------------------------

 SCF Done:  E(RHF) =  -669.534520155     A.U. after   15 cycles
 E2 =    -0.2095275478D+01 EUMP2 =    -0.67162979563302D+03

 The electronic state is 1-A.
 Alpha  occ. eigenvalues --  -20.60861 -20.60856 -15.85916 -11.31339 -11.27895
 Alpha  occ. eigenvalues --  -11.27891 -11.27637 -11.26937 -11.26909 -11.22158
 Alpha  occ. eigenvalues --  -11.22138 -11.21994 -11.21673 -11.21532 -11.21484
 Alpha  occ. eigenvalues --   -1.59935  -1.39487  -1.19523  -1.09009  -1.08842
 Alpha  occ. eigenvalues --   -1.04932  -1.04030  -0.96460  -0.95721  -0.87475
 Alpha  occ. eigenvalues --   -0.86313  -0.82555  -0.80097  -0.78757  -0.77595
 Alpha  occ. eigenvalues --   -0.72133  -0.71259  -0.70608  -0.65767  -0.65165
 Alpha  occ. eigenvalues --   -0.64814  -0.62248  -0.61463  -0.59822  -0.58071
 Alpha  occ. eigenvalues --   -0.55803  -0.55371  -0.53283  -0.53147  -0.53009
 Alpha  occ. eigenvalues --   -0.52855  -0.50416  -0.48897  -0.48885  -0.48397
 Alpha  occ. eigenvalues --   -0.47146  -0.46292  -0.46208  -0.44878  -0.44273
 Alpha  occ. eigenvalues --   -0.37458  -0.36430
 Alpha virt. eigenvalues --    0.04900   0.11016   0.16287   0.18916   0.22940
 Alpha virt. eigenvalues --    0.23526   0.25174   0.25688   0.27179   0.28500
 Alpha virt. eigenvalues --    0.28999   0.30412   0.31270   0.31447   0.32031

 Mulliken charges:
               1
     1  C   -0.299390
     2  C   -0.300491
     3  C   -0.475647
     4  H    0.152828
     5  H    0.138808
     6  H    0.157393
     7  H    0.147595
     8  H    0.151429
     9  H    0.157100
    10  H    0.164046
    11  C   -0.306692
    12  C   -0.296563
    13  C   -0.480278
    14  H    0.152672
    15  H    0.159923
    16  H    0.153655
    17  H    0.139779
    18  H    0.158757
    19  H    0.158359
    20  H    0.157511
    21  C   -0.169296
    22  C   -0.219297
    23  C   -0.171145
    24  C    0.160044
    25  C   -0.173533
    26  C   -0.220488
    27  H    0.227416
    28  H    0.224958
    29  H    0.276439
    30  H    0.277344
    31  H    0.228346
    32  N    0.488130
    33  O   -0.459877
    34  O   -0.459837
 Sum of Mulliken charges =  -0.00000

 Dipole moment (field-independent basis, Debye):
    X=              2.7524    Y=              3.3974    Z=              2.5987  Tot=              5.0864
 Quadrupole moment (field-independent basis, Debye-Ang):
   XX=           -105.9798   YY=            -94.9229   ZZ=            -94.0211
   XY=            -11.4949   XZ=             -6.1832   YZ=             -0.5837

 Normal termination of Gaussian 16 at Thu May  6 13:54:29 2021.
