 Gaussian 16, Revision A.03,
 Gaussian 16:  EM64L-G16RevA.03 25-Dec-2016

 -------------
 #p 6-31g* mp2
 -------------

 ------------------------------------------------------
 Input file generated by CHIRIPA (05-May-2021 14:57:24)
 ------------------------------------------------------
 Symbolic Z-matrix:
 Charge =  0 Multiplicity = 1

                         Standard orientation:
 ---------------------------------------------------------------------
 Center     Atomic      Atomic             Coordinates (Angstroms)
 Number     Number       Type             X           Y           Z
 ---------------------------------------------------------------------
      1          6           0       -1.180745    1.482904   -1.333254
      2          6           0       -0.860879    0.238667   -0.780009
      3          6           0       -1.844448   -0.535441   -0.157195
      4          6           0       -3.143492   -0.032369   -0.105305
      5          6           0       -3.493438    1.203423   -0.647196
      6          6           0       -2.493689    1.960469   -1.265202
      7          1           0       -0.410400    2.077623   -1.815203
      8          1           0        0.157932   -0.134737   -0.831387
      9          1           0       -1.624396   -1.502105    0.279333
     10          1           0       -4.517882    1.549082   -0.580473
     11          1           0       -2.744992    2.926402   -1.693997
     12          7           0       -4.193317   -0.842852    0.551495
     13          8           0       -5.330310   -0.377213    0.584119
     14          8           0       -3.859298   -1.928399    1.021234
     15          6           0        2.714220    1.961847    1.643260
     16          6           0        2.510741    0.694807    2.199792
     17          6           0        2.650004   -0.455185    1.417058
     18          6           0        2.995241   -0.300657    0.075334
     19          6           0        3.204589    0.947919   -0.508210
     20          6           0        3.059884    2.084143    0.293416
     21          1           0        2.603924    2.849841    2.258644
     22          1           0        2.242215    0.596808    3.247806
     23          1           0        2.498316   -1.448268    1.822267
     24          1           0        3.471448    1.013760   -1.556002
     25          1           0        3.218520    3.066866   -0.141482
     26          7           0        3.145553   -1.510814   -0.763311
     27          8           0        3.450401   -1.347785   -1.942770
     28          8           0        2.955673   -2.599450   -0.225301
 ---------------------------------------------------------------------

 SCF Done:  E(RHF) =  -868.337442932     A.U. after   16 cycles
 E2 =    -0.2601372314D+01 EUMP2 =    -0.87093881524618D+03

 The electronic state is 1-A.
 Alpha  occ. eigenvalues --  -20.61695 -20.61686 -20.60741 -20.60733 -15.86750
 Alpha  occ. eigenvalues --  -15.85791 -11.32175 -11.31154 -11.28769 -11.28690
 Alpha  occ. eigenvalues --  -11.28413 -11.27759 -11.27734 -11.27674 -11.27662
 Alpha  occ. eigenvalues --  -11.27477 -11.26774 -11.26663  -1.60785  -1.59816
 Alpha  occ. eigenvalues --   -1.40327  -1.39369  -1.20359  -1.19323  -1.09719
 Alpha  occ. eigenvalues --   -1.08725  -1.05732  -1.04720  -0.96537  -0.95560
 Alpha  occ. eigenvalues --   -0.87118  -0.86124  -0.83348  -0.82389  -0.78406
 Alpha  occ. eigenvalues --   -0.77437  -0.72939  -0.72163  -0.72006  -0.71386
 Alpha  occ. eigenvalues --   -0.71140  -0.70446  -0.65968  -0.65690  -0.64974
 Alpha  occ. eigenvalues --   -0.64741  -0.63056  -0.62082  -0.56174  -0.55257
 Alpha  occ. eigenvalues --   -0.54169  -0.53787  -0.53045  -0.52708  -0.49714
 Alpha  occ. eigenvalues --   -0.49703  -0.48768  -0.48764  -0.45702  -0.44775
 Alpha  occ. eigenvalues --   -0.38306  -0.37385  -0.37288  -0.36311
 Alpha virt. eigenvalues --    0.04072   0.05093   0.10278   0.11326   0.15574
 Alpha virt. eigenvalues --    0.16586   0.20545   0.21296   0.26411   0.26825
 Alpha virt. eigenvalues --    0.27512   0.28324   0.30067   0.30919   0.31668

 Mulliken charges:
               1
     1  C   -0.172728
     2  C   -0.216618
     3  C   -0.174146
     4  C    0.158587
     5  C   -0.171864
     6  C   -0.218948
     7  H    0.221857
     8  H    0.227708
     9  H    0.277820
    10  H    0.274949
    11  H    0.221774
    12  N    0.487935
    13  O   -0.461182
    14  O   -0.459641
    15  C   -0.169281
    16  C   -0.215330
    17  C   -0.174321
    18  C    0.149792
    19  C   -0.179987
    20  C   -0.218551
    21  H    0.229741
    22  H    0.229202
    23  H    0.279509
    24  H    0.276435
    25  H    0.224954
    26  N    0.488074
    27  O   -0.459057
    28  O   -0.456681
 Sum of Mulliken charges =  -0.00000

 Dipole moment (field-independent basis, Debye):
    X=              3.3682    Y=              7.1033    Z=              0.8433  Tot=              7.9065
 Quadrupole moment (field-independent basis, Debye-Ang):
   XX=           -129.7467   YY=           -103.9324   ZZ=           -101.2040
   XY=              2.0695   XZ=             15.9480   YZ=             -4.0035

 Normal termination of Gaussian 16 at Wed May  5 19:29:19 2021.
