 Gaussian 16, Revision A.03,
 Gaussian 16:  EM64L-G16RevA.03 25-Dec-2016

 -------------
 #p 6-31g* mp2
 -------------

 ------------------------------------------------------
 Input file generated by CHIRIPA (05-May-2021 14:51:13)
 ------------------------------------------------------
 Symbolic Z-matrix:
 Charge =  0 Multiplicity = 1

                         Standard orientation:
 ---------------------------------------------------------------------
 Center     Atomic      Atomic             Coordinates (Angstroms)
 Number     Number       Type             X           Y           Z
 ---------------------------------------------------------------------
      1          6           0        4.799349   -0.466770   -0.368986
      2          6           0        5.831281   -1.117755    0.552600
      3          6           0        6.659448   -2.192137   -0.152834
      4          1           0        4.132083   -1.242990   -0.767965
      5          1           0        5.316030   -0.024844   -1.232199
      6          1           0        5.312942   -1.557118    1.414516
      7          1           0        6.496049   -0.339870    0.949582
      8          1           0        7.202240   -1.764432   -1.001979
      9          1           0        6.012411   -2.988597   -0.534403
     10          1           0        7.390793   -2.644334    0.524301
     11          6           0        3.963627    0.609369    0.321826
     12          6           0        2.931695    1.260354   -0.599760
     13          6           0        2.103529    2.334736    0.105674
     14          1           0        3.446947    0.167443    1.185039
     15          1           0        4.630893    1.385589    0.720805
     16          1           0        2.266927    0.482469   -0.996743
     17          1           0        3.450034    1.699717   -1.461677
     18          1           0        2.750566    3.131196    0.487243
     19          1           0        1.560737    1.907031    0.954819
     20          1           0        1.372183    2.786933   -0.571461
     21          6           0       -3.783700    0.203942    0.411297
     22          6           0       -2.652909    0.700587   -0.490169
     23          6           0       -1.464079    1.248245    0.300114
     24          1           0       -4.118591    1.027817    1.056294
     25          1           0       -3.394767   -0.577390    1.078864
     26          1           0       -3.044189    1.479777   -1.156786
     27          1           0       -2.320801   -0.124515   -1.133229
     28          1           0       -1.046708    0.475137    0.953342
     29          1           0       -1.774206    2.088545    0.929651
     30          1           0       -0.667342    1.597751   -0.363903
     31          6           0       -4.979276   -0.346540   -0.364136
     32          6           0       -6.110067   -0.843186    0.537329
     33          6           0       -7.298898   -1.390844   -0.252953
     34          1           0       -5.368210    0.434791   -1.031704
     35          1           0       -4.644384   -1.170416   -1.009133
     36          1           0       -6.442176   -0.018084    1.180389
     37          1           0       -5.718788   -1.622377    1.203946
     38          1           0       -6.988770   -2.231145   -0.882491
     39          1           0       -7.716269   -0.617737   -0.906182
     40          1           0       -8.095634   -1.740349    0.411063
 ---------------------------------------------------------------------

 SCF Done:  E(RHF) =  -470.732388725     A.U. after   11 cycles
 E2 =    -0.1582740025D+01 EUMP2 =    -0.47231512874975D+03

 The electronic state is 1-A.
 Alpha  occ. eigenvalues --  -11.21595 -11.21589 -11.21578 -11.21554 -11.21392
 Alpha  occ. eigenvalues --  -11.21381 -11.21332 -11.21321 -11.21067 -11.21063
 Alpha  occ. eigenvalues --  -11.20981 -11.20954  -1.08421  -1.08398  -1.03550
 Alpha  occ. eigenvalues --   -1.03463  -0.96053  -0.95862  -0.87114  -0.86836
 Alpha  occ. eigenvalues --   -0.79658  -0.79483  -0.78234  -0.78212  -0.65059
 Alpha  occ. eigenvalues --   -0.65026  -0.60982  -0.60870  -0.59608  -0.59097
 Alpha  occ. eigenvalues --   -0.57708  -0.57414  -0.55321  -0.55183  -0.52970
 Alpha  occ. eigenvalues --   -0.52475  -0.52375  -0.52181  -0.49928  -0.49819
 Alpha  occ. eigenvalues --   -0.47963  -0.47802  -0.46623  -0.46582  -0.45784
 Alpha  occ. eigenvalues --   -0.45749  -0.45694  -0.45680  -0.43916  -0.43545
 Alpha virt. eigenvalues --    0.21968   0.23046   0.23556   0.25067   0.26424
 Alpha virt. eigenvalues --    0.26712   0.27106   0.27309   0.27668   0.29035
 Alpha virt. eigenvalues --    0.29678   0.31333   0.31533   0.31886   0.32188

 Mulliken charges:
               1
     1  C   -0.298268
     2  C   -0.299646
     3  C   -0.475689
     4  H    0.149529
     5  H    0.149504
     6  H    0.151876
     7  H    0.151961
     8  H    0.155180
     9  H    0.155113
    10  H    0.160225
    11  C   -0.298345
    12  C   -0.301210
    13  C   -0.478853
    14  H    0.149629
    15  H    0.149765
    16  H    0.152365
    17  H    0.151745
    18  H    0.155009
    19  H    0.160620
    20  H    0.159654
    21  C   -0.298500
    22  C   -0.300018
    23  C   -0.480123
    24  H    0.149569
    25  H    0.149182
    26  H    0.151540
    27  H    0.151302
    28  H    0.153058
    29  H    0.154763
    30  H    0.169312
    31  C   -0.298166
    32  C   -0.299576
    33  C   -0.475674
    34  H    0.149464
    35  H    0.149482
    36  H    0.151921
    37  H    0.151818
    38  H    0.155119
    39  H    0.155169
    40  H    0.160195
 Sum of Mulliken charges =  -0.00000

 Dipole moment (field-independent basis, Debye):
    X=              0.0212    Y=              0.0209    Z=              0.0080  Tot=              0.0308
 Quadrupole moment (field-independent basis, Debye-Ang):
   XX=            -85.6780   YY=            -84.2171   ZZ=            -85.0659
   XY=              0.2121   XZ=             -0.3051   YZ=             -0.6724

 Normal termination of Gaussian 16 at Thu May  6 03:56:52 2021.
