 Gaussian 16, Revision A.03,
 Gaussian 16:  EM64L-G16RevA.03 25-Dec-2016

 -------------
 #p 6-31g* mp2
 -------------

 ------------------------------------------------------
 Input file generated by CHIRIPA (05-May-2021 14:51:11)
 ------------------------------------------------------
 Symbolic Z-matrix:
 Charge =  0 Multiplicity = 1

                         Standard orientation:
 ---------------------------------------------------------------------
 Center     Atomic      Atomic             Coordinates (Angstroms)
 Number     Number       Type             X           Y           Z
 ---------------------------------------------------------------------
      1          6           0       -2.375490   -1.394583    0.077874
      2          6           0       -2.891888    0.018584   -0.194661
      3          6           0       -4.407621    0.135793   -0.031531
      4          1           0       -2.874438   -2.098032   -0.602681
      5          1           0       -2.659523   -1.691031    1.097108
      6          1           0       -2.605767    0.312809   -1.212591
      7          1           0       -2.391512    0.718777    0.486492
      8          1           0       -4.707303   -0.131733    0.986909
      9          1           0       -4.922776   -0.540008   -0.721828
     10          1           0       -4.755314    1.154210   -0.231021
     11          6           0       -0.861979   -1.527680   -0.081179
     12          6           0       -0.345580   -2.940848    0.191355
     13          6           0        1.170152   -3.058057    0.028226
     14          1           0       -0.577945   -1.231232   -1.100414
     15          1           0       -0.363030   -0.824232    0.599376
     16          1           0       -0.845957   -3.641041   -0.489798
     17          1           0       -0.631701   -3.235073    1.209286
     18          1           0        1.685308   -2.382256    0.718522
     19          1           0        1.469835   -2.790530   -0.990215
     20          1           0        1.517845   -4.076474    0.227715
     21          6           0        2.089127    1.001969   -0.387362
     22          6           0        3.128710    0.310469    0.495293
     23          6           0        4.062427   -0.604757   -0.297380
     24          1           0        1.498209    0.239427   -0.912994
     25          1           0        2.605816    1.585699   -1.161758
     26          1           0        2.610230   -0.270672    1.268642
     27          1           0        3.717095    1.074744    1.019031
     28          1           0        4.605625   -0.035110   -1.058326
     29          1           0        3.492472   -1.388170   -0.807297
     30          1           0        4.797543   -1.088851    0.353094
     31          6           0        1.148341    1.920294    0.390668
     32          6           0        0.108758    2.611795   -0.491987
     33          6           0       -0.824958    3.527020    0.300686
     34          1           0        0.631653    1.336565    1.165063
     35          1           0        1.739259    2.682837    0.916300
     36          1           0       -0.479627    1.847520   -1.015725
     37          1           0        0.627238    3.192937   -1.265337
     38          1           0       -0.255003    4.310434    0.810603
     39          1           0       -1.368157    2.957373    1.061632
     40          1           0       -1.560075    4.011115   -0.349788
 ---------------------------------------------------------------------

 SCF Done:  E(RHF) =  -470.729751956     A.U. after   11 cycles
 E2 =    -0.1588648027D+01 EUMP2 =    -0.47231839998306D+03

 The electronic state is 1-A.
 Alpha  occ. eigenvalues --  -11.21685 -11.21656 -11.21516 -11.21491 -11.21464
 Alpha  occ. eigenvalues --  -11.21430 -11.21306 -11.21201 -11.21121 -11.21115
 Alpha  occ. eigenvalues --  -11.21020 -11.20886  -1.08605  -1.08272  -1.03688
 Alpha  occ. eigenvalues --   -1.03375  -0.96144  -0.95819  -0.87113  -0.86883
 Alpha  occ. eigenvalues --   -0.79753  -0.79466  -0.78482  -0.78097  -0.65399
 Alpha  occ. eigenvalues --   -0.64769  -0.61290  -0.60778  -0.59365  -0.59218
 Alpha  occ. eigenvalues --   -0.57803  -0.57494  -0.55519  -0.55060  -0.52752
 Alpha  occ. eigenvalues --   -0.52572  -0.52559  -0.52106  -0.50168  -0.49665
 Alpha  occ. eigenvalues --   -0.48294  -0.47536  -0.46927  -0.46505  -0.46343
 Alpha  occ. eigenvalues --   -0.46108  -0.45233  -0.44956  -0.43863  -0.43669
 Alpha virt. eigenvalues --    0.20248   0.21764   0.23541   0.23925   0.25146
 Alpha virt. eigenvalues --    0.25970   0.26586   0.28354   0.28893   0.29512
 Alpha virt. eigenvalues --    0.30462   0.31571   0.31754   0.31846   0.32261

 Mulliken charges:
               1
     1  C   -0.297078
     2  C   -0.306633
     3  C   -0.475405
     4  H    0.149862
     5  H    0.149435
     6  H    0.152799
     7  H    0.158403
     8  H    0.155110
     9  H    0.155247
    10  H    0.160960
    11  C   -0.307181
    12  C   -0.299197
    13  C   -0.482860
    14  H    0.150207
    15  H    0.157099
    16  H    0.152118
    17  H    0.151923
    18  H    0.163257
    19  H    0.155366
    20  H    0.161096
    21  C   -0.304596
    22  C   -0.301997
    23  C   -0.480661
    24  H    0.157561
    25  H    0.149279
    26  H    0.150639
    27  H    0.152361
    28  H    0.154237
    29  H    0.162605
    30  H    0.159185
    31  C   -0.300139
    32  C   -0.305568
    33  C   -0.476829
    34  H    0.148516
    35  H    0.149862
    36  H    0.159188
    37  H    0.151556
    38  H    0.155009
    39  H    0.155322
    40  H    0.159942
 Sum of Mulliken charges =  -0.00000

 Dipole moment (field-independent basis, Debye):
    X=             -0.0599    Y=             -0.0667    Z=             -0.0222  Tot=              0.0923
 Quadrupole moment (field-independent basis, Debye-Ang):
   XX=            -86.2823   YY=            -84.7593   ZZ=            -83.9780
   XY=              1.1628   XZ=              0.4207   YZ=             -0.2286

 Normal termination of Gaussian 16 at Wed May  5 15:14:31 2021.
