 Gaussian 16, Revision A.03,
 Gaussian 16:  EM64L-G16RevA.03 25-Dec-2016

 -------------
 #p 6-31g* mp2
 -------------

 ------------------------------------------------------
 Input file generated by CHIRIPA (05-May-2021 14:51:14)
 ------------------------------------------------------
 Symbolic Z-matrix:
 Charge =  0 Multiplicity = 1

                         Standard orientation:
 ---------------------------------------------------------------------
 Center     Atomic      Atomic             Coordinates (Angstroms)
 Number     Number       Type             X           Y           Z
 ---------------------------------------------------------------------
      1          6           0        3.449259   -0.608782   -0.469226
      2          6           0        2.445166   -1.761417   -0.434360
      3          6           0        3.088812   -3.115403   -0.734752
      4          1           0        3.927900   -0.577636   -1.457597
      5          1           0        4.248274   -0.805604    0.258944
      6          1           0        1.647550   -1.561810   -1.161395
      7          1           0        1.968721   -1.789703    0.553980
      8          1           0        3.871576   -3.340625   -0.003208
      9          1           0        3.548580   -3.111437   -1.728330
     10          1           0        2.353129   -3.925170   -0.704589
     11          6           0        2.820865    0.751305   -0.170879
     12          6           0        3.824958    1.903940   -0.205745
     13          6           0        3.181312    3.257927    0.094647
     14          1           0        2.021850    0.948127   -0.899049
     15          1           0        2.342224    0.720160    0.817492
     16          1           0        4.301403    1.932226   -1.194085
     17          1           0        4.622574    1.704333    0.521290
     18          1           0        2.721544    3.253960    1.088225
     19          1           0        2.398548    3.483148   -0.636897
     20          1           0        3.916995    4.067693    0.064484
     21          6           0       -3.561547    0.381664   -0.123118
     22          6           0       -4.975593   -0.152582   -0.353420
     23          6           0       -5.816609    0.764517   -1.241911
     24          1           0       -3.623100    1.379720    0.331900
     25          1           0       -3.063294    0.510922   -1.093907
     26          1           0       -5.470547   -0.282102    0.617590
     27          1           0       -4.910664   -1.149562   -0.807768
     28          1           0       -5.348001    0.885072   -2.223987
     29          1           0       -5.911066    1.757460   -0.790531
     30          1           0       -6.823642    0.363542   -1.393446
     31          6           0       -2.708577   -0.524188    0.763223
     32          6           0       -1.294531    0.010059    0.993525
     33          6           0       -0.453515   -0.907041    1.882016
     34          1           0       -3.206830   -0.653445    1.734012
     35          1           0       -2.647023   -1.522243    0.308205
     36          1           0       -1.359460    1.007038    1.447873
     37          1           0       -0.799577    0.139579    0.022515
     38          1           0       -0.359059   -1.899983    1.430636
     39          1           0       -0.922122   -1.027595    2.864092
     40          1           0        0.553518   -0.506066    2.033551
 ---------------------------------------------------------------------

 SCF Done:  E(RHF) =  -470.731989942     A.U. after   11 cycles
 E2 =    -0.1584247458D+01 EUMP2 =    -0.47231623739948D+03

 The electronic state is 1-A.
 Alpha  occ. eigenvalues --  -11.21600 -11.21596 -11.21561 -11.21471 -11.21392
 Alpha  occ. eigenvalues --  -11.21391 -11.21332 -11.21325 -11.21069 -11.21068
 Alpha  occ. eigenvalues --  -11.21029 -11.21023  -1.08450  -1.08378  -1.03549
 Alpha  occ. eigenvalues --   -1.03468  -0.95980  -0.95957  -0.87030  -0.86947
 Alpha  occ. eigenvalues --   -0.79672  -0.79484  -0.78261  -0.78199  -0.65090
 Alpha  occ. eigenvalues --   -0.65027  -0.61023  -0.60822  -0.59419  -0.59259
 Alpha  occ. eigenvalues --   -0.57708  -0.57457  -0.55313  -0.55209  -0.52782
 Alpha  occ. eigenvalues --   -0.52581  -0.52422  -0.52350  -0.50027  -0.49831
 Alpha  occ. eigenvalues --   -0.47923  -0.47851  -0.46762  -0.46456  -0.45887
 Alpha  occ. eigenvalues --   -0.45751  -0.45608  -0.45523  -0.43771  -0.43685
 Alpha virt. eigenvalues --    0.21165   0.23107   0.23936   0.24296   0.25031
 Alpha virt. eigenvalues --    0.26294   0.26828   0.27597   0.28247   0.29546
 Alpha virt. eigenvalues --    0.30838   0.31196   0.31713   0.31874   0.32322

 Mulliken charges:
               1
     1  C   -0.298068
     2  C   -0.306844
     3  C   -0.475230
     4  H    0.149206
     5  H    0.149003
     6  H    0.150316
     7  H    0.162578
     8  H    0.154955
     9  H    0.154659
    10  H    0.159440
    11  C   -0.303176
    12  C   -0.299414
    13  C   -0.475597
    14  H    0.150164
    15  H    0.153528
    16  H    0.152025
    17  H    0.151842
    18  H    0.155009
    19  H    0.155332
    20  H    0.160217
    21  C   -0.298201
    22  C   -0.299633
    23  C   -0.475689
    24  H    0.149714
    25  H    0.149232
    26  H    0.151942
    27  H    0.151889
    28  H    0.155093
    29  H    0.155199
    30  H    0.160232
    31  C   -0.298731
    32  C   -0.300915
    33  C   -0.480606
    34  H    0.149448
    35  H    0.149714
    36  H    0.151659
    37  H    0.154705
    38  H    0.157120
    39  H    0.154648
    40  H    0.163233
 Sum of Mulliken charges =  -0.00000

 Dipole moment (field-independent basis, Debye):
    X=             -0.0087    Y=              0.0068    Z=              0.0217  Tot=              0.0244
 Quadrupole moment (field-independent basis, Debye-Ang):
   XX=            -85.4529   YY=            -85.9896   ZZ=            -83.5742
   XY=              0.5879   XZ=             -0.3845   YZ=              0.3773

 Normal termination of Gaussian 16 at Thu May  6 05:35:46 2021.
