 Gaussian 16, Revision A.03,
 Gaussian 16:  EM64L-G16RevA.03 25-Dec-2016

 -------------
 #p 6-31g* mp2
 -------------

 ------------------------------------------------------
 Input file generated by CHIRIPA (05-May-2021 14:55:23)
 ------------------------------------------------------
 Symbolic Z-matrix:
 Charge =  0 Multiplicity = 1

                         Standard orientation:
 ---------------------------------------------------------------------
 Center     Atomic      Atomic             Coordinates (Angstroms)
 Number     Number       Type             X           Y           Z
 ---------------------------------------------------------------------
      1          6           0        4.432348    1.167335    0.397477
      2          6           0        4.292105    0.521236   -0.835167
      3          6           0        3.217020   -0.342165   -1.065985
      4          6           0        2.296632   -0.537344   -0.037354
      5          6           0        2.408983    0.091786    1.201542
      6          6           0        3.491996    0.950929    1.410111
      7          1           0        5.270579    1.836392    0.568140
      8          1           0        5.020868    0.687410   -1.623416
      9          1           0        3.084293   -0.855232   -2.010742
     10          1           0        1.666429   -0.093777    1.968091
     11          1           0        3.598378    1.451348    2.368396
     12          7           0        1.154290   -1.449135   -0.269935
     13          8           0        0.357010   -1.604276    0.652514
     14          8           0        1.077834   -1.991390   -1.370276
     15          6           0       -3.167960    1.115526   -0.447094
     16          6           0       -2.679876    2.371757    0.275153
     17          6           0       -2.660044    3.603934   -0.629913
     18          1           0       -2.521594    0.924613   -1.314681
     19          1           0       -4.176799    1.297190   -0.842871
     20          1           0       -1.672810    2.187304    0.670643
     21          1           0       -3.327364    2.559593    1.141231
     22          1           0       -3.663054    3.815857   -1.014178
     23          1           0       -1.999100    3.441452   -1.487440
     24          1           0       -2.307956    4.490524   -0.093394
     25          6           0       -3.193393   -0.124627    0.444591
     26          6           0       -3.681478   -1.380859   -0.277655
     27          6           0       -3.701309   -2.613035    0.627410
     28          1           0       -2.184555   -0.306292    0.840368
     29          1           0       -3.839759    0.066286    1.312178
     30          1           0       -3.033989   -1.568694   -1.143734
     31          1           0       -4.688543   -1.196405   -0.673145
     32          1           0       -4.362253   -2.450553    1.484938
     33          1           0       -2.698299   -2.824958    1.011675
     34          1           0       -4.053397   -3.499625    0.090891
 ---------------------------------------------------------------------

 SCF Done:  E(RHF) =  -669.536644211     A.U. after   15 cycles
 E2 =    -0.2091678168D+01 EUMP2 =    -0.67162832237895D+03

 The electronic state is 1-A.
 Alpha  occ. eigenvalues --  -20.61102 -20.61093 -15.86113 -11.31378 -11.27933
 Alpha  occ. eigenvalues --  -11.27929 -11.27658 -11.26927 -11.26917 -11.21068
 Alpha  occ. eigenvalues --  -11.20700 -11.20532 -11.20250 -11.20079 -11.19603
 Alpha  occ. eigenvalues --   -1.60147  -1.39706  -1.19540  -1.08955  -1.07445
 Alpha  occ. eigenvalues --   -1.04927  -1.02556  -0.95805  -0.95015  -0.86330
 Alpha  occ. eigenvalues --   -0.86040  -0.82642  -0.78696  -0.77708  -0.77176
 Alpha  occ. eigenvalues --   -0.72338  -0.71456  -0.70647  -0.65198  -0.64929
 Alpha  occ. eigenvalues --   -0.64060  -0.62274  -0.59933  -0.58456  -0.56615
 Alpha  occ. eigenvalues --   -0.55432  -0.54286  -0.53261  -0.53017  -0.51765
 Alpha  occ. eigenvalues --   -0.51440  -0.49110  -0.49093  -0.48942  -0.46994
 Alpha  occ. eigenvalues --   -0.45732  -0.45299  -0.44733  -0.44361  -0.42802
 Alpha  occ. eigenvalues --   -0.37514  -0.36525
 Alpha virt. eigenvalues --    0.04785   0.11125   0.16261   0.21223   0.23733
 Alpha virt. eigenvalues --    0.25348   0.27022   0.27443   0.28079   0.28751
 Alpha virt. eigenvalues --    0.28925   0.30941   0.32268   0.32393   0.32559

 Mulliken charges:
               1
     1  C   -0.170361
     2  C   -0.218526
     3  C   -0.170638
     4  C    0.157867
     5  C   -0.170955
     6  C   -0.218426
     7  H    0.226405
     8  H    0.224166
     9  H    0.275984
    10  H    0.275924
    11  H    0.224307
    12  N    0.489670
    13  O   -0.461662
    14  O   -0.458120
    15  C   -0.297865
    16  C   -0.297912
    17  C   -0.474834
    18  H    0.149765
    19  H    0.146492
    20  H    0.147668
    21  H    0.150350
    22  H    0.155098
    23  H    0.153793
    24  H    0.156228
    25  C   -0.307227
    26  C   -0.296534
    27  C   -0.480433
    28  H    0.168783
    29  H    0.142502
    30  H    0.159009
    31  H    0.144033
    32  H    0.146967
    33  H    0.172933
    34  H    0.155550
 Sum of Mulliken charges =  -0.00000

 Dipole moment (field-independent basis, Debye):
    X=              4.3812    Y=              3.0526    Z=              0.8062  Tot=              5.4003
 Quadrupole moment (field-independent basis, Debye-Ang):
   XX=            -76.4654   YY=           -100.1490   ZZ=            -90.8445
   XY=              4.9734   XZ=             -0.1661   YZ=              1.0786

 Normal termination of Gaussian 16 at Wed May  5 22:19:11 2021.
