 Gaussian 16, Revision A.03,
 Gaussian 16:  EM64L-G16RevA.03 25-Dec-2016

 -------------
 #p 6-31g* mp2
 -------------

 ------------------------------------------------------
 Input file generated by CHIRIPA (05-May-2021 14:51:09)
 ------------------------------------------------------
 Symbolic Z-matrix:
 Charge =  0 Multiplicity = 1

                         Standard orientation:
 ---------------------------------------------------------------------
 Center     Atomic      Atomic             Coordinates (Angstroms)
 Number     Number       Type             X           Y           Z
 ---------------------------------------------------------------------
      1          6           0       -2.585143   -1.329279   -0.223254
      2          6           0       -1.086908   -1.087330   -0.409632
      3          6           0       -0.307274   -2.377240   -0.666729
      4          1           0       -2.736509   -2.024002    0.614238
      5          1           0       -2.983192   -1.827197   -1.118256
      6          1           0       -0.692076   -0.588770    0.484886
      7          1           0       -0.939099   -0.392952   -1.246655
      8          1           0       -0.673572   -2.875170   -1.570328
      9          1           0       -0.425146   -3.072100    0.171052
     10          1           0        0.761566   -2.181125   -0.797032
     11          6           0       -3.378049   -0.049229    0.034622
     12          6           0       -4.876285   -0.291178    0.221000
     13          6           0       -5.655918    0.998731    0.478097
     14          1           0       -2.980000    0.448689    0.929624
     15          1           0       -3.226683    0.645494   -0.802870
     16          1           0       -5.024093   -0.985556    1.058023
     17          1           0       -5.271116   -0.789739   -0.673518
     18          1           0       -5.538046    1.693592   -0.359684
     19          1           0       -5.289620    1.496662    1.381696
     20          1           0       -6.724758    0.802616    0.608400
     21          6           0        3.067545    0.009743    0.432414
     22          6           0        4.287517   -0.765590   -0.066095
     23          6           0        4.446009   -2.122942    0.619667
     24          1           0        3.151043    0.153508    1.518371
     25          1           0        2.164776   -0.594044    0.265549
     26          1           0        5.187565   -0.159943    0.100396
     27          1           0        4.201198   -0.907360   -1.151022
     28          1           0        3.565400   -2.748974    0.442996
     29          1           0        4.557371   -1.997310    1.701525
     30          1           0        5.324246   -2.660227    0.248337
     31          6           0        2.895648    1.368765   -0.243781
     32          6           0        1.675676    2.144099    0.254727
     33          6           0        1.517183    3.501451   -0.431035
     34          1           0        3.798417    1.972552   -0.076917
     35          1           0        2.812150    1.225000   -1.329739
     36          1           0        1.761993    2.285868    1.339654
     37          1           0        0.775627    1.538452    0.088236
     38          1           0        1.405821    3.375818   -1.512893
     39          1           0        2.397792    4.127482   -0.254364
     40          1           0        0.638946    4.038735   -0.059705
 ---------------------------------------------------------------------

 SCF Done:  E(RHF) =  -470.732859963     A.U. after   11 cycles
 E2 =    -0.1584017399D+01 EUMP2 =    -0.47231687736153D+03

 The electronic state is 1-A.
 Alpha  occ. eigenvalues --  -11.21694 -11.21635 -11.21579 -11.21503 -11.21464
 Alpha  occ. eigenvalues --  -11.21400 -11.21347 -11.21287 -11.21167 -11.21094
 Alpha  occ. eigenvalues --  -11.21051 -11.21021  -1.08503  -1.08378  -1.03601
 Alpha  occ. eigenvalues --   -1.03486  -0.96053  -0.95933  -0.87072  -0.86946
 Alpha  occ. eigenvalues --   -0.79710  -0.79512  -0.78370  -0.78142  -0.65148
 Alpha  occ. eigenvalues --   -0.65032  -0.60993  -0.60896  -0.59429  -0.59304
 Alpha  occ. eigenvalues --   -0.57708  -0.57514  -0.55330  -0.55222  -0.52768
 Alpha  occ. eigenvalues --   -0.52627  -0.52523  -0.52317  -0.49981  -0.49890
 Alpha  occ. eigenvalues --   -0.48141  -0.47750  -0.46726  -0.46566  -0.45976
 Alpha  occ. eigenvalues --   -0.45785  -0.45713  -0.45383  -0.43835  -0.43736
 Alpha virt. eigenvalues --    0.20443   0.22994   0.23571   0.24335   0.25934
 Alpha virt. eigenvalues --    0.26537   0.27023   0.27564   0.27818   0.29552
 Alpha virt. eigenvalues --    0.30347   0.31250   0.31714   0.32003   0.32609

 Mulliken charges:
               1
     1  C   -0.297959
     2  C   -0.304772
     3  C   -0.480809
     4  H    0.150009
     5  H    0.149754
     6  H    0.156500
     7  H    0.152411
     8  H    0.155963
     9  H    0.155991
    10  H    0.163524
    11  C   -0.298667
    12  C   -0.299674
    13  C   -0.475762
    14  H    0.149860
    15  H    0.149695
    16  H    0.152064
    17  H    0.152001
    18  H    0.155267
    19  H    0.155309
    20  H    0.160377
    21  C   -0.308226
    22  C   -0.299338
    23  C   -0.476935
    24  H    0.149266
    25  H    0.159514
    26  H    0.152070
    27  H    0.151439
    28  H    0.156027
    29  H    0.155171
    30  H    0.160258
    31  C   -0.297042
    32  C   -0.306831
    33  C   -0.475335
    34  H    0.149279
    35  H    0.148916
    36  H    0.150908
    37  H    0.160161
    38  H    0.154678
    39  H    0.154880
    40  H    0.160057
 Sum of Mulliken charges =  -0.00000

 Dipole moment (field-independent basis, Debye):
    X=             -0.0602    Y=             -0.0310    Z=              0.0056  Tot=              0.0679
 Quadrupole moment (field-independent basis, Debye-Ang):
   XX=            -85.0816   YY=            -86.3878   ZZ=            -83.4252
   XY=              1.0362   XZ=              0.5973   YZ=              0.4399

 Normal termination of Gaussian 16 at Wed May  5 16:40:03 2021.
