 Gaussian 16, Revision A.03,
 Gaussian 16:  EM64L-G16RevA.03 25-Dec-2016

 -------------
 #p 6-31g* mp2
 -------------

 ------------------------------------------------------
 Input file generated by CHIRIPA (05-May-2021 14:57:22)
 ------------------------------------------------------
 Symbolic Z-matrix:
 Charge =  0 Multiplicity = 1

                         Standard orientation:
 ---------------------------------------------------------------------
 Center     Atomic      Atomic             Coordinates (Angstroms)
 Number     Number       Type             X           Y           Z
 ---------------------------------------------------------------------
      1          6           0        5.102525    1.145823    0.710562
      2          6           0        3.800335    1.473789    1.102047
      3          6           0        2.709788    0.739515    0.626548
      4          6           0        2.958958   -0.321204   -0.242980
      5          6           0        4.244663   -0.672533   -0.651417
      6          6           0        5.320150    0.075595   -0.163379
      7          1           0        5.943838    1.721605    1.084812
      8          1           0        3.628334    2.304426    1.780650
      9          1           0        1.691353    0.971737    0.913394
     10          1           0        4.384600   -1.505986   -1.329054
     11          1           0        6.330366   -0.181380   -0.469112
     12          7           0        1.812417   -1.105880   -0.753007
     13          8           0        2.058550   -2.035787   -1.518074
     14          8           0        0.689336   -0.776143   -0.378041
     15          6           0       -3.201310   -2.125240    1.155931
     16          6           0       -4.071569   -1.791776    0.112873
     17          6           0       -4.050758   -0.510961   -0.447150
     18          6           0       -3.142761    0.415890    0.062535
     19          6           0       -2.263076    0.113961    1.100939
     20          6           0       -2.301427   -1.172986    1.645772
     21          1           0       -3.224289   -3.122590    1.585072
     22          1           0       -4.771486   -2.529284   -0.269545
     23          1           0       -4.713343   -0.226060   -1.255377
     24          1           0       -1.576494    0.870492    1.461058
     25          1           0       -1.624405   -1.429155    2.455749
     26          7           0       -3.111444    1.775078   -0.522296
     27          8           0       -2.302100    2.573612   -0.055454
     28          8           0       -3.896836    2.016139   -1.436456
 ---------------------------------------------------------------------

 SCF Done:  E(RHF) =  -868.338207018     A.U. after   16 cycles
 E2 =    -0.2599954539D+01 EUMP2 =    -0.87093816155700D+03

 The electronic state is 1-A.
 Alpha  occ. eigenvalues --  -20.61008 -20.60992 -20.60027 -20.60008 -15.86043
 Alpha  occ. eigenvalues --  -15.85067 -11.31329 -11.30170 -11.27898 -11.27883
 Alpha  occ. eigenvalues --  -11.27604 -11.26882 -11.26866 -11.26781 -11.26757
 Alpha  occ. eigenvalues --  -11.26479 -11.25745 -11.25717  -1.60074  -1.59090
 Alpha  occ. eigenvalues --   -1.39633  -1.38657  -1.19491  -1.18330  -1.08900
 Alpha  occ. eigenvalues --   -1.07788  -1.04882  -1.03726  -0.95752  -0.94671
 Alpha  occ. eigenvalues --   -0.86285  -0.85160  -0.82591  -0.81531  -0.77654
 Alpha  occ. eigenvalues --   -0.76599  -0.72282  -0.71390  -0.71310  -0.70602
 Alpha  occ. eigenvalues --   -0.70386  -0.69517  -0.65148  -0.64883  -0.64026
 Alpha  occ. eigenvalues --   -0.63790  -0.62236  -0.61128  -0.55383  -0.54291
 Alpha  occ. eigenvalues --   -0.53214  -0.52974  -0.51997  -0.51878  -0.49031
 Alpha  occ. eigenvalues --   -0.49007  -0.48068  -0.48035  -0.45059  -0.44123
 Alpha  occ. eigenvalues --   -0.37465  -0.36479  -0.36284  -0.35226
 Alpha virt. eigenvalues --    0.04870   0.05967   0.11175   0.12368   0.16380
 Alpha virt. eigenvalues --    0.17522   0.20776   0.22251   0.25825   0.27608
 Alpha virt. eigenvalues --    0.28556   0.29335   0.30876   0.31529   0.32324

 Mulliken charges:
               1
     1  C   -0.170443
     2  C   -0.218510
     3  C   -0.169959
     4  C    0.157898
     5  C   -0.170812
     6  C   -0.218499
     7  H    0.226505
     8  H    0.225328
     9  H    0.273782
    10  H    0.275528
    11  H    0.223910
    12  N    0.491896
    13  O   -0.459791
    14  O   -0.466453
    15  C   -0.168520
    16  C   -0.217692
    17  C   -0.170252
    18  C    0.159343
    19  C   -0.152947
    20  C   -0.208582
    21  H    0.222403
    22  H    0.220026
    23  H    0.272400
    24  H    0.265821
    25  H    0.217898
    26  N    0.489150
    27  O   -0.466874
    28  O   -0.462552
 Sum of Mulliken charges =  -0.00000

 Dipole moment (field-independent basis, Debye):
    X=              4.1533    Y=             -2.1040    Z=              3.8246  Tot=              6.0253
 Quadrupole moment (field-independent basis, Debye-Ang):
   XX=            -76.5790   YY=           -109.9543   ZZ=           -103.2865
   XY=             21.5348   XZ=             -1.2394   YZ=              2.0688

 Normal termination of Gaussian 16 at Fri May  7 04:49:28 2021.
