 Gaussian 16, Revision A.03,
 Gaussian 16:  EM64L-G16RevA.03 25-Dec-2016

 -------------
 #p 6-31g* mp2
 -------------

 ------------------------------------------------------
 Input file generated by CHIRIPA (05-May-2021 14:55:25)
 ------------------------------------------------------
 Symbolic Z-matrix:
 Charge =  0 Multiplicity = 1

                         Standard orientation:
 ---------------------------------------------------------------------
 Center     Atomic      Atomic             Coordinates (Angstroms)
 Number     Number       Type             X           Y           Z
 ---------------------------------------------------------------------
      1          6           0       -6.071859    1.460038    0.321088
      2          6           0       -4.855993    2.011422   -0.096245
      3          6           0       -3.740816    1.194754   -0.305967
      4          6           0       -3.877599   -0.175284   -0.087851
      5          6           0       -5.075429   -0.754552    0.328011
      6          6           0       -6.177510    0.081242    0.531513
      7          1           0       -6.933068    2.101875    0.481590
      8          1           0       -4.771027    3.081872   -0.260446
      9          1           0       -2.787562    1.595224   -0.628997
     10          1           0       -5.129409   -1.825227    0.483445
     11          1           0       -7.120513   -0.349736    0.855625
     12          7           0       -2.703943   -1.049978   -0.306582
     13          8           0       -2.850382   -2.253947   -0.107456
     14          8           0       -1.659816   -0.515032   -0.673008
     15          6           0        5.833778    0.345753   -0.252908
     16          6           0        7.101762    0.144724    0.577626
     17          6           0        8.339394    0.762266   -0.074068
     18          1           0        5.982460   -0.092395   -1.249335
     19          1           0        5.670636    1.421594   -0.405697
     20          1           0        7.261703   -0.930369    0.729974
     21          1           0        6.949975    0.583231    1.572255
     22          1           0        8.205205    1.840107   -0.211375
     23          1           0        8.518705    0.317907   -1.058441
     24          1           0        9.234379    0.606862    0.536433
     25          6           0        4.588063   -0.266074    0.385519
     26          6           0        3.320078   -0.065046   -0.445015
     27          6           0        2.082447   -0.682588    0.206678
     28          1           0        4.751205   -1.341916    0.538309
     29          1           0        4.439381    0.172073    1.381946
     30          1           0        3.471865   -0.503553   -1.439645
     31          1           0        3.160136    1.010048   -0.597363
     32          1           0        1.903136   -0.238229    1.191053
     33          1           0        2.216635   -1.760429    0.343986
     34          1           0        1.187462   -0.527184   -0.403821
 ---------------------------------------------------------------------

 SCF Done:  E(RHF) =  -669.536054534     A.U. after   15 cycles
 E2 =    -0.2090623319D+01 EUMP2 =    -0.67162667785349D+03

 The electronic state is 1-A.
 Alpha  occ. eigenvalues --  -20.60911 -20.60902 -15.85950 -11.31276 -11.27840
 Alpha  occ. eigenvalues --  -11.27836 -11.27579 -11.26849 -11.26840 -11.21099
 Alpha  occ. eigenvalues --  -11.20759 -11.20662 -11.20589 -11.20528 -11.19515
 Alpha  occ. eigenvalues --   -1.59969  -1.39526  -1.19444  -1.08847  -1.07685
 Alpha  occ. eigenvalues --   -1.04842  -1.02695  -0.95690  -0.95112  -0.86243
 Alpha  occ. eigenvalues --   -0.86121  -0.82524  -0.78787  -0.77575  -0.77476
 Alpha  occ. eigenvalues --   -0.72177  -0.71284  -0.70554  -0.65101  -0.64845
 Alpha  occ. eigenvalues --   -0.64330  -0.62190  -0.60109  -0.58519  -0.56705
 Alpha  occ. eigenvalues --   -0.55346  -0.54425  -0.53174  -0.52935  -0.51744
 Alpha  occ. eigenvalues --   -0.51543  -0.49089  -0.48921  -0.48905  -0.47076
 Alpha  occ. eigenvalues --   -0.45860  -0.45011  -0.44954  -0.44929  -0.42894
 Alpha  occ. eigenvalues --   -0.37424  -0.36444
 Alpha virt. eigenvalues --    0.04955   0.11211   0.16447   0.21337   0.23549
 Alpha virt. eigenvalues --    0.25205   0.27261   0.27338   0.28134   0.28213
 Alpha virt. eigenvalues --    0.28977   0.30892   0.32188   0.32358   0.32466

 Mulliken charges:
               1
     1  C   -0.170636
     2  C   -0.218548
     3  C   -0.170720
     4  C    0.157648
     5  C   -0.170501
     6  C   -0.218601
     7  H    0.225908
     8  H    0.223744
     9  H    0.275662
    10  H    0.275881
    11  H    0.223750
    12  N    0.492619
    13  O   -0.458864
    14  O   -0.463843
    15  C   -0.297404
    16  C   -0.299013
    17  C   -0.475249
    18  H    0.148953
    19  H    0.147559
    20  H    0.151642
    21  H    0.150804
    22  H    0.154082
    23  H    0.154757
    24  H    0.158713
    25  C   -0.297145
    26  C   -0.299612
    27  C   -0.483903
    28  H    0.148945
    29  H    0.147296
    30  H    0.150463
    31  H    0.147124
    32  H    0.147603
    33  H    0.153228
    34  H    0.187659
 Sum of Mulliken charges =  -0.00000

 Dipole moment (field-independent basis, Debye):
    X=             -4.4846    Y=              3.0336    Z=              0.7231  Tot=              5.4624
 Quadrupole moment (field-independent basis, Debye-Ang):
   XX=            -63.7873   YY=            -92.2428   ZZ=            -95.4038
   XY=             -9.6168   XZ=             -3.4276   YZ=             -1.0006

 Normal termination of Gaussian 16 at Thu May  6 12:43:19 2021.
