 Gaussian 16, Revision A.03,
 Gaussian 16:  EM64L-G16RevA.03 25-Dec-2016

 -------------
 #p 6-31g* mp2
 -------------

 ------------------------------------------------------
 Input file generated by CHIRIPA (05-May-2021 14:57:21)
 ------------------------------------------------------
 Symbolic Z-matrix:
 Charge =  0 Multiplicity = 1

                         Standard orientation:
 ---------------------------------------------------------------------
 Center     Atomic      Atomic             Coordinates (Angstroms)
 Number     Number       Type             X           Y           Z
 ---------------------------------------------------------------------
      1          6           0       -3.093447   -2.133272    1.092252
      2          6           0       -2.189223   -1.232857    1.665097
      3          6           0       -2.079371    0.071763    1.174742
      4          6           0       -2.892761    0.444032    0.105582
      5          6           0       -3.803194   -0.429970   -0.486468
      6          6           0       -3.896132   -1.729666    0.020187
      7          1           0       -3.172214   -3.144819    1.479503
      8          1           0       -1.564585   -1.543541    2.497772
      9          1           0       -1.387762    0.789220    1.599417
     10          1           0       -4.412556   -0.091170   -1.315510
     11          1           0       -4.599246   -2.426803   -0.426663
     12          7           0       -2.785418    1.822569   -0.422164
     13          8           0       -3.513251    2.125976   -1.364947
     14          8           0       -1.975483    2.573555    0.116966
     15          6           0        4.677521    1.356442    0.683907
     16          6           0        5.036468    0.082034    0.232729
     17          6           0        4.065776   -0.797998   -0.254969
     18          6           0        2.739618   -0.368931   -0.277294
     19          6           0        2.350546    0.894451    0.165176
     20          6           0        3.338068    1.757876    0.648752
     21          1           0        5.438115    2.033622    1.061161
     22          1           0        6.075930   -0.232417    0.258857
     23          1           0        4.315913   -1.790200   -0.610476
     24          1           0        1.306197    1.179542    0.126753
     25          1           0        3.056397    2.747012    0.998490
     26          7           0        1.703082   -1.291791   -0.791417
     27          8           0        0.541625   -0.889832   -0.800635
     28          8           0        2.071728   -2.399612   -1.175434
 ---------------------------------------------------------------------

 SCF Done:  E(RHF) =  -868.339044955     A.U. after   16 cycles
 E2 =    -0.2600334685D+01 EUMP2 =    -0.87093937963964D+03

 The electronic state is 1-A.
 Alpha  occ. eigenvalues --  -20.60918 -20.60896 -20.60331 -20.60278 -15.85940
 Alpha  occ. eigenvalues --  -15.85337 -11.31193 -11.30337 -11.27771 -11.27685
 Alpha  occ. eigenvalues --  -11.27470 -11.26976 -11.26902 -11.26764 -11.26686
 Alpha  occ. eigenvalues --  -11.26616 -11.25880 -11.25861  -1.59984  -1.59364
 Alpha  occ. eigenvalues --   -1.39540  -1.38938  -1.19356  -1.18486  -1.08777
 Alpha  occ. eigenvalues --   -1.07962  -1.04729  -1.03883  -0.95629  -0.94865
 Alpha  occ. eigenvalues --   -0.86137  -0.85322  -0.82458  -0.81740  -0.77524
 Alpha  occ. eigenvalues --   -0.76820  -0.72182  -0.71587  -0.71308  -0.70642
 Alpha  occ. eigenvalues --   -0.70456  -0.69686  -0.65005  -0.64723  -0.64195
 Alpha  occ. eigenvalues --   -0.63951  -0.62069  -0.61292  -0.55242  -0.54441
 Alpha  occ. eigenvalues --   -0.53086  -0.52809  -0.52137  -0.52036  -0.48934
 Alpha  occ. eigenvalues --   -0.48911  -0.48351  -0.48295  -0.44972  -0.44425
 Alpha  occ. eigenvalues --   -0.37347  -0.36415  -0.36334  -0.35371
 Alpha virt. eigenvalues --    0.04930   0.05775   0.11299   0.12190   0.16479
 Alpha virt. eigenvalues --    0.17334   0.21148   0.22221   0.26362   0.27814
 Alpha virt. eigenvalues --    0.28380   0.29378   0.30765   0.31513   0.32318

 Mulliken charges:
               1
     1  C   -0.166397
     2  C   -0.211860
     3  C   -0.156154
     4  C    0.163168
     5  C   -0.168607
     6  C   -0.216616
     7  H    0.223533
     8  H    0.218372
     9  H    0.263944
    10  H    0.272860
    11  H    0.220970
    12  N    0.489839
    13  O   -0.459836
    14  O   -0.472234
    15  C   -0.170738
    16  C   -0.218815
    17  C   -0.171560
    18  C    0.157175
    19  C   -0.176963
    20  C   -0.219809
    21  H    0.226122
    22  H    0.223087
    23  H    0.274476
    24  H    0.283039
    25  H    0.228204
    26  N    0.489060
    27  O   -0.462225
    28  O   -0.462034
 Sum of Mulliken charges =  -0.00000

 Dipole moment (field-independent basis, Debye):
    X=              3.3077    Y=             -1.6912    Z=              3.6017  Tot=              5.1743
 Quadrupole moment (field-independent basis, Debye-Ang):
   XX=            -78.4849   YY=           -110.0732   ZZ=           -104.3914
   XY=             20.3804   XZ=              0.9098   YZ=              0.1809

 Normal termination of Gaussian 16 at Wed May  5 22:34:41 2021.
