 Gaussian 16, Revision A.03,
 Gaussian 16:  EM64L-G16RevA.03 25-Dec-2016

 -------------
 #p 6-31g* mp2
 -------------

 ------------------------------------------------------
 Input file generated by CHIRIPA (05-May-2021 14:57:26)
 ------------------------------------------------------
 Symbolic Z-matrix:
 Charge =  0 Multiplicity = 1

                         Standard orientation:
 ---------------------------------------------------------------------
 Center     Atomic      Atomic             Coordinates (Angstroms)
 Number     Number       Type             X           Y           Z
 ---------------------------------------------------------------------
      1          6           0       -5.000564    0.917513   -0.301125
      2          6           0       -4.991003   -0.377736    0.226851
      3          6           0       -3.803419   -1.113395    0.281618
      4          6           0       -2.638500   -0.520274   -0.202594
      5          6           0       -2.615771    0.768097   -0.734451
      6          6           0       -3.815008    1.485295   -0.779248
      7          1           0       -5.927634    1.481820   -0.339797
      8          1           0       -5.910216   -0.821219    0.598893
      9          1           0       -3.767557   -2.118002    0.685223
     10          1           0       -1.683589    1.183455   -1.097674
     11          1           0       -3.819450    2.491007   -1.189820
     12          7           0       -1.375090   -1.289311   -0.149891
     13          8           0       -0.362189   -0.744206   -0.582938
     14          8           0       -1.421653   -2.422626    0.323465
     15          6           0        4.582154   -1.094078   -0.857007
     16          6           0        4.276463    0.146046   -1.427238
     17          6           0        3.316629    0.978506   -0.843904
     18          6           0        2.678950    0.537344    0.314558
     19          6           0        2.961578   -0.692702    0.906501
     20          6           0        3.924895   -1.508764    0.305992
     21          1           0        5.329130   -1.734384   -1.316826
     22          1           0        4.785311    0.470686   -2.330414
     23          1           0        3.060613    1.943442   -1.264348
     24          1           0        2.437604   -0.989031    1.807089
     25          1           0        4.160270   -2.471351    0.751043
     26          7           0        1.660974    1.409951    0.941199
     27          8           0        1.113301    0.998248    1.961587
     28          8           0        1.430031    2.489082    0.400106
 ---------------------------------------------------------------------

 SCF Done:  E(RHF) =  -868.340283635     A.U. after   16 cycles
 E2 =    -0.2600260956D+01 EUMP2 =    -0.87094054459075D+03

 The electronic state is 1-A.
 Alpha  occ. eigenvalues --  -20.60567 -20.60534 -20.59885 -20.59860 -15.85588
 Alpha  occ. eigenvalues --  -15.84916 -11.30687 -11.29989 -11.27290 -11.27188
 Alpha  occ. eigenvalues --  -11.27002 -11.26648 -11.26527 -11.26382 -11.26270
 Alpha  occ. eigenvalues --  -11.26192 -11.25661 -11.25565  -1.59604  -1.58925
 Alpha  occ. eigenvalues --   -1.39176  -1.38501  -1.18854  -1.18172  -1.08311
 Alpha  occ. eigenvalues --   -1.07641  -1.04227  -1.03585  -0.95188  -0.94528
 Alpha  occ. eigenvalues --   -0.85645  -0.85009  -0.82047  -0.81400  -0.77106
 Alpha  occ. eigenvalues --   -0.76451  -0.71929  -0.71191  -0.70963  -0.70038
 Alpha  occ. eigenvalues --   -0.69956  -0.69381  -0.64527  -0.64250  -0.63884
 Alpha  occ. eigenvalues --   -0.63653  -0.61577  -0.60970  -0.54778  -0.54171
 Alpha  occ. eigenvalues --   -0.52563  -0.52335  -0.51873  -0.51728  -0.48588
 Alpha  occ. eigenvalues --   -0.48553  -0.47939  -0.47896  -0.44747  -0.43891
 Alpha  occ. eigenvalues --   -0.36841  -0.36113  -0.35806  -0.35141
 Alpha virt. eigenvalues --    0.05386   0.06174   0.11846   0.12511   0.16951
 Alpha virt. eigenvalues --    0.17636   0.21921   0.22422   0.27850   0.28315
 Alpha virt. eigenvalues --    0.28759   0.29320   0.31399   0.31924   0.33027

 Mulliken charges:
               1
     1  C   -0.170113
     2  C   -0.219038
     3  C   -0.170434
     4  C    0.159516
     5  C   -0.165780
     6  C   -0.218753
     7  H    0.224357
     8  H    0.221487
     9  H    0.273297
    10  H    0.280147
    11  H    0.224573
    12  N    0.494511
    13  O   -0.469911
    14  O   -0.462570
    15  C   -0.170278
    16  C   -0.218991
    17  C   -0.171021
    18  C    0.172511
    19  C   -0.157683
    20  C   -0.218213
    21  H    0.221254
    22  H    0.217954
    23  H    0.269205
    24  H    0.275074
    25  H    0.220955
    26  N    0.493790
    27  O   -0.463256
    28  O   -0.472588
 Sum of Mulliken charges =  -0.00000

 Dipole moment (field-independent basis, Debye):
    X=             -1.0491    Y=             -0.4545    Z=             -2.3218  Tot=              2.5881
 Quadrupole moment (field-independent basis, Debye-Ang):
   XX=            -63.0700   YY=           -106.7412   ZZ=           -104.0306
   XY=             -9.3026   XZ=             -5.0208   YZ=             -7.4724

 Normal termination of Gaussian 16 at Thu May  6 08:21:58 2021.
