 Gaussian 16, Revision A.03,
 Gaussian 16:  EM64L-G16RevA.03 25-Dec-2016

 -------------
 #p 6-31g* mp2
 -------------

 ------------------------------------------------------
 Input file generated by CHIRIPA (05-May-2021 14:53:15)
 ------------------------------------------------------
 Symbolic Z-matrix:
 Charge =  0 Multiplicity = 1

                         Standard orientation:
 ---------------------------------------------------------------------
 Center     Atomic      Atomic             Coordinates (Angstroms)
 Number     Number       Type             X           Y           Z
 ---------------------------------------------------------------------
      1          6           0        2.659948   -0.498177    0.397506
      2          6           0        2.355568   -1.942135    0.797912
      3          6           0        0.974548   -2.100423    1.434720
      4          1           0        2.588177    0.144740    1.285454
      5          1           0        1.889506   -0.149386   -0.304033
      6          1           0        3.127126   -2.288558    1.497415
      7          1           0        2.428260   -2.581718   -0.091056
      8          1           0        0.191052   -1.781062    0.739923
      9          1           0        0.893889   -1.486235    2.337420
     10          1           0        0.777704   -3.140390    1.713255
     11          6           0        4.037001   -0.323864   -0.240514
     12          6           0        4.341381    1.120094   -0.640919
     13          6           0        5.722400    1.278383   -1.277727
     14          1           0        4.807443   -0.672655    0.461026
     15          1           0        4.108772   -0.966781   -1.128462
     16          1           0        4.268689    1.759678    0.248049
     17          1           0        3.569823    1.466517   -1.340423
     18          1           0        5.803060    0.664195   -2.180428
     19          1           0        6.505897    0.959021   -0.582930
     20          1           0        5.919245    2.318349   -1.556262
     21          6           0       -1.924492    1.968344    1.720349
     22          6           0       -2.404915    2.428634    0.489964
     23          6           0       -2.790927    1.525016   -0.504529
     24          6           0       -2.682848    0.161861   -0.233570
     25          6           0       -2.208061   -0.327757    0.982217
     26          6           0       -1.827768    0.594041    1.962123
     27          1           0       -1.626850    2.677358    2.487229
     28          1           0       -2.481115    3.495373    0.299418
     29          1           0       -3.166271    1.853985   -1.465942
     30          1           0       -2.143514   -1.397078    1.142855
     31          1           0       -1.455023    0.233704    2.916724
     32          7           0       -3.088473   -0.804382   -1.278675
     33          8           0       -2.983620   -2.000305   -1.015216
     34          8           0       -3.503576   -0.347505   -2.341496
 ---------------------------------------------------------------------

 SCF Done:  E(RHF) =  -669.534592259     A.U. after   15 cycles
 E2 =    -0.2092526214D+01 EUMP2 =    -0.67162711847323D+03

 The electronic state is 1-A.
 Alpha  occ. eigenvalues --  -20.60782 -20.60777 -15.85831 -11.31167 -11.27741
 Alpha  occ. eigenvalues --  -11.27701 -11.27479 -11.26748 -11.26722 -11.21804
 Alpha  occ. eigenvalues --  -11.21767 -11.21583 -11.21507 -11.21396 -11.21199
 Alpha  occ. eigenvalues --   -1.59857  -1.39411  -1.19348  -1.08745  -1.08611
 Alpha  occ. eigenvalues --   -1.04751  -1.03729  -0.96206  -0.95580  -0.87236
 Alpha  occ. eigenvalues --   -0.86144  -0.82414  -0.79818  -0.78427  -0.77454
 Alpha  occ. eigenvalues --   -0.72048  -0.71183  -0.70465  -0.65250  -0.64995
 Alpha  occ. eigenvalues --   -0.64746  -0.62125  -0.61117  -0.59554  -0.57807
 Alpha  occ. eigenvalues --   -0.55527  -0.55235  -0.53210  -0.52929  -0.52809
 Alpha  occ. eigenvalues --   -0.52490  -0.50117  -0.48807  -0.48806  -0.48113
 Alpha  occ. eigenvalues --   -0.46820  -0.45971  -0.45878  -0.44813  -0.43981
 Alpha  occ. eigenvalues --   -0.37329  -0.36273
 Alpha virt. eigenvalues --    0.05051   0.11204   0.16526   0.20966   0.22723
 Alpha virt. eigenvalues --    0.24126   0.25853   0.26485   0.27416   0.28036
 Alpha virt. eigenvalues --    0.29021   0.29563   0.31576   0.31687   0.32115

 Mulliken charges:
               1
     1  C   -0.298102
     2  C   -0.299582
     3  C   -0.481493
     4  H    0.145550
     5  H    0.152048
     6  H    0.151611
     7  H    0.156939
     8  H    0.161466
     9  H    0.145607
    10  H    0.162872
    11  C   -0.298690
    12  C   -0.299577
    13  C   -0.475803
    14  H    0.149261
    15  H    0.152017
    16  H    0.149733
    17  H    0.152590
    18  H    0.156635
    19  H    0.155112
    20  H    0.159974
    21  C   -0.170968
    22  C   -0.218462
    23  C   -0.171314
    24  C    0.157300
    25  C   -0.172061
    26  C   -0.216670
    27  H    0.225443
    28  H    0.223279
    29  H    0.275352
    30  H    0.278833
    31  H    0.224125
    32  N    0.488568
    33  O   -0.461237
    34  O   -0.460360
 Sum of Mulliken charges =  -0.00000

 Dipole moment (field-independent basis, Debye):
    X=              1.4625    Y=              3.3739    Z=              3.6217  Tot=              5.1613
 Quadrupole moment (field-independent basis, Debye-Ang):
   XX=           -103.7374   YY=            -91.0085   ZZ=            -94.5897
   XY=            -10.3226   XZ=             -8.8379   YZ=             -2.4043

 Normal termination of Gaussian 16 at Thu May  6 10:35:17 2021.
