 Gaussian 16, Revision A.03,
 Gaussian 16:  EM64L-G16RevA.03 25-Dec-2016

 -------------
 #p 6-31g* mp2
 -------------

 ------------------------------------------------------
 Input file generated by CHIRIPA (05-May-2021 14:57:25)
 ------------------------------------------------------
 Symbolic Z-matrix:
 Charge =  0 Multiplicity = 1

                         Standard orientation:
 ---------------------------------------------------------------------
 Center     Atomic      Atomic             Coordinates (Angstroms)
 Number     Number       Type             X           Y           Z
 ---------------------------------------------------------------------
      1          6           0        2.895689    2.497367    0.207822
      2          6           0        2.223833    1.830337   -0.821839
      3          6           0        2.469991    0.476700   -1.070075
      4          6           0        3.398572   -0.182039   -0.265656
      5          6           0        4.083981    0.454866    0.767716
      6          6           0        3.821986    1.808717    0.997920
      7          1           0        2.698316    3.548988    0.393653
      8          1           0        1.503932    2.362620   -1.437033
      9          1           0        1.963999   -0.064111   -1.860589
     10          1           0        4.796070   -0.102424    1.364186
     11          1           0        4.345241    2.324182    1.798261
     12          7           0        3.667552   -1.615187   -0.518907
     13          8           0        4.490314   -2.173008    0.203959
     14          8           0        3.050524   -2.153530   -1.435477
     15          6           0       -1.109074   -0.087453    1.374586
     16          6           0       -2.175118   -0.826189    1.898364
     17          6           0       -3.423522   -0.815154    1.269149
     18          6           0       -3.571296   -0.050943    0.112674
     19          6           0       -2.528447    0.695614   -0.433595
     20          6           0       -1.288825    0.669755    0.212328
     21          1           0       -0.142695   -0.101783    1.869865
     22          1           0       -2.038417   -1.415152    2.800850
     23          1           0       -4.265826   -1.377762    1.653096
     24          1           0       -2.695236    1.273184   -1.334712
     25          1           0       -0.462705    1.244442   -0.196704
     26          7           0       -4.888277   -0.031414   -0.562291
     27          8           0       -4.992700    0.649908   -1.579902
     28          8           0       -5.791168   -0.697801   -0.060938
 ---------------------------------------------------------------------

 SCF Done:  E(RHF) =  -868.336910569     A.U. after   16 cycles
 E2 =    -0.2601297358D+01 EUMP2 =    -0.87093820792699D+03

 The electronic state is 1-A.
 Alpha  occ. eigenvalues --  -20.61595 -20.61585 -20.60866 -20.60856 -15.86657
 Alpha  occ. eigenvalues --  -15.85918 -11.32236 -11.31297 -11.28869 -11.28822
 Alpha  occ. eigenvalues --  -11.28610 -11.27921 -11.27905 -11.27848 -11.27819
 Alpha  occ. eigenvalues --  -11.27590 -11.26856 -11.26845  -1.60669  -1.59938
 Alpha  occ. eigenvalues --   -1.40214  -1.39492  -1.20458  -1.19468  -1.09793
 Alpha  occ. eigenvalues --   -1.08853  -1.05894  -1.04883  -0.96580  -0.95688
 Alpha  occ. eigenvalues --   -0.87257  -0.86279  -0.83416  -0.82531  -0.78434
 Alpha  occ. eigenvalues --   -0.77581  -0.72862  -0.72137  -0.72006  -0.71494
 Alpha  occ. eigenvalues --   -0.71261  -0.70568  -0.66088  -0.65901  -0.65121
 Alpha  occ. eigenvalues --   -0.64909  -0.63205  -0.62234  -0.56324  -0.55360
 Alpha  occ. eigenvalues --   -0.54272  -0.53955  -0.53196  -0.52898  -0.49642
 Alpha  occ. eigenvalues --   -0.49607  -0.48897  -0.48890  -0.45570  -0.44896
 Alpha  occ. eigenvalues --   -0.38441  -0.37590  -0.37335  -0.36476
 Alpha virt. eigenvalues --    0.04098   0.04965   0.09983   0.11204   0.15422
 Alpha virt. eigenvalues --    0.16459   0.19835   0.21769   0.25408   0.27400
 Alpha virt. eigenvalues --    0.28079   0.28191   0.29786   0.31379   0.32019

 Mulliken charges:
               1
     1  C   -0.171660
     2  C   -0.231263
     3  C   -0.169986
     4  C    0.156638
     5  C   -0.170987
     6  C   -0.220115
     7  H    0.230025
     8  H    0.224201
     9  H    0.280571
    10  H    0.278934
    11  H    0.227426
    12  N    0.487783
    13  O   -0.458327
    14  O   -0.456595
    15  C   -0.173209
    16  C   -0.217725
    17  C   -0.170480
    18  C    0.159443
    19  C   -0.173070
    20  C   -0.222174
    21  H    0.227139
    22  H    0.224882
    23  H    0.276444
    24  H    0.272821
    25  H    0.221996
    26  N    0.488158
    27  O   -0.461429
    28  O   -0.459440
 Sum of Mulliken charges =  -0.00000

 Dipole moment (field-independent basis, Debye):
    X=              3.9655    Y=              4.8800    Z=              3.3383  Tot=              7.1193
 Quadrupole moment (field-independent basis, Debye-Ang):
   XX=           -141.6673   YY=           -105.6719   ZZ=           -100.0535
   XY=             18.9984   XZ=             -3.3585   YZ=             -4.1012

 Normal termination of Gaussian 16 at Wed May  5 21:09:11 2021.
