 Gaussian 16, Revision A.03,
 Gaussian 16:  EM64L-G16RevA.03 25-Dec-2016

 -------------
 #p 6-31g* mp2
 -------------

 ------------------------------------------------------
 Input file generated by CHIRIPA (05-May-2021 14:55:22)
 ------------------------------------------------------
 Symbolic Z-matrix:
 Charge =  0 Multiplicity = 1

                         Standard orientation:
 ---------------------------------------------------------------------
 Center     Atomic      Atomic             Coordinates (Angstroms)
 Number     Number       Type             X           Y           Z
 ---------------------------------------------------------------------
      1          6           0        1.610527    1.742497   -0.524995
      2          6           0        2.906503    2.039201   -0.090329
      3          6           0        3.829372    1.015051    0.142002
      4          6           0        3.420685   -0.300515   -0.071427
      5          6           0        2.136685   -0.628169   -0.504182
      6          6           0        1.230425    0.412104   -0.730173
      7          1           0        0.900072    2.544344   -0.703013
      8          1           0        3.204469    3.071483    0.069848
      9          1           0        4.839037    1.216478    0.478783
     10          1           0        1.868877   -1.666884   -0.655078
     11          1           0        0.224620    0.178716   -1.067712
     12          7           0        4.388893   -1.393271    0.171175
     13          8           0        4.004171   -2.544109   -0.024266
     14          8           0        5.514164   -1.078244    0.552175
     15          6           0       -4.768599   -0.148732   -0.229447
     16          6           0       -5.354590   -1.379313    0.463568
     17          6           0       -6.542965   -1.973888   -0.292765
     18          1           0       -5.553844    0.611930   -0.337744
     19          1           0       -4.456807   -0.423134   -1.246740
     20          1           0       -5.663915   -1.103003    1.479732
     21          1           0       -4.567810   -2.137059    0.570400
     22          1           0       -6.244860   -2.276996   -1.301657
     23          1           0       -7.347193   -1.237065   -0.387158
     24          1           0       -6.946342   -2.852544    0.220177
     25          6           0       -3.579849    0.456995    0.514659
     26          6           0       -2.993857    1.687575   -0.178356
     27          6           0       -1.805483    2.282150    0.577978
     28          1           0       -3.891640    0.731398    1.531952
     29          1           0       -2.794602   -0.303667    0.622956
     30          1           0       -3.780636    2.445322   -0.285187
     31          1           0       -2.684532    1.411267   -1.194519
     32          1           0       -1.001253    1.545329    0.672370
     33          1           0       -2.103586    2.585259    1.586869
     34          1           0       -1.402106    3.160807    0.065035
 ---------------------------------------------------------------------

 SCF Done:  E(RHF) =  -669.534005156     A.U. after   15 cycles
 E2 =    -0.2092732904D+01 EUMP2 =    -0.67162673806049D+03

 The electronic state is 1-A.
 Alpha  occ. eigenvalues --  -20.60743 -20.60738 -15.85799 -11.31155 -11.27748
 Alpha  occ. eigenvalues --  -11.27741 -11.27404 -11.26725 -11.26711 -11.22626
 Alpha  occ. eigenvalues --  -11.22206 -11.22175 -11.22110 -11.22016 -11.21479
 Alpha  occ. eigenvalues --   -1.59820  -1.39374  -1.19339  -1.09202  -1.08727
 Alpha  occ. eigenvalues --   -1.04752  -1.04305  -0.96780  -0.95554  -0.87798
 Alpha  occ. eigenvalues --   -0.86140  -0.82398  -0.80384  -0.78959  -0.77451
 Alpha  occ. eigenvalues --   -0.72018  -0.71144  -0.70455  -0.65888  -0.64989
 Alpha  occ. eigenvalues --   -0.64754  -0.62178  -0.61599  -0.60192  -0.58355
 Alpha  occ. eigenvalues --   -0.56098  -0.55236  -0.53440  -0.53261  -0.52956
 Alpha  occ. eigenvalues --   -0.52821  -0.50659  -0.48789  -0.48772  -0.48662
 Alpha  occ. eigenvalues --   -0.47411  -0.46504  -0.46415  -0.44782  -0.44551
 Alpha  occ. eigenvalues --   -0.37248  -0.36346
 Alpha virt. eigenvalues --    0.05087   0.11148   0.16555   0.19289   0.22591
 Alpha virt. eigenvalues --    0.23993   0.25145   0.26193   0.26921   0.27815
 Alpha virt. eigenvalues --    0.29147   0.29935   0.31199   0.31489   0.32134

 Mulliken charges:
               1
     1  C   -0.168893
     2  C   -0.220608
     3  C   -0.170401
     4  C    0.157862
     5  C   -0.171693
     6  C   -0.224109
     7  H    0.232482
     8  H    0.223532
     9  H    0.275562
    10  H    0.275396
    11  H    0.225521
    12  N    0.488152
    13  O   -0.460684
    14  O   -0.460529
    15  C   -0.298686
    16  C   -0.300276
    17  C   -0.476140
    18  H    0.151364
    19  H    0.148719
    20  H    0.153405
    21  H    0.152653
    22  H    0.155516
    23  H    0.155830
    24  H    0.162380
    25  C   -0.299010
    26  C   -0.301295
    27  C   -0.486868
    28  H    0.153260
    29  H    0.148054
    30  H    0.156637
    31  H    0.146725
    32  H    0.160741
    33  H    0.162518
    34  H    0.152887
 Sum of Mulliken charges =  -0.00000

 Dipole moment (field-independent basis, Debye):
    X=             -3.5873    Y=              3.8454    Z=             -0.7783  Tot=              5.3162
 Quadrupole moment (field-independent basis, Debye-Ang):
   XX=           -115.6111   YY=            -95.0998   ZZ=            -94.9817
   XY=             16.2694   XZ=             -2.5675   YZ=              1.1984

 Normal termination of Gaussian 16 at Thu May  6 09:22:57 2021.
