 Gaussian 16, Revision A.03,
 Gaussian 16:  EM64L-G16RevA.03 25-Dec-2016

 -------------
 #p 6-31g* mp2
 -------------

 ------------------------------------------------------
 Input file generated by CHIRIPA (05-May-2021 14:53:15)
 ------------------------------------------------------
 Symbolic Z-matrix:
 Charge =  0 Multiplicity = 1

                         Standard orientation:
 ---------------------------------------------------------------------
 Center     Atomic      Atomic             Coordinates (Angstroms)
 Number     Number       Type             X           Y           Z
 ---------------------------------------------------------------------
      1          6           0        3.167539   -0.000255   -0.053039
      2          6           0        2.752211   -1.458075    0.147583
      3          6           0        3.937470   -2.373297    0.456331
      4          1           0        3.899298    0.056707   -0.870492
      5          1           0        3.680720    0.355278    0.851193
      6          1           0        2.238743   -1.810331   -0.756232
      7          1           0        2.021212   -1.511550    0.964526
      8          1           0        4.446817   -2.049152    1.369620
      9          1           0        4.665583   -2.349631   -0.360916
     10          1           0        3.617907   -3.410704    0.596061
     11          6           0        1.993597    0.927028   -0.362451
     12          6           0        2.408925    2.384848   -0.563073
     13          6           0        1.223666    3.300069   -0.871821
     14          1           0        1.480417    0.571494   -1.266683
     15          1           0        1.261839    0.870065    0.455002
     16          1           0        3.139924    2.438323   -1.380016
     17          1           0        2.922394    2.737103    0.340743
     18          1           0        0.495553    3.276403   -0.054574
     19          1           0        0.714320    2.975925   -1.785110
     20          1           0        1.543230    4.337477   -1.011551
     21          6           0       -1.705023    0.376159    2.554844
     22          6           0       -2.787080    0.855692    1.809375
     23          6           0       -2.969292    0.453459    0.482893
     24          6           0       -2.046139   -0.433385   -0.069002
     25          6           0       -0.958038   -0.928768    0.647881
     26          6           0       -0.795560   -0.512972    1.972744
     27          1           0       -1.571141    0.693893    3.584659
     28          1           0       -3.494955    1.546294    2.258846
     29          1           0       -3.798140    0.809156   -0.117031
     30          1           0       -0.268990   -1.616241    0.172473
     31          1           0        0.045707   -0.887013    2.549295
     32          7           0       -2.228594   -0.866391   -1.472432
     33          8           0       -1.401283   -1.648507   -1.935558
     34          8           0       -3.195460   -0.415465   -2.082739
 ---------------------------------------------------------------------

 SCF Done:  E(RHF) =  -669.533649063     A.U. after   15 cycles
 E2 =    -0.2095351888D+01 EUMP2 =    -0.67162900095046D+03

 The electronic state is 1-A.
 Alpha  occ. eigenvalues --  -20.60780 -20.60775 -15.85826 -11.31131 -11.27753
 Alpha  occ. eigenvalues --  -11.27666 -11.27516 -11.26746 -11.26717 -11.22154
 Alpha  occ. eigenvalues --  -11.21673 -11.21668 -11.21456 -11.21369 -11.21099
 Alpha  occ. eigenvalues --   -1.59849  -1.39405  -1.19350  -1.08752  -1.08683
 Alpha  occ. eigenvalues --   -1.04759  -1.03786  -0.96196  -0.95586  -0.87222
 Alpha  occ. eigenvalues --   -0.86150  -0.82443  -0.79923  -0.78563  -0.77401
 Alpha  occ. eigenvalues --   -0.72047  -0.71168  -0.70460  -0.65390  -0.64960
 Alpha  occ. eigenvalues --   -0.64743  -0.62148  -0.61162  -0.59565  -0.57835
 Alpha  occ. eigenvalues --   -0.55488  -0.55265  -0.53227  -0.52964  -0.52784
 Alpha  occ. eigenvalues --   -0.52545  -0.50141  -0.48808  -0.48803  -0.48182
 Alpha  occ. eigenvalues --   -0.46937  -0.45990  -0.45905  -0.44801  -0.44008
 Alpha  occ. eigenvalues --   -0.37342  -0.36201
 Alpha virt. eigenvalues --    0.05058   0.11219   0.16440   0.20372   0.22979
 Alpha virt. eigenvalues --    0.23970   0.25589   0.25931   0.27770   0.28169
 Alpha virt. eigenvalues --    0.29499   0.29894   0.31505   0.31595   0.32109

 Mulliken charges:
               1
     1  C   -0.296299
     2  C   -0.309981
     3  C   -0.474717
     4  H    0.153375
     5  H    0.147063
     6  H    0.164165
     7  H    0.138323
     8  H    0.154032
     9  H    0.159704
    10  H    0.161172
    11  C   -0.310066
    12  C   -0.298657
    13  C   -0.476579
    14  H    0.156513
    15  H    0.154247
    16  H    0.153274
    17  H    0.148990
    18  H    0.153188
    19  H    0.159261
    20  H    0.159957
    21  C   -0.170794
    22  C   -0.219675
    23  C   -0.170026
    24  C    0.158504
    25  C   -0.169132
    26  C   -0.225306
    27  H    0.225592
    28  H    0.223370
    29  H    0.275564
    30  H    0.283907
    31  H    0.224813
    32  N    0.488350
    33  O   -0.461861
    34  O   -0.460270
 Sum of Mulliken charges =  -0.00000

 Dipole moment (field-independent basis, Debye):
    X=              0.6722    Y=              1.5005    Z=              4.8033  Tot=              5.0769
 Quadrupole moment (field-independent basis, Debye-Ang):
   XX=            -94.6499   YY=            -95.6931   ZZ=            -95.1240
   XY=             -5.7665   XZ=            -10.5679   YZ=             -2.0297

 Normal termination of Gaussian 16 at Wed May  5 15:37:39 2021.
