 Gaussian 16, Revision A.03,
 Gaussian 16:  EM64L-G16RevA.03 25-Dec-2016

 -------------
 #p 6-31g* mp2
 -------------

 ------------------------------------------------------
 Input file generated by CHIRIPA (05-May-2021 14:53:17)
 ------------------------------------------------------
 Symbolic Z-matrix:
 Charge =  0 Multiplicity = 1

                         Standard orientation:
 ---------------------------------------------------------------------
 Center     Atomic      Atomic             Coordinates (Angstroms)
 Number     Number       Type             X           Y           Z
 ---------------------------------------------------------------------
      1          6           0       -3.525441   -0.445336   -0.626957
      2          6           0       -3.760526   -1.905443   -0.238614
      3          6           0       -3.125024   -2.888453   -1.222292
      4          1           0       -3.928637   -0.270894   -1.633906
      5          1           0       -2.444258   -0.258541   -0.686496
      6          1           0       -4.840933   -2.089070   -0.178474
      7          1           0       -3.356894   -2.076381    0.767605
      8          1           0       -2.042500   -2.734013   -1.276059
      9          1           0       -3.534971   -2.746774   -2.227514
     10          1           0       -3.305316   -3.926386   -0.925560
     11          6           0       -4.154730    0.549393    0.346818
     12          6           0       -3.919645    2.009499   -0.041525
     13          6           0       -4.555148    2.992510    0.942153
     14          1           0       -5.235914    0.362597    0.406357
     15          1           0       -3.751534    0.374951    1.353767
     16          1           0       -4.323277    2.180437   -1.047744
     17          1           0       -2.839238    2.193126   -0.101665
     18          1           0       -4.145201    2.850831    1.947375
     19          1           0       -5.637672    2.838070    0.995920
     20          1           0       -4.374855    4.030442    0.645421
     21          6           0        1.287341   -1.651713    1.024286
     22          6           0        2.649217   -1.872377    1.254769
     23          6           0        3.607000   -0.986326    0.752659
     24          6           0        3.165647    0.115105    0.020984
     25          6           0        1.816029    0.362181   -0.225538
     26          6           0        0.875819   -0.537103    0.286170
     27          1           0        0.550140   -2.345157    1.418065
     28          1           0        2.971710   -2.737158    1.827655
     29          1           0        4.667717   -1.133139    0.916190
     30          1           0        1.525097    1.233087   -0.800252
     31          1           0       -0.181161   -0.363213    0.105612
     32          7           0        4.170306    1.060131   -0.515657
     33          8           0        3.755686    2.023021   -1.157195
     34          8           0        5.353355    0.820061   -0.284577
 ---------------------------------------------------------------------

 SCF Done:  E(RHF) =  -669.535496899     A.U. after   15 cycles
 E2 =    -0.2091397339D+01 EUMP2 =    -0.67162689423786D+03

 The electronic state is 1-A.
 Alpha  occ. eigenvalues --  -20.60760 -20.60755 -15.85814 -11.31186 -11.27758
 Alpha  occ. eigenvalues --  -11.27754 -11.27505 -11.26773 -11.26757 -11.22558
 Alpha  occ. eigenvalues --  -11.22407 -11.22280 -11.22171 -11.21957 -11.21579
 Alpha  occ. eigenvalues --   -1.59835  -1.39389  -1.19361  -1.09300  -1.08755
 Alpha  occ. eigenvalues --   -1.04767  -1.04315  -0.96760  -0.95588  -0.87769
 Alpha  occ. eigenvalues --   -0.86167  -0.82422  -0.80384  -0.79108  -0.77466
 Alpha  occ. eigenvalues --   -0.72032  -0.71158  -0.70469  -0.66015  -0.65013
 Alpha  occ. eigenvalues --   -0.64737  -0.62133  -0.61695  -0.60128  -0.58362
 Alpha  occ. eigenvalues --   -0.56071  -0.55262  -0.53421  -0.53187  -0.53093
 Alpha  occ. eigenvalues --   -0.52858  -0.50701  -0.48801  -0.48786  -0.48681
 Alpha  occ. eigenvalues --   -0.47437  -0.46623  -0.46566  -0.44792  -0.44591
 Alpha  occ. eigenvalues --   -0.37343  -0.36368
 Alpha virt. eigenvalues --    0.05070   0.11245   0.16556   0.18310   0.22906
 Alpha virt. eigenvalues --    0.23641   0.24734   0.26189   0.27078   0.28313
 Alpha virt. eigenvalues --    0.29242   0.30759   0.31011   0.31276   0.31600

 Mulliken charges:
               1
     1  C   -0.303837
     2  C   -0.300443
     3  C   -0.476614
     4  H    0.155622
     5  H    0.142526
     6  H    0.156889
     7  H    0.147314
     8  H    0.151024
     9  H    0.159774
    10  H    0.162487
    11  C   -0.298868
    12  C   -0.299375
    13  C   -0.476259
    14  H    0.153229
    15  H    0.148392
    16  H    0.154679
    17  H    0.148273
    18  H    0.155691
    19  H    0.156604
    20  H    0.163414
    21  C   -0.173787
    22  C   -0.218460
    23  C   -0.171048
    24  C    0.158878
    25  C   -0.173582
    26  C   -0.227342
    27  H    0.226429
    28  H    0.223478
    29  H    0.275644
    30  H    0.276040
    31  H    0.235974
    32  N    0.488089
    33  O   -0.460327
    34  O   -0.460509
 Sum of Mulliken charges =  -0.00000

 Dipole moment (field-independent basis, Debye):
    X=             -3.7581    Y=             -3.3091    Z=              1.8598  Tot=              5.3416
 Quadrupole moment (field-independent basis, Debye-Ang):
   XX=           -113.0712   YY=            -94.8893   ZZ=            -94.5873
   XY=            -13.0989   XZ=              8.5825   YZ=             -1.6118

 Normal termination of Gaussian 16 at Thu May  6 17:17:04 2021.
