 Gaussian 16, Revision A.03,
 Gaussian 16:  EM64L-G16RevA.03 25-Dec-2016

 -------------
 #p 6-31g* mp2
 -------------

 ------------------------------------------------------
 Input file generated by CHIRIPA (05-May-2021 14:51:12)
 ------------------------------------------------------
 Symbolic Z-matrix:
 Charge =  0 Multiplicity = 1

                         Standard orientation:
 ---------------------------------------------------------------------
 Center     Atomic      Atomic             Coordinates (Angstroms)
 Number     Number       Type             X           Y           Z
 ---------------------------------------------------------------------
      1          6           0        2.547138   -0.367904   -0.280080
      2          6           0        3.255695   -0.902329   -1.525199
      3          6           0        3.157750   -2.422700   -1.654322
      4          1           0        2.979536   -0.841683    0.611833
      5          1           0        1.490229   -0.666822   -0.311481
      6          1           0        4.310642   -0.601313   -1.492141
      7          1           0        2.821690   -0.427079   -2.414240
      8          1           0        2.110868   -2.737728   -1.712592
      9          1           0        3.608279   -2.912951   -0.785255
     10          1           0        3.670983   -2.783332   -2.551204
     11          6           0        2.636262    1.150431   -0.137099
     12          6           0        1.927705    1.684857    1.108020
     13          6           0        2.025650    3.205228    1.237143
     14          1           0        3.693171    1.449350   -0.105698
     15          1           0        2.203864    1.624211   -1.029013
     16          1           0        2.361710    1.209607    1.997060
     17          1           0        0.872758    1.383840    1.074962
     18          1           0        1.575120    3.695479    0.368075
     19          1           0        3.072532    3.520256    1.295413
     20          1           0        1.512417    3.565860    2.134024
     21          6           0       -2.587824    0.110350   -0.367432
     22          6           0       -3.972220    0.352891   -0.969600
     23          6           0       -3.948147    1.358763   -2.120875
     24          1           0       -2.176603    1.065510   -0.013158
     25          1           0       -1.910818   -0.248516   -1.155006
     26          1           0       -4.646772    0.709873   -0.180829
     27          1           0       -4.380274   -0.602988   -1.322308
     28          1           0       -3.297407    1.005671   -2.927389
     29          1           0       -3.565419    2.325992   -1.779425
     30          1           0       -4.948135    1.517186   -2.536548
     31          6           0       -2.595575   -0.892877    0.784611
     32          6           0       -1.211180   -1.135418    1.386779
     33          6           0       -1.235254   -2.141291    2.538054
     34          1           0       -3.272582   -0.534012    1.572186
     35          1           0       -3.006797   -1.848038    0.430338
     36          1           0       -0.803125   -0.179539    1.739488
     37          1           0       -0.536627   -1.492402    0.598009
     38          1           0       -1.617981   -3.108520    2.196605
     39          1           0       -1.885993   -1.788199    3.344568
     40          1           0       -0.235265   -2.299714    2.953729
 ---------------------------------------------------------------------

 SCF Done:  E(RHF) =  -470.732544123     A.U. after   11 cycles
 E2 =    -0.1584244722D+01 EUMP2 =    -0.47231678884515D+03

 The electronic state is 1-A.
 Alpha  occ. eigenvalues --  -11.21655 -11.21587 -11.21575 -11.21536 -11.21468
 Alpha  occ. eigenvalues --  -11.21394 -11.21346 -11.21276 -11.21116 -11.21078
 Alpha  occ. eigenvalues --  -11.21071 -11.21052  -1.08494  -1.08378  -1.03566
 Alpha  occ. eigenvalues --   -1.03503  -0.96013  -0.95954  -0.87031  -0.86972
 Alpha  occ. eigenvalues --   -0.79684  -0.79559  -0.78464  -0.78026  -0.65122
 Alpha  occ. eigenvalues --   -0.65028  -0.61062  -0.60824  -0.59401  -0.59306
 Alpha  occ. eigenvalues --   -0.57644  -0.57548  -0.55310  -0.55240  -0.52716
 Alpha  occ. eigenvalues --   -0.52645  -0.52439  -0.52388  -0.50019  -0.49859
 Alpha  occ. eigenvalues --   -0.48107  -0.47925  -0.46868  -0.46460  -0.46272
 Alpha  occ. eigenvalues --   -0.45719  -0.45619  -0.45056  -0.43815  -0.43743
 Alpha virt. eigenvalues --    0.21068   0.23249   0.23490   0.24051   0.25182
 Alpha virt. eigenvalues --    0.26237   0.26928   0.27919   0.28038   0.29861
 Alpha virt. eigenvalues --    0.30420   0.31591   0.31819   0.31973   0.32075

 Mulliken charges:
               1
     1  C   -0.305775
     2  C   -0.299155
     3  C   -0.475524
     4  H    0.148787
     5  H    0.158164
     6  H    0.151830
     7  H    0.151586
     8  H    0.153995
     9  H    0.155280
    10  H    0.160299
    11  C   -0.297304
    12  C   -0.306774
    13  C   -0.475272
    14  H    0.149152
    15  H    0.149368
    16  H    0.151216
    17  H    0.159415
    18  H    0.154980
    19  H    0.155159
    20  H    0.159559
    21  C   -0.299571
    22  C   -0.299563
    23  C   -0.475788
    24  H    0.149739
    25  H    0.148649
    26  H    0.152283
    27  H    0.152261
    28  H    0.155075
    29  H    0.155228
    30  H    0.160532
    31  C   -0.297483
    32  C   -0.310024
    33  C   -0.474892
    34  H    0.149570
    35  H    0.149622
    36  H    0.158179
    37  H    0.156442
    38  H    0.154948
    39  H    0.154955
    40  H    0.160854
 Sum of Mulliken charges =  -0.00000

 Dipole moment (field-independent basis, Debye):
    X=             -0.0354    Y=             -0.0128    Z=              0.0146  Tot=              0.0404
 Quadrupole moment (field-independent basis, Debye-Ang):
   XX=            -84.0999   YY=            -85.9576   ZZ=            -84.8380
   XY=             -0.1312   XZ=              0.2646   YZ=              0.7660

 Normal termination of Gaussian 16 at Wed May  5 15:18:23 2021.
