 Gaussian 16, Revision A.03,
 Gaussian 16:  EM64L-G16RevA.03 25-Dec-2016

 -------------
 #p 6-31g* mp2
 -------------

 ------------------------------------------------------
 Input file generated by CHIRIPA (05-May-2021 14:57:22)
 ------------------------------------------------------
 Symbolic Z-matrix:
 Charge =  0 Multiplicity = 1

                         Standard orientation:
 ---------------------------------------------------------------------
 Center     Atomic      Atomic             Coordinates (Angstroms)
 Number     Number       Type             X           Y           Z
 ---------------------------------------------------------------------
      1          6           0        3.034873    2.753873   -0.091014
      2          6           0        1.996908    1.927675   -0.534349
      3          6           0        2.115971    0.536640   -0.460918
      4          6           0        3.292164    0.003214    0.063789
      5          6           0        4.343942    0.799886    0.513640
      6          6           0        4.203018    2.188339    0.430646
      7          1           0        2.933891    3.833460   -0.151771
      8          1           0        1.088569    2.364100   -0.939936
      9          1           0        1.327967   -0.126348   -0.796947
     10          1           0        5.237391    0.335571    0.913111
     11          1           0        5.010746    2.827525    0.775700
     12          7           0        3.429782   -1.468046    0.146589
     13          8           0        4.476164   -1.913286    0.612940
     14          8           0        2.488661   -2.148120   -0.256432
     15          6           0       -4.968555    1.498420    0.611020
     16          6           0       -4.268907    1.624033   -0.593652
     17          6           0       -3.325215    0.663683   -0.970112
     18          6           0       -3.105222   -0.414310   -0.114060
     19          6           0       -3.786256   -0.567391    1.092608
     20          6           0       -4.725425    0.405038    1.448828
     21          1           0       -5.699882    2.249134    0.895602
     22          1           0       -4.455668    2.472116   -1.246277
     23          1           0       -2.769415    0.736283   -1.897061
     24          1           0       -3.578406   -1.423885    1.722396
     25          1           0       -5.267298    0.304902    2.384986
     26          7           0       -2.108571   -1.437382   -0.501889
     27          8           0       -1.933061   -2.377740    0.269836
     28          8           0       -1.521780   -1.279536   -1.570251
 ---------------------------------------------------------------------

 SCF Done:  E(RHF) =  -868.337203084     A.U. after   16 cycles
 E2 =    -0.2599779504D+01 EUMP2 =    -0.87093698258780D+03

 The electronic state is 1-A.
 Alpha  occ. eigenvalues --  -20.61019 -20.60948 -20.59916 -20.59839 -15.86022
 Alpha  occ. eigenvalues --  -15.84935 -11.31482 -11.30502 -11.28094 -11.28014
 Alpha  occ. eigenvalues --  -11.27798 -11.27166 -11.27108 -11.27050 -11.27000
 Alpha  occ. eigenvalues --  -11.26979 -11.26231 -11.26197  -1.60038  -1.58963
 Alpha  occ. eigenvalues --   -1.39594  -1.38502  -1.19657  -1.18724  -1.09029
 Alpha  occ. eigenvalues --   -1.08099  -1.05072  -1.04154  -0.95846  -0.94883
 Alpha  occ. eigenvalues --   -0.86463  -0.85547  -0.82677  -0.81705  -0.77719
 Alpha  occ. eigenvalues --   -0.76698  -0.72217  -0.71381  -0.71137  -0.70755
 Alpha  occ. eigenvalues --   -0.70300  -0.69831  -0.65304  -0.65067  -0.64374
 Alpha  occ. eigenvalues --   -0.64174  -0.62416  -0.61472  -0.55556  -0.54690
 Alpha  occ. eigenvalues --   -0.53399  -0.53159  -0.52491  -0.52247  -0.48987
 Alpha  occ. eigenvalues --   -0.48960  -0.47947  -0.47879  -0.44966  -0.43863
 Alpha  occ. eigenvalues --   -0.37639  -0.36754  -0.36684  -0.35774
 Alpha virt. eigenvalues --    0.04781   0.05824   0.10964   0.11873   0.16241
 Alpha virt. eigenvalues --    0.17250   0.21067   0.21975   0.26928   0.27543
 Alpha virt. eigenvalues --    0.28246   0.28932   0.30771   0.31436   0.32327

 Mulliken charges:
               1
     1  C   -0.171415
     2  C   -0.220150
     3  C   -0.177592
     4  C    0.157372
     5  C   -0.171141
     6  C   -0.219433
     7  H    0.221545
     8  H    0.218509
     9  H    0.291552
    10  H    0.274195
    11  H    0.220611
    12  N    0.486273
    13  O   -0.465827
    14  O   -0.448617
    15  C   -0.171041
    16  C   -0.218683
    17  C   -0.174449
    18  C    0.158397
    19  C   -0.170441
    20  C   -0.218326
    21  H    0.226182
    22  H    0.222702
    23  H    0.272795
    24  H    0.278321
    25  H    0.224972
    26  N    0.486897
    27  O   -0.448992
    28  O   -0.464214
 Sum of Mulliken charges =  -0.00000

 Dipole moment (field-independent basis, Debye):
    X=             -4.2795    Y=              8.4646    Z=              1.1256  Tot=              9.5514
 Quadrupole moment (field-independent basis, Debye-Ang):
   XX=            -83.2522   YY=           -107.6289   ZZ=           -101.8203
   XY=              8.2139   XZ=             -4.2333   YZ=             -2.8468

 Normal termination of Gaussian 16 at Thu May  6 00:11:23 2021.
