 Gaussian 16, Revision A.03,
 Gaussian 16:  EM64L-G16RevA.03 25-Dec-2016

 -------------
 #p 6-31g* mp2
 -------------

 ------------------------------------------------------
 Input file generated by CHIRIPA (05-May-2021 14:55:20)
 ------------------------------------------------------
 Symbolic Z-matrix:
 Charge =  0 Multiplicity = 1

                         Standard orientation:
 ---------------------------------------------------------------------
 Center     Atomic      Atomic             Coordinates (Angstroms)
 Number     Number       Type             X           Y           Z
 ---------------------------------------------------------------------
      1          6           0        2.808603    2.513035   -0.143478
      2          6           0        4.143553    2.143396   -0.337890
      3          6           0        4.512519    0.794956   -0.348916
      4          6           0        3.516211   -0.161895   -0.161578
      5          6           0        2.177734    0.174733    0.034513
      6          6           0        1.831676    1.529258    0.041777
      7          1           0        2.530879    3.562899   -0.136374
      8          1           0        4.904371    2.905254   -0.482017
      9          1           0        5.538552    0.480864   -0.497312
     10          1           0        1.441701   -0.607442    0.175492
     11          1           0        0.794157    1.813398    0.192981
     12          7           0        3.894693   -1.592650   -0.171259
     13          8           0        2.998042   -2.416457   -0.003939
     14          8           0        5.080831   -1.863176   -0.345984
     15          6           0       -3.738242   -0.423732    0.300059
     16          6           0       -2.801978    0.373963    1.208397
     17          6           0       -1.440180   -0.297280    1.389323
     18          1           0       -3.876523   -1.429682    0.719449
     19          1           0       -3.260849   -0.556858   -0.680639
     20          1           0       -3.281581    0.506734    2.186645
     21          1           0       -2.666063    1.378194    0.786897
     22          1           0       -0.937690   -0.415576    0.423864
     23          1           0       -1.556704   -1.291987    1.831567
     24          1           0       -0.786772    0.289834    2.042175
     25          6           0       -5.103569    0.234522    0.109495
     26          6           0       -6.039833   -0.563173   -0.798843
     27          6           0       -7.401631    0.108069   -0.979769
     28          1           0       -5.580962    0.367648    1.090193
     29          1           0       -4.965287    1.240471   -0.309895
     30          1           0       -6.175748   -1.567404   -0.377343
     31          1           0       -5.560231   -0.695944   -1.777092
     32          1           0       -7.285107    1.102776   -1.422013
     33          1           0       -7.904121    0.226366   -0.014311
     34          1           0       -8.055039   -0.479044   -1.632622
 ---------------------------------------------------------------------

 SCF Done:  E(RHF) =  -669.535322099     A.U. after   15 cycles
 E2 =    -0.2091541891D+01 EUMP2 =    -0.67162686399029D+03

 The electronic state is 1-A.
 Alpha  occ. eigenvalues --  -20.60694 -20.60688 -15.85745 -11.31088 -11.27678
 Alpha  occ. eigenvalues --  -11.27610 -11.27420 -11.26694 -11.26645 -11.22312
 Alpha  occ. eigenvalues --  -11.21956 -11.21888 -11.21864 -11.21753 -11.21311
 Alpha  occ. eigenvalues --   -1.59769  -1.39322  -1.19269  -1.08908  -1.08671
 Alpha  occ. eigenvalues --   -1.04675  -1.04044  -0.96511  -0.95505  -0.87537
 Alpha  occ. eigenvalues --   -0.86069  -0.82340  -0.80124  -0.78684  -0.77379
 Alpha  occ. eigenvalues --   -0.71965  -0.71092  -0.70391  -0.65548  -0.64922
 Alpha  occ. eigenvalues --   -0.64678  -0.62155  -0.61346  -0.59879  -0.58097
 Alpha  occ. eigenvalues --   -0.55805  -0.55159  -0.53227  -0.53040  -0.52962
 Alpha  occ. eigenvalues --   -0.52656  -0.50440  -0.48722  -0.48720  -0.48417
 Alpha  occ. eigenvalues --   -0.47138  -0.46232  -0.46136  -0.44732  -0.44282
 Alpha  occ. eigenvalues --   -0.37260  -0.36268
 Alpha virt. eigenvalues --    0.05131   0.11373   0.16589   0.20071   0.22606
 Alpha virt. eigenvalues --    0.23739   0.25602   0.26313   0.26875   0.28042
 Alpha virt. eigenvalues --    0.29122   0.30385   0.31239   0.31371   0.31719

 Mulliken charges:
               1
     1  C   -0.170980
     2  C   -0.218862
     3  C   -0.170690
     4  C    0.159988
     5  C   -0.178208
     6  C   -0.222948
     7  H    0.225133
     8  H    0.223031
     9  H    0.275250
    10  H    0.283294
    11  H    0.226893
    12  N    0.488101
    13  O   -0.460335
    14  O   -0.460896
    15  C   -0.299158
    16  C   -0.300346
    17  C   -0.484558
    18  H    0.153309
    19  H    0.150528
    20  H    0.155835
    21  H    0.147491
    22  H    0.149483
    23  H    0.166133
    24  H    0.159899
    25  C   -0.298620
    26  C   -0.300171
    27  C   -0.475964
    28  H    0.150423
    29  H    0.148627
    30  H    0.153561
    31  H    0.152707
    32  H    0.154829
    33  H    0.155585
    34  H    0.161636
 Sum of Mulliken charges =  -0.00000

 Dipole moment (field-independent basis, Debye):
    X=             -1.5423    Y=              4.9610    Z=              0.0840  Tot=              5.1959
 Quadrupole moment (field-independent basis, Debye-Ang):
   XX=           -100.0120   YY=            -96.5350   ZZ=            -94.7984
   XY=             20.2681   XZ=             -1.1623   YZ=             -1.5003

 Normal termination of Gaussian 16 at Thu May  6 15:48:08 2021.
