 Gaussian 16, Revision A.03,
 Gaussian 16:  EM64L-G16RevA.03 25-Dec-2016

 -------------
 #p 6-31g* mp2
 -------------

 ------------------------------------------------------
 Input file generated by CHIRIPA (05-May-2021 14:55:19)
 ------------------------------------------------------
 Symbolic Z-matrix:
 Charge =  0 Multiplicity = 1

                         Standard orientation:
 ---------------------------------------------------------------------
 Center     Atomic      Atomic             Coordinates (Angstroms)
 Number     Number       Type             X           Y           Z
 ---------------------------------------------------------------------
      1          6           0       -2.912273   -2.182952   -0.956084
      2          6           0       -1.751948   -1.594170   -0.442761
      3          6           0       -1.767671   -0.271810    0.010743
      4          6           0       -2.966420    0.435782   -0.064125
      5          6           0       -4.138986   -0.122932   -0.570306
      6          6           0       -4.099995   -1.446752   -1.018109
      7          1           0       -2.891022   -3.210760   -1.306162
      8          1           0       -0.828124   -2.163517   -0.393382
      9          1           0       -0.883949    0.208629    0.412779
     10          1           0       -5.044899    0.469866   -0.606789
     11          1           0       -5.002646   -1.901427   -1.416276
     12          7           0       -2.995382    1.836478    0.412962
     13          8           0       -4.064145    2.438554    0.336247
     14          8           0       -1.948770    2.305744    0.854583
     15          6           0        4.061555    0.417941   -0.035080
     16          6           0        5.433255    0.338251   -0.705956
     17          6           0        5.961386    1.707147   -1.136065
     18          1           0        3.348637    0.886673   -0.727166
     19          1           0        4.127256    1.078337    0.840680
     20          1           0        5.365315   -0.322897   -1.579388
     21          1           0        6.142946   -0.130520   -0.012263
     22          1           0        6.057692    2.371916   -0.271537
     23          1           0        5.275642    2.178446   -1.847567
     24          1           0        6.943039    1.626878   -1.613323
     25          6           0        3.520260   -0.942563    0.400532
     26          6           0        2.148561   -0.862872    1.071407
     27          6           0        1.620430   -2.231768    1.501517
     28          1           0        3.454560   -1.602958   -0.475228
     29          1           0        4.233179   -1.411294    1.092617
     30          1           0        1.438869   -0.394101    0.377715
     31          1           0        2.216501   -0.201725    1.944840
     32          1           0        2.306173   -2.703067    2.213018
     33          1           0        1.524124   -2.896536    0.636989
     34          1           0        0.638776   -2.151499    1.978774
 ---------------------------------------------------------------------

 SCF Done:  E(RHF) =  -669.535236429     A.U. after   15 cycles
 E2 =    -0.2092206291D+01 EUMP2 =    -0.67162744272013D+03

 The electronic state is 1-A.
 Alpha  occ. eigenvalues --  -20.60721 -20.60715 -15.85771 -11.31120 -11.27697
 Alpha  occ. eigenvalues --  -11.27649 -11.27429 -11.26715 -11.26650 -11.22384
 Alpha  occ. eigenvalues --  -11.21996 -11.21908 -11.21816 -11.21651 -11.21174
 Alpha  occ. eigenvalues --   -1.59796  -1.39349  -1.19293  -1.08897  -1.08691
 Alpha  occ. eigenvalues --   -1.04703  -1.04025  -0.96474  -0.95530  -0.87492
 Alpha  occ. eigenvalues --   -0.86089  -0.82362  -0.80120  -0.78653  -0.77411
 Alpha  occ. eigenvalues --   -0.71991  -0.71119  -0.70415  -0.65560  -0.64940
 Alpha  occ. eigenvalues --   -0.64701  -0.62242  -0.61277  -0.59828  -0.58050
 Alpha  occ. eigenvalues --   -0.55778  -0.55170  -0.53217  -0.53032  -0.52878
 Alpha  occ. eigenvalues --   -0.52769  -0.50391  -0.48750  -0.48746  -0.48404
 Alpha  occ. eigenvalues --   -0.47144  -0.46194  -0.46088  -0.44758  -0.44251
 Alpha  occ. eigenvalues --   -0.37278  -0.36290
 Alpha virt. eigenvalues --    0.05100   0.11349   0.16552   0.19500   0.22851
 Alpha virt. eigenvalues --    0.23847   0.25426   0.26116   0.26966   0.28360
 Alpha virt. eigenvalues --    0.29412   0.29900   0.31256   0.31537   0.32303

 Mulliken charges:
               1
     1  C   -0.171856
     2  C   -0.224649
     3  C   -0.181942
     4  C    0.160621
     5  C   -0.170779
     6  C   -0.218690
     7  H    0.225561
     8  H    0.231728
     9  H    0.283835
    10  H    0.275316
    11  H    0.223163
    12  N    0.487944
    13  O   -0.460732
    14  O   -0.460369
    15  C   -0.299450
    16  C   -0.300106
    17  C   -0.476122
    18  H    0.151616
    19  H    0.153097
    20  H    0.151147
    21  H    0.152161
    22  H    0.156889
    23  H    0.156577
    24  H    0.160656
    25  C   -0.297574
    26  C   -0.306419
    27  C   -0.483004
    28  H    0.147966
    29  H    0.152087
    30  H    0.146482
    31  H    0.161121
    32  H    0.162991
    33  H    0.148690
    34  H    0.162046
 Sum of Mulliken charges =  -0.00000

 Dipole moment (field-independent basis, Debye):
    X=              0.3063    Y=             -4.8886    Z=             -1.6061  Tot=              5.1548
 Quadrupole moment (field-independent basis, Debye-Ang):
   XX=            -90.1161   YY=           -100.5752   ZZ=            -94.1721
   XY=             14.2278   XZ=              7.2361   YZ=             -0.0996

 Normal termination of Gaussian 16 at Thu May  6 19:02:24 2021.
