 Gaussian 16, Revision A.03,
 Gaussian 16:  EM64L-G16RevA.03 25-Dec-2016

 -------------
 #p 6-31g* mp2
 -------------

 ------------------------------------------------------
 Input file generated by CHIRIPA (05-May-2021 14:51:14)
 ------------------------------------------------------
 Symbolic Z-matrix:
 Charge =  0 Multiplicity = 1

                         Standard orientation:
 ---------------------------------------------------------------------
 Center     Atomic      Atomic             Coordinates (Angstroms)
 Number     Number       Type             X           Y           Z
 ---------------------------------------------------------------------
      1          6           0        3.749726    0.214485    0.700454
      2          6           0        2.319023    0.430744    0.206183
      3          6           0        1.414201    1.054299    1.269326
      4          1           0        3.730024   -0.429145    1.590565
      5          1           0        4.169170    1.178238    1.020834
      6          1           0        1.902884   -0.532911   -0.114463
      7          1           0        2.342148    1.073778   -0.682968
      8          1           0        1.803145    2.028415    1.583046
      9          1           0        1.361385    0.412598    2.154781
     10          1           0        0.396200    1.200093    0.894789
     11          6           0        4.666348   -0.408200   -0.351113
     12          6           0        6.097052   -0.624460    0.143158
     13          6           0        7.001873   -1.248014   -0.919984
     14          1           0        4.246905   -1.371953   -0.671492
     15          1           0        4.686050    0.235430   -1.241224
     16          1           0        6.073926   -1.267493    1.032309
     17          1           0        6.513191    0.339195    0.463804
     18          1           0        7.054690   -0.606314   -1.805440
     19          1           0        6.612930   -2.222131   -1.233705
     20          1           0        8.019874   -1.393808   -0.545448
     21          6           0       -3.570148    0.478474    0.001108
     22          6           0       -3.426770    1.800303   -0.754005
     23          6           0       -2.145685    2.552174   -0.391643
     24          1           0       -3.552927    0.676977    1.081499
     25          1           0       -2.698637   -0.155171   -0.214201
     26          1           0       -4.298966    2.430714   -0.538429
     27          1           0       -3.444526    1.598650   -1.832725
     28          1           0       -1.264304    1.945401   -0.623150
     29          1           0       -2.123598    2.782194    0.678500
     30          1           0       -2.063432    3.494103   -0.942880
     31          6           0       -4.845927   -0.284758   -0.350449
     32          6           0       -4.989305   -1.606587    0.404664
     33          6           0       -6.270389   -2.358458    0.042301
     34          1           0       -5.717438    0.348887   -0.135140
     35          1           0       -4.863147   -0.483262   -1.430840
     36          1           0       -4.971548   -1.404934    1.483384
     37          1           0       -4.117109   -2.236998    0.189087
     38          1           0       -6.292477   -2.588478   -1.027841
     39          1           0       -7.151770   -1.751686    0.273809
     40          1           0       -6.352642   -3.300388    0.593540
 ---------------------------------------------------------------------

 SCF Done:  E(RHF) =  -470.733173377     A.U. after   11 cycles
 E2 =    -0.1582380559D+01 EUMP2 =    -0.47231555393634D+03

 The electronic state is 1-A.
 Alpha  occ. eigenvalues --  -11.21619 -11.21608 -11.21586 -11.21565 -11.21419
 Alpha  occ. eigenvalues --  -11.21379 -11.21359 -11.21319 -11.21090 -11.21076
 Alpha  occ. eigenvalues --  -11.21060 -11.20943  -1.08445  -1.08400  -1.03554
 Alpha  occ. eigenvalues --   -1.03486  -0.96020  -0.95917  -0.87054  -0.86917
 Alpha  occ. eigenvalues --   -0.79638  -0.79530  -0.78257  -0.78216  -0.65075
 Alpha  occ. eigenvalues --   -0.65031  -0.60957  -0.60887  -0.59454  -0.59261
 Alpha  occ. eigenvalues --   -0.57744  -0.57427  -0.55288  -0.55217  -0.52828
 Alpha  occ. eigenvalues --   -0.52686  -0.52434  -0.52165  -0.49931  -0.49876
 Alpha  occ. eigenvalues --   -0.48028  -0.47754  -0.46633  -0.46593  -0.45798
 Alpha  occ. eigenvalues --   -0.45754  -0.45718  -0.45684  -0.43801  -0.43711
 Alpha virt. eigenvalues --    0.21931   0.23027   0.23448   0.24892   0.26476
 Alpha virt. eigenvalues --    0.26666   0.26894   0.27557   0.27720   0.28889
 Alpha virt. eigenvalues --    0.30908   0.31446   0.31592   0.31828   0.32108

 Mulliken charges:
               1
     1  C   -0.298057
     2  C   -0.299747
     3  C   -0.482805
     4  H    0.149643
     5  H    0.149585
     6  H    0.151066
     7  H    0.151644
     8  H    0.154905
     9  H    0.154483
    10  H    0.168195
    11  C   -0.298242
    12  C   -0.299633
    13  C   -0.475685
    14  H    0.149326
    15  H    0.149564
    16  H    0.151914
    17  H    0.151939
    18  H    0.155144
    19  H    0.155109
    20  H    0.160208
    21  C   -0.298731
    22  C   -0.299613
    23  C   -0.480152
    24  H    0.149955
    25  H    0.149462
    26  H    0.152057
    27  H    0.151955
    28  H    0.159297
    29  H    0.156288
    30  H    0.160630
    31  C   -0.298256
    32  C   -0.299667
    33  C   -0.475726
    34  H    0.149630
    35  H    0.149677
    36  H    0.152045
    37  H    0.151935
    38  H    0.155179
    39  H    0.155206
    40  H    0.160273
 Sum of Mulliken charges =  -0.00000

 Dipole moment (field-independent basis, Debye):
    X=             -0.0396    Y=              0.0189    Z=             -0.0042  Tot=              0.0441
 Quadrupole moment (field-independent basis, Debye-Ang):
   XX=            -85.9081   YY=            -84.2651   ZZ=            -84.5860
   XY=             -0.2579   XZ=             -0.1106   YZ=             -0.3491

 Normal termination of Gaussian 16 at Thu May  6 07:12:06 2021.
