 Gaussian 16, Revision A.03,
 Gaussian 16:  EM64L-G16RevA.03 25-Dec-2016

 -------------
 #p 6-31g* mp2
 -------------

 ------------------------------------------------------
 Input file generated by CHIRIPA (05-May-2021 14:57:23)
 ------------------------------------------------------
 Symbolic Z-matrix:
 Charge =  0 Multiplicity = 1

                         Standard orientation:
 ---------------------------------------------------------------------
 Center     Atomic      Atomic             Coordinates (Angstroms)
 Number     Number       Type             X           Y           Z
 ---------------------------------------------------------------------
      1          6           0        2.925967    2.454535    0.134518
      2          6           0        4.190182    2.037397    0.563795
      3          6           0        4.606934    0.717446    0.367341
      4          6           0        3.730020   -0.162792   -0.264714
      5          6           0        2.464302    0.222594   -0.703718
      6          6           0        2.068574    1.547401   -0.496755
      7          1           0        2.610390    3.481791    0.291210
      8          1           0        4.858141    2.739710    1.054337
      9          1           0        5.580220    0.367849    0.689698
     10          1           0        1.820541   -0.500468   -1.189692
     11          1           0        1.086199    1.868561   -0.831183
     12          7           0        4.160089   -1.562736   -0.478253
     13          8           0        3.368874   -2.318841   -1.037647
     14          8           0        5.280248   -1.877399   -0.082189
     15          6           0       -1.642293   -0.218366    1.738037
     16          6           0       -1.740676    0.816336    0.801964
     17          6           0       -2.853611    0.909528   -0.039011
     18          6           0       -3.854122   -0.053392    0.083682
     19          6           0       -3.785089   -1.096086    1.006349
     20          6           0       -2.663014   -1.169599    1.837067
     21          1           0       -0.774188   -0.283116    2.387342
     22          1           0       -0.949492    1.556480    0.722833
     23          1           0       -2.955353    1.700153   -0.772481
     24          1           0       -4.589820   -1.819101    1.061814
     25          1           0       -2.589290   -1.974253    2.563111
     26          7           0       -5.037173    0.034848   -0.801191
     27          8           0       -5.905082   -0.825978   -0.673329
     28          8           0       -5.074140    0.963168   -1.605862
 ---------------------------------------------------------------------

 SCF Done:  E(RHF) =  -868.337221319     A.U. after   16 cycles
 E2 =    -0.2599786400D+01 EUMP2 =    -0.87093700771914D+03

 The electronic state is 1-A.
 Alpha  occ. eigenvalues --  -20.61343 -20.61338 -20.61081 -20.61068 -15.86403
 Alpha  occ. eigenvalues --  -15.86136 -11.31891 -11.31575 -11.28504 -11.28473
 Alpha  occ. eigenvalues --  -11.28282 -11.28230 -11.28126 -11.27905 -11.27587
 Alpha  occ. eigenvalues --  -11.27485 -11.27270 -11.27116  -1.60419  -1.60151
 Alpha  occ. eigenvalues --   -1.39967  -1.39703  -1.20097  -1.19765  -1.09470
 Alpha  occ. eigenvalues --   -1.09136  -1.05519  -1.05193  -0.96273  -0.95956
 Alpha  occ. eigenvalues --   -0.86922  -0.86573  -0.83105  -0.82798  -0.78138
 Alpha  occ. eigenvalues --   -0.77831  -0.72614  -0.72351  -0.71749  -0.71476
 Alpha  occ. eigenvalues --   -0.71187  -0.70849  -0.65743  -0.65655  -0.65418
 Alpha  occ. eigenvalues --   -0.65116  -0.62901  -0.62482  -0.56015  -0.55654
 Alpha  occ. eigenvalues --   -0.53870  -0.53676  -0.53491  -0.53192  -0.49387
 Alpha  occ. eigenvalues --   -0.49362  -0.49116  -0.49102  -0.45344  -0.45093
 Alpha  occ. eigenvalues --   -0.38097  -0.37747  -0.37135  -0.36778
 Alpha virt. eigenvalues --    0.04410   0.04715   0.10379   0.10835   0.15809
 Alpha virt. eigenvalues --    0.16149   0.19432   0.21738   0.25147   0.27587
 Alpha virt. eigenvalues --    0.27935   0.28228   0.29859   0.31275   0.32005

 Mulliken charges:
               1
     1  C   -0.171923
     2  C   -0.218755
     3  C   -0.169944
     4  C    0.157935
     5  C   -0.171821
     6  C   -0.224478
     7  H    0.226599
     8  H    0.225906
     9  H    0.277867
    10  H    0.279299
    11  H    0.220202
    12  N    0.487807
    13  O   -0.458669
    14  O   -0.458746
    15  C   -0.170458
    16  C   -0.223209
    17  C   -0.171813
    18  C    0.159086
    19  C   -0.169474
    20  C   -0.217868
    21  H    0.228758
    22  H    0.216786
    23  H    0.273487
    24  H    0.277796
    25  H    0.226742
    26  N    0.488181
    27  O   -0.458336
    28  O   -0.460959
 Sum of Mulliken charges =  -0.00000

 Dipole moment (field-independent basis, Debye):
    X=              2.7312    Y=              4.4463    Z=              3.9344  Tot=              6.5352
 Quadrupole moment (field-independent basis, Debye-Ang):
   XX=           -143.2764   YY=           -103.6366   ZZ=           -103.9499
   XY=             22.9403   XZ=             -7.3393   YZ=             -3.2394

 Normal termination of Gaussian 16 at Thu May  6 22:42:21 2021.
