 Gaussian 16, Revision A.03,
 Gaussian 16:  EM64L-G16RevA.03 25-Dec-2016

 -------------
 #p 6-31g* mp2
 -------------

 ------------------------------------------------------
 Input file generated by CHIRIPA (05-May-2021 14:57:24)
 ------------------------------------------------------
 Symbolic Z-matrix:
 Charge =  0 Multiplicity = 1

                         Standard orientation:
 ---------------------------------------------------------------------
 Center     Atomic      Atomic             Coordinates (Angstroms)
 Number     Number       Type             X           Y           Z
 ---------------------------------------------------------------------
      1          6           0        4.538781   -1.751092    0.490428
      2          6           0        3.469327   -1.933721   -0.392429
      3          6           0        2.697128   -0.844594   -0.807227
      4          6           0        3.023859    0.418919   -0.317256
      5          6           0        4.083140    0.633110    0.563276
      6          6           0        4.841740   -0.470517    0.964626
      7          1           0        5.133362   -2.602784    0.807430
      8          1           0        3.231743   -2.927090   -0.762317
      9          1           0        1.863685   -0.957539   -1.489894
     10          1           0        4.295723    1.635390    0.914929
     11          1           0        5.671715   -0.325703    1.650350
     12          7           0        2.213565    1.579604   -0.749266
     13          8           0        2.521891    2.682595   -0.303190
     14          8           0        1.285473    1.364381   -1.525772
     15          6           0       -5.598260    0.069276   -0.319633
     16          6           0       -4.990274    0.908653    0.619686
     17          6           0       -3.638519    0.753279    0.940879
     18          6           0       -2.921433   -0.256328    0.300744
     19          6           0       -3.498742   -1.108486   -0.639378
     20          6           0       -4.851869   -0.934845   -0.945064
     21          1           0       -6.648869    0.197068   -0.563120
     22          1           0       -5.567475    1.689315    1.106977
     23          1           0       -3.142741    1.389097    1.664314
     24          1           0       -2.897475   -1.877745   -1.108564
     25          1           0       -5.321408   -1.588184   -1.674945
     26          7           0       -1.489664   -0.430484    0.632568
     27          8           0       -0.879763   -1.327498    0.054620
     28          8           0       -1.004455    0.333324    1.464317
 ---------------------------------------------------------------------

 SCF Done:  E(RHF) =  -868.339406247     A.U. after   16 cycles
 E2 =    -0.2599425593D+01 EUMP2 =    -0.87093883183937D+03

 The electronic state is 1-A.
 Alpha  occ. eigenvalues --  -20.60608 -20.60564 -20.59575 -20.59569 -15.85628
 Alpha  occ. eigenvalues --  -15.84631 -11.30900 -11.29841 -11.27493 -11.27443
 Alpha  occ. eigenvalues --  -11.27221 -11.26517 -11.26496 -11.26463 -11.26366
 Alpha  occ. eigenvalues --  -11.26285 -11.25532 -11.25434  -1.59630  -1.58634
 Alpha  occ. eigenvalues --   -1.39196  -1.38199  -1.19069  -1.18044  -1.08485
 Alpha  occ. eigenvalues --   -1.07489  -1.04471  -1.03447  -0.95339  -0.94340
 Alpha  occ. eigenvalues --   -0.85875  -0.84866  -0.82185  -0.81193  -0.77232
 Alpha  occ. eigenvalues --   -0.76226  -0.71882  -0.70969  -0.70836  -0.70200
 Alpha  occ. eigenvalues --   -0.69895  -0.69216  -0.64739  -0.64489  -0.63734
 Alpha  occ. eigenvalues --   -0.63498  -0.61826  -0.60805  -0.54994  -0.54035
 Alpha  occ. eigenvalues --   -0.52789  -0.52575  -0.51767  -0.51576  -0.48623
 Alpha  occ. eigenvalues --   -0.48607  -0.47625  -0.47608  -0.44618  -0.43646
 Alpha  occ. eigenvalues --   -0.37043  -0.36065  -0.36050  -0.35007
 Alpha virt. eigenvalues --    0.05312   0.06339   0.11593   0.12637   0.16804
 Alpha virt. eigenvalues --    0.17809   0.21674   0.22585   0.27583   0.28412
 Alpha virt. eigenvalues --    0.28614   0.29503   0.31212   0.32073   0.32791

 Mulliken charges:
               1
     1  C   -0.170647
     2  C   -0.219326
     3  C   -0.154402
     4  C    0.159875
     5  C   -0.170107
     6  C   -0.219742
     7  H    0.220577
     8  H    0.220052
     9  H    0.279450
    10  H    0.271757
    11  H    0.218231
    12  N    0.491741
    13  O   -0.465260
    14  O   -0.463968
    15  C   -0.170464
    16  C   -0.218500
    17  C   -0.168747
    18  C    0.161346
    19  C   -0.169436
    20  C   -0.218487
    21  H    0.224844
    22  H    0.223380
    23  H    0.277049
    24  H    0.272619
    25  H    0.222079
    26  N    0.493317
    27  O   -0.469366
    28  O   -0.457867
 Sum of Mulliken charges =  -0.00000

 Dipole moment (field-independent basis, Debye):
    X=             -2.4811    Y=             -3.4360    Z=              0.3659  Tot=              4.2539
 Quadrupole moment (field-independent basis, Debye-Ang):
   XX=            -58.9290   YY=           -105.0211   ZZ=           -104.0303
   XY=            -10.3988   XZ=              7.2274   YZ=              7.4483

 Normal termination of Gaussian 16 at Fri May  7 12:34:57 2021.
