 Gaussian 16, Revision A.03,
 Gaussian 16:  EM64L-G16RevA.03 25-Dec-2016

 -------------
 #p 6-31g* mp2
 -------------

 ------------------------------------------------------
 Input file generated by CHIRIPA (05-May-2021 14:51:10)
 ------------------------------------------------------
 Symbolic Z-matrix:
 Charge =  0 Multiplicity = 1

                         Standard orientation:
 ---------------------------------------------------------------------
 Center     Atomic      Atomic             Coordinates (Angstroms)
 Number     Number       Type             X           Y           Z
 ---------------------------------------------------------------------
      1          6           0       -3.459582    0.872783   -0.433805
      2          6           0       -2.003801    1.181459   -0.785094
      3          6           0       -1.740920    2.678222   -0.953580
      4          1           0       -4.113055    1.275069   -1.219989
      5          1           0       -3.725338    1.399323    0.493300
      6          1           0       -1.740456    0.653385   -1.710515
      7          1           0       -1.353706    0.778223    0.001922
      8          1           0       -1.976383    3.217059   -0.030102
      9          1           0       -2.365331    3.091512   -1.752268
     10          1           0       -0.694152    2.876245   -1.204427
     11          6           0       -3.738057   -0.619433   -0.262129
     12          6           0       -5.193838   -0.928108    0.089159
     13          6           0       -5.456719   -2.424871    0.257646
     14          1           0       -3.472301   -1.145973   -1.189234
     15          1           0       -3.084584   -1.021719    0.524054
     16          1           0       -5.843933   -0.524873   -0.697856
     17          1           0       -5.457183   -0.400035    1.014581
     18          1           0       -4.832308   -2.838162    1.056334
     19          1           0       -5.221256   -2.963709   -0.665833
     20          1           0       -6.503487   -2.622895    0.508492
     21          6           0        3.252797    0.127880    0.979554
     22          6           0        1.777012    0.467176    0.767601
     23          6           0        1.098528    0.975086    2.040189
     24          1           0        3.338293   -0.630305    1.769991
     25          1           0        3.778359    1.021000    1.344953
     26          1           0        1.254665   -0.425943    0.401392
     27          1           0        1.695006    1.224501   -0.022557
     28          1           0        1.593622    1.880602    2.405596
     29          1           0        1.150780    0.220780    2.831954
     30          1           0        0.044218    1.211638    1.866019
     31          6           0        3.944842   -0.381230   -0.283620
     32          6           0        5.420627   -0.720526   -0.071666
     33          6           0        6.099111   -1.228436   -1.344254
     34          1           0        3.419279   -1.274349   -0.649018
     35          1           0        3.859345    0.376955   -1.074057
     36          1           0        5.502633   -1.477851    0.718491
     37          1           0        5.942973    0.172593    0.294542
     38          1           0        6.046859   -0.474131   -2.136020
     39          1           0        5.604017   -2.133952   -1.709662
     40          1           0        7.153421   -1.464988   -1.170085
 ---------------------------------------------------------------------

 SCF Done:  E(RHF) =  -470.733117097     A.U. after   11 cycles
 E2 =    -0.1583136624D+01 EUMP2 =    -0.47231625372100D+03

 The electronic state is 1-A.
 Alpha  occ. eigenvalues --  -11.21611 -11.21606 -11.21596 -11.21543 -11.21414
 Alpha  occ. eigenvalues --  -11.21393 -11.21354 -11.21333 -11.21087 -11.21074
 Alpha  occ. eigenvalues --  -11.21069 -11.21065  -1.08452  -1.08406  -1.03582
 Alpha  occ. eigenvalues --   -1.03480  -0.96021  -0.95945  -0.87014  -0.86982
 Alpha  occ. eigenvalues --   -0.79626  -0.79560  -0.78296  -0.78185  -0.65075
 Alpha  occ. eigenvalues --   -0.65063  -0.61000  -0.60938  -0.59500  -0.59193
 Alpha  occ. eigenvalues --   -0.57737  -0.57419  -0.55285  -0.55243  -0.52708
 Alpha  occ. eigenvalues --   -0.52651  -0.52439  -0.52378  -0.49931  -0.49906
 Alpha  occ. eigenvalues --   -0.47933  -0.47881  -0.46642  -0.46581  -0.45841
 Alpha  occ. eigenvalues --   -0.45744  -0.45709  -0.45649  -0.43799  -0.43764
 Alpha virt. eigenvalues --    0.20780   0.23072   0.23494   0.25158   0.25965
 Alpha virt. eigenvalues --    0.26531   0.26837   0.27532   0.27932   0.29064
 Alpha virt. eigenvalues --    0.30018   0.31044   0.31433   0.31783   0.32610

 Mulliken charges:
               1
     1  C   -0.298012
     2  C   -0.308266
     3  C   -0.476387
     4  H    0.149609
     5  H    0.149115
     6  H    0.152033
     7  H    0.161295
     8  H    0.154937
     9  H    0.155237
    10  H    0.160740
    11  C   -0.298263
    12  C   -0.299618
    13  C   -0.475713
    14  H    0.149515
    15  H    0.149393
    16  H    0.151971
    17  H    0.151962
    18  H    0.155137
    19  H    0.155131
    20  H    0.160255
    21  C   -0.298493
    22  C   -0.300626
    23  C   -0.480629
    24  H    0.149667
    25  H    0.149572
    26  H    0.152586
    27  H    0.153283
    28  H    0.155697
    29  H    0.155062
    30  H    0.163662
    31  C   -0.298298
    32  C   -0.299671
    33  C   -0.475713
    34  H    0.149676
    35  H    0.149607
    36  H    0.151947
    37  H    0.151937
    38  H    0.155183
    39  H    0.155209
    40  H    0.160272
 Sum of Mulliken charges =  -0.00000

 Dipole moment (field-independent basis, Debye):
    X=              0.0157    Y=             -0.0034    Z=             -0.0014  Tot=              0.0161
 Quadrupole moment (field-independent basis, Debye-Ang):
   XX=            -85.2590   YY=            -85.1114   ZZ=            -84.4667
   XY=              0.1582   XZ=              0.7275   YZ=             -0.3244

 Normal termination of Gaussian 16 at Wed May  5 15:12:16 2021.
