 Gaussian 16, Revision A.03,
 Gaussian 16:  EM64L-G16RevA.03 25-Dec-2016

 -------------
 #p 6-31g* mp2
 -------------

 ------------------------------------------------------
 Input file generated by CHIRIPA (05-May-2021 14:53:16)
 ------------------------------------------------------
 Symbolic Z-matrix:
 Charge =  0 Multiplicity = 1

                         Standard orientation:
 ---------------------------------------------------------------------
 Center     Atomic      Atomic             Coordinates (Angstroms)
 Number     Number       Type             X           Y           Z
 ---------------------------------------------------------------------
      1          6           0        3.411672   -0.594229    0.583107
      2          6           0        2.508168   -1.677772   -0.006469
      3          6           0        1.843764   -2.541541    1.066035
      4          1           0        4.183806   -1.067838    1.204757
      5          1           0        2.818525    0.043370    1.253211
      6          1           0        3.102536   -2.312297   -0.676336
      7          1           0        1.738212   -1.201541   -0.626943
      8          1           0        1.227253   -1.925988    1.729065
      9          1           0        2.599329   -3.043055    1.679392
     10          1           0        1.202430   -3.309560    0.622529
     11          6           0        4.083021    0.277504   -0.476657
     12          6           0        4.986525    1.361047    0.112919
     13          6           0        5.650929    2.224816   -0.959585
     14          1           0        4.676168   -0.360095   -1.146761
     15          1           0        3.310888    0.751114   -1.098307
     16          1           0        5.756482    0.884816    0.733393
     17          1           0        4.392157    1.995572    0.782786
     18          1           0        4.895364    2.726330   -1.572941
     19          1           0        6.267440    1.609263   -1.622615
     20          1           0        6.292263    2.992835   -0.516079
     21          6           0       -3.805754    2.416158    0.541104
     22          6           0       -4.359355    1.705684   -0.529070
     23          6           0       -3.880691    0.434741   -0.860931
     24          6           0       -2.842719   -0.097904   -0.097914
     25          6           0       -2.270428    0.585142    0.974103
     26          6           0       -2.764893    1.854609    1.287959
     27          1           0       -4.183729    3.402884    0.791908
     28          1           0       -5.167788    2.139308   -1.110836
     29          1           0       -4.290984   -0.137182   -1.684327
     30          1           0       -1.465455    0.126726    1.535612
     31          1           0       -2.333042    2.404078    2.119605
     32          7           0       -2.327616   -1.442614   -0.439709
     33          8           0       -1.412391   -1.889790    0.248066
     34          8           0       -2.848855   -2.023958   -1.388911
 ---------------------------------------------------------------------

 SCF Done:  E(RHF) =  -669.535758711     A.U. after   15 cycles
 E2 =    -0.2091440650D+01 EUMP2 =    -0.67162719936126D+03

 The electronic state is 1-A.
 Alpha  occ. eigenvalues --  -20.60921 -20.60911 -15.85946 -11.31291 -11.27859
 Alpha  occ. eigenvalues --  -11.27852 -11.27594 -11.26867 -11.26857 -11.21353
 Alpha  occ. eigenvalues --  -11.20981 -11.20890 -11.20811 -11.20626 -11.19748
 Alpha  occ. eigenvalues --   -1.59982  -1.39537  -1.19461  -1.08862  -1.07894
 Alpha  occ. eigenvalues --   -1.04860  -1.02878  -0.95711  -0.95306  -0.86343
 Alpha  occ. eigenvalues --   -0.86257  -0.82531  -0.78990  -0.77675  -0.77577
 Alpha  occ. eigenvalues --   -0.72178  -0.71296  -0.70569  -0.65120  -0.64863
 Alpha  occ. eigenvalues --   -0.64534  -0.62209  -0.60274  -0.58737  -0.56896
 Alpha  occ. eigenvalues --   -0.55362  -0.54616  -0.53190  -0.52953  -0.51958
 Alpha  occ. eigenvalues --   -0.51757  -0.49328  -0.48926  -0.48890  -0.47276
 Alpha  occ. eigenvalues --   -0.46052  -0.45217  -0.45154  -0.44891  -0.43129
 Alpha  occ. eigenvalues --   -0.37440  -0.36463
 Alpha virt. eigenvalues --    0.04932   0.11190   0.16413   0.20981   0.23196
 Alpha virt. eigenvalues --    0.24438   0.26599   0.27384   0.27782   0.28068
 Alpha virt. eigenvalues --    0.29119   0.30632   0.31592   0.32254   0.32710

 Mulliken charges:
               1
     1  C   -0.296755
     2  C   -0.300440
     3  C   -0.469196
     4  H    0.148106
     5  H    0.142807
     6  H    0.149270
     7  H    0.155239
     8  H    0.151103
     9  H    0.144501
    10  H    0.176535
    11  C   -0.297472
    12  C   -0.298681
    13  C   -0.475258
    14  H    0.149955
    15  H    0.147979
    16  H    0.151764
    17  H    0.148761
    18  H    0.153984
    19  H    0.155659
    20  H    0.158625
    21  C   -0.170594
    22  C   -0.218584
    23  C   -0.170662
    24  C    0.157707
    25  C   -0.171246
    26  C   -0.218720
    27  H    0.226009
    28  H    0.223825
    29  H    0.275872
    30  H    0.276059
    31  H    0.223883
    32  N    0.492092
    33  O   -0.462666
    34  O   -0.459464
 Sum of Mulliken charges =  -0.00000

 Dipole moment (field-independent basis, Debye):
    X=             -2.0742    Y=              4.6266    Z=              1.1389  Tot=              5.1966
 Quadrupole moment (field-independent basis, Debye-Ang):
   XX=            -83.1206   YY=            -96.2013   ZZ=            -93.1780
   XY=            -14.3361   XZ=             -0.2461   YZ=              0.3650

 Normal termination of Gaussian 16 at Thu May  6 12:11:33 2021.
