 Gaussian 16, Revision A.03,
 Gaussian 16:  EM64L-G16RevA.03 25-Dec-2016

 -------------
 #p 6-31g* mp2
 -------------

 ------------------------------------------------------
 Input file generated by CHIRIPA (05-May-2021 14:57:24)
 ------------------------------------------------------
 Symbolic Z-matrix:
 Charge =  0 Multiplicity = 1

                         Standard orientation:
 ---------------------------------------------------------------------
 Center     Atomic      Atomic             Coordinates (Angstroms)
 Number     Number       Type             X           Y           Z
 ---------------------------------------------------------------------
      1          6           0        2.227134   -2.358217   -0.089053
      2          6           0        2.401081   -1.594506   -1.247936
      3          6           0        2.810871   -0.260482   -1.164270
      4          6           0        3.038828    0.280271    0.100210
      5          6           0        2.874285   -0.454833    1.273171
      6          6           0        2.463873   -1.786950    1.165590
      7          1           0        1.908557   -3.393779   -0.163336
      8          1           0        2.217958   -2.035532   -2.223645
      9          1           0        2.953270    0.353522   -2.045258
     10          1           0        3.064543    0.012495    2.231725
     11          1           0        2.329594   -2.377672    2.067289
     12          7           0        3.472984    1.691533    0.201443
     13          8           0        3.667304    2.144559    1.327340
     14          8           0        3.610734    2.317933   -0.847025
     15          6           0       -4.412668    2.009729    0.125840
     16          6           0       -4.738242    0.850182    0.837156
     17          6           0       -3.944571   -0.295631    0.728774
     18          6           0       -2.827539   -0.246581   -0.103767
     19          6           0       -2.477006    0.893523   -0.825280
     20          6           0       -3.285077    2.027668   -0.701649
     21          1           0       -5.034805    2.895292    0.215956
     22          1           0       -5.613351    0.833367    1.480543
     23          1           0       -4.173541   -1.206711    1.268147
     24          1           0       -1.598402    0.879899   -1.458753
     25          1           0       -3.029813    2.926784   -1.255252
     26          7           0       -1.979692   -1.453425   -0.226577
     27          8           0       -1.000864   -1.384558   -0.966705
     28          8           0       -2.310033   -2.445365    0.419617
 ---------------------------------------------------------------------

 SCF Done:  E(RHF) =  -868.339299216     A.U. after   16 cycles
 E2 =    -0.2599801699D+01 EUMP2 =    -0.87093910091508D+03

 The electronic state is 1-A.
 Alpha  occ. eigenvalues --  -20.61287 -20.61254 -20.60166 -20.60160 -15.86293
 Alpha  occ. eigenvalues --  -15.85208 -11.31443 -11.30216 -11.27997 -11.27968
 Alpha  occ. eigenvalues --  -11.27678 -11.26961 -11.26920 -11.26781 -11.26734
 Alpha  occ. eigenvalues --  -11.26304 -11.25666 -11.25588  -1.60343  -1.59253
 Alpha  occ. eigenvalues --   -1.39903  -1.38816  -1.19593  -1.18335  -1.09032
 Alpha  occ. eigenvalues --   -1.07763  -1.04961  -1.03703  -0.95907  -0.94673
 Alpha  occ. eigenvalues --   -0.86370  -0.85108  -0.82745  -0.81541  -0.77818
 Alpha  occ. eigenvalues --   -0.76658  -0.72552  -0.71647  -0.71436  -0.70699
 Alpha  occ. eigenvalues --   -0.70577  -0.69408  -0.65250  -0.64960  -0.63986
 Alpha  occ. eigenvalues --   -0.63706  -0.62312  -0.61091  -0.55471  -0.54137
 Alpha  occ. eigenvalues --   -0.53306  -0.53050  -0.52026  -0.51805  -0.49309
 Alpha  occ. eigenvalues --   -0.49274  -0.48210  -0.48156  -0.45347  -0.44304
 Alpha  occ. eigenvalues --   -0.37565  -0.36555  -0.36143  -0.35275
 Alpha virt. eigenvalues --    0.04692   0.05886   0.11104   0.12391   0.16242
 Alpha virt. eigenvalues --    0.17512   0.21271   0.22496   0.27194   0.28099
 Alpha virt. eigenvalues --    0.28341   0.29399   0.30849   0.32089   0.32317

 Mulliken charges:
               1
     1  C   -0.154790
     2  C   -0.203281
     3  C   -0.175647
     4  C    0.155789
     5  C   -0.173987
     6  C   -0.221248
     7  H    0.229509
     8  H    0.223065
     9  H    0.269624
    10  H    0.270687
    11  H    0.221086
    12  N    0.487896
    13  O   -0.464119
    14  O   -0.465413
    15  C   -0.169977
    16  C   -0.218512
    17  C   -0.171091
    18  C    0.157757
    19  C   -0.169978
    20  C   -0.218081
    21  H    0.227353
    22  H    0.224081
    23  H    0.274614
    24  H    0.275641
    25  H    0.226687
    26  N    0.490650
    27  O   -0.464420
    28  O   -0.463897
 Sum of Mulliken charges =  -0.00000

 Dipole moment (field-independent basis, Debye):
    X=             -4.8267    Y=             -0.9342    Z=             -0.0357  Tot=              4.9164
 Quadrupole moment (field-independent basis, Debye-Ang):
   XX=            -97.4393   YY=           -109.2215   ZZ=            -98.6685
   XY=            -26.5551   XZ=             -4.5090   YZ=             -3.2669

 Normal termination of Gaussian 16 at Thu May  6 05:04:15 2021.
