 Gaussian 16, Revision A.03,
 Gaussian 16:  EM64L-G16RevA.03 25-Dec-2016

 -------------
 #p 6-31g* mp2
 -------------

 ------------------------------------------------------
 Input file generated by CHIRIPA (05-May-2021 14:55:20)
 ------------------------------------------------------
 Symbolic Z-matrix:
 Charge =  0 Multiplicity = 1

                         Standard orientation:
 ---------------------------------------------------------------------
 Center     Atomic      Atomic             Coordinates (Angstroms)
 Number     Number       Type             X           Y           Z
 ---------------------------------------------------------------------
      1          6           0        0.602044   -0.058477    0.982413
      2          6           0        1.533976    0.930839    1.312983
      3          6           0        2.853481    0.843308    0.859339
      4          6           0        3.208335   -0.252087    0.073541
      5          6           0        2.302901   -1.253860   -0.272767
      6          6           0        0.988799   -1.145752    0.191986
      7          1           0       -0.420881    0.017512    1.339129
      8          1           0        1.236437    1.776352    1.926680
      9          1           0        3.595312    1.595002    1.100298
     10          1           0        2.629208   -2.084902   -0.886209
     11          1           0        0.267181   -1.915556   -0.066307
     12          7           0        4.602376   -0.355644   -0.412592
     13          8           0        4.889925   -1.330657   -1.103464
     14          8           0        5.381081    0.540161   -0.093548
     15          6           0       -3.259298    0.792574   -0.008299
     16          6           0       -3.296468    2.087456   -0.820629
     17          6           0       -2.183394    3.061116   -0.432237
     18          1           0       -3.338714    1.035146    1.060251
     19          1           0       -2.282595    0.308685   -0.147221
     20          1           0       -4.273315    2.568056   -0.681312
     21          1           0       -3.217145    1.841760   -1.887380
     22          1           0       -1.200555    2.604705   -0.588168
     23          1           0       -2.262725    3.335128    0.624753
     24          1           0       -2.228715    3.979907   -1.025220
     25          6           0       -4.365869   -0.190924   -0.385074
     26          6           0       -4.328699   -1.485807    0.427257
     27          6           0       -5.441772   -2.459466    0.038863
     28          1           0       -5.342571    0.292966   -0.246152
     29          1           0       -4.286452   -0.433496   -1.453623
     30          1           0       -4.408021   -1.240110    1.494007
     31          1           0       -3.351852   -1.966406    0.287939
     32          1           0       -5.362441   -2.733477   -1.018126
     33          1           0       -6.424612   -2.003055    0.194795
     34          1           0       -5.396452   -3.378257    0.631848
 ---------------------------------------------------------------------

 SCF Done:  E(RHF) =  -669.535679026     A.U. after   15 cycles
 E2 =    -0.2092034222D+01 EUMP2 =    -0.67162771324828D+03

 The electronic state is 1-A.
 Alpha  occ. eigenvalues --  -20.60753 -20.60748 -15.85807 -11.31175 -11.27750
 Alpha  occ. eigenvalues --  -11.27741 -11.27425 -11.26758 -11.26738 -11.22557
 Alpha  occ. eigenvalues --  -11.22488 -11.22416 -11.22273 -11.21860 -11.21815
 Alpha  occ. eigenvalues --   -1.59829  -1.39382  -1.19347  -1.09377  -1.08734
 Alpha  occ. eigenvalues --   -1.04750  -1.04389  -0.96837  -0.95570  -0.87851
 Alpha  occ. eigenvalues --   -0.86142  -0.82408  -0.80463  -0.79243  -0.77454
 Alpha  occ. eigenvalues --   -0.72024  -0.71152  -0.70445  -0.66000  -0.64993
 Alpha  occ. eigenvalues --   -0.64743  -0.62096  -0.61776  -0.60205  -0.58465
 Alpha  occ. eigenvalues --   -0.56135  -0.55244  -0.53491  -0.53249  -0.53081
 Alpha  occ. eigenvalues --   -0.52835  -0.50771  -0.48795  -0.48780  -0.48759
 Alpha  occ. eigenvalues --   -0.47494  -0.46724  -0.46673  -0.44787  -0.44668
 Alpha  occ. eigenvalues --   -0.37291  -0.36357
 Alpha virt. eigenvalues --    0.05047   0.11223   0.16449   0.19843   0.22577
 Alpha virt. eigenvalues --    0.23277   0.25152   0.25758   0.26863   0.27829
 Alpha virt. eigenvalues --    0.29836   0.30063   0.30825   0.31111   0.31492

 Mulliken charges:
               1
     1  C   -0.172955
     2  C   -0.220458
     3  C   -0.170919
     4  C    0.158382
     5  C   -0.170725
     6  C   -0.221337
     7  H    0.232876
     8  H    0.224523
     9  H    0.275665
    10  H    0.275519
    11  H    0.223264
    12  N    0.488091
    13  O   -0.460535
    14  O   -0.460387
    15  C   -0.304709
    16  C   -0.298931
    17  C   -0.480438
    18  H    0.147144
    19  H    0.145605
    20  H    0.154972
    21  H    0.155565
    22  H    0.157436
    23  H    0.151780
    24  H    0.165004
    25  C   -0.298159
    26  C   -0.299490
    27  C   -0.476130
    28  H    0.153313
    29  H    0.152569
    30  H    0.152272
    31  H    0.144326
    32  H    0.156985
    33  H    0.157859
    34  H    0.162021
 Sum of Mulliken charges =  -0.00000

 Dipole moment (field-independent basis, Debye):
    X=             -5.0977    Y=              0.4080    Z=              1.6467  Tot=              5.3726
 Quadrupole moment (field-independent basis, Debye-Ang):
   XX=           -125.9579   YY=            -91.7225   ZZ=            -93.5519
   XY=              2.7068   XZ=              5.4863   YZ=              1.9699

 Normal termination of Gaussian 16 at Thu May  6 12:26:32 2021.
