 Gaussian 16, Revision A.03,
 Gaussian 16:  EM64L-G16RevA.03 25-Dec-2016

 -------------
 #p 6-31g* mp2
 -------------

 ------------------------------------------------------
 Input file generated by CHIRIPA (05-May-2021 14:55:21)
 ------------------------------------------------------
 Symbolic Z-matrix:
 Charge =  0 Multiplicity = 1

                         Standard orientation:
 ---------------------------------------------------------------------
 Center     Atomic      Atomic             Coordinates (Angstroms)
 Number     Number       Type             X           Y           Z
 ---------------------------------------------------------------------
      1          6           0       -2.483900   -2.226216    0.665623
      2          6           0       -3.580086   -1.966312   -0.163441
      3          6           0       -3.963290   -0.651050   -0.442343
      4          6           0       -3.224535    0.384884    0.127194
      5          6           0       -2.127641    0.158204    0.957091
      6          6           0       -1.762447   -1.164999    1.222262
      7          1           0       -2.193213   -3.251028    0.876948
      8          1           0       -4.142221   -2.788490   -0.597116
      9          1           0       -4.807741   -0.421369   -1.080752
     10          1           0       -1.586724    0.998631    1.374836
     11          1           0       -0.910697   -1.363859    1.866483
     12          7           0       -3.620682    1.781497   -0.160799
     13          8           0       -2.953419    2.676562    0.353259
     14          8           0       -4.590945    1.954652   -0.895132
     15          6           0        4.776236   -0.168228   -0.008783
     16          6           0        5.360682    1.244341   -0.041275
     17          6           0        6.826642    1.287647    0.391022
     18          1           0        4.872527   -0.574737    1.007300
     19          1           0        5.371961   -0.819154   -0.663612
     20          1           0        4.763196    1.892730    0.612346
     21          1           0        5.262815    1.647607   -1.057353
     22          1           0        7.440764    0.663855   -0.266503
     23          1           0        6.938307    0.910370    1.412683
     24          1           0        7.224293    2.306859    0.360383
     25          6           0        3.311431   -0.227818   -0.438343
     26          6           0        2.726985   -1.640387   -0.405850
     27          6           0        1.261025   -1.683693   -0.838147
     28          1           0        2.715706    0.423109    0.216486
     29          1           0        3.215140    0.178691   -1.454425
     30          1           0        2.824852   -2.043653    0.610228
     31          1           0        3.324470   -2.288776   -1.059472
     32          1           0        1.149360   -1.306416   -1.859809
     33          1           0        0.646903   -1.059901   -0.180623
     34          1           0        0.863374   -2.702905   -0.807508
 ---------------------------------------------------------------------

 SCF Done:  E(RHF) =  -669.534517167     A.U. after   15 cycles
 E2 =    -0.2092231070D+01 EUMP2 =    -0.67162674823780D+03

 The electronic state is 1-A.
 Alpha  occ. eigenvalues --  -20.60769 -20.60764 -15.85823 -11.31201 -11.27760
 Alpha  occ. eigenvalues --  -11.27752 -11.27493 -11.26788 -11.26776 -11.22030
 Alpha  occ. eigenvalues --  -11.21778 -11.21722 -11.21629 -11.21467 -11.21217
 Alpha  occ. eigenvalues --   -1.59844  -1.39397  -1.19374  -1.08774  -1.08727
 Alpha  occ. eigenvalues --   -1.04792  -1.03833  -0.96285  -0.95596  -0.87309
 Alpha  occ. eigenvalues --   -0.86172  -0.82437  -0.79899  -0.78536  -0.77481
 Alpha  occ. eigenvalues --   -0.72041  -0.71166  -0.70472  -0.65391  -0.65027
 Alpha  occ. eigenvalues --   -0.64792  -0.62156  -0.61228  -0.59663  -0.57894
 Alpha  occ. eigenvalues --   -0.55636  -0.55264  -0.53307  -0.52906  -0.52883
 Alpha  occ. eigenvalues --   -0.52574  -0.50192  -0.48801  -0.48795  -0.48207
 Alpha  occ. eigenvalues --   -0.46937  -0.46076  -0.46004  -0.44800  -0.44094
 Alpha  occ. eigenvalues --   -0.37316  -0.36309
 Alpha virt. eigenvalues --    0.05030   0.11256   0.16426   0.20719   0.22748
 Alpha virt. eigenvalues --    0.24077   0.26182   0.27027   0.27238   0.27963
 Alpha virt. eigenvalues --    0.28681   0.30228   0.31267   0.31752   0.32358

 Mulliken charges:
               1
     1  C   -0.169624
     2  C   -0.218454
     3  C   -0.171030
     4  C    0.159353
     5  C   -0.171883
     6  C   -0.215927
     7  H    0.225686
     8  H    0.223559
     9  H    0.275625
    10  H    0.275363
    11  H    0.224348
    12  N    0.488086
    13  O   -0.460447
    14  O   -0.460342
    15  C   -0.298335
    16  C   -0.300023
    17  C   -0.475892
    18  H    0.148380
    19  H    0.150101
    20  H    0.152612
    21  H    0.153434
    22  H    0.155286
    23  H    0.154722
    24  H    0.161585
    25  C   -0.297869
    26  C   -0.300181
    27  C   -0.477907
    28  H    0.147686
    29  H    0.152562
    30  H    0.147231
    31  H    0.153209
    32  H    0.159101
    33  H    0.156590
    34  H    0.153392
 Sum of Mulliken charges =  -0.00000

 Dipole moment (field-independent basis, Debye):
    X=              1.3921    Y=             -4.8931    Z=              0.9738  Tot=              5.1796
 Quadrupole moment (field-independent basis, Debye-Ang):
   XX=           -102.1000   YY=            -98.7248   ZZ=            -92.5242
   XY=             18.0297   XZ=             -1.3227   YZ=              0.9085

 Normal termination of Gaussian 16 at Thu May  6 12:28:52 2021.
