 Gaussian 16, Revision A.03,
 Gaussian 16:  EM64L-G16RevA.03 25-Dec-2016

 -------------
 #p 6-31g* mp2
 -------------

 ------------------------------------------------------
 Input file generated by CHIRIPA (05-May-2021 14:51:12)
 ------------------------------------------------------
 Symbolic Z-matrix:
 Charge =  0 Multiplicity = 1

                         Standard orientation:
 ---------------------------------------------------------------------
 Center     Atomic      Atomic             Coordinates (Angstroms)
 Number     Number       Type             X           Y           Z
 ---------------------------------------------------------------------
      1          6           0       -3.100238   -0.152165   -0.791010
      2          6           0       -3.943052   -1.157371   -0.005384
      3          6           0       -4.418823   -2.329203   -0.864597
      4          1           0       -3.688384    0.227245   -1.637815
      5          1           0       -2.231284   -0.669459   -1.220800
      6          1           0       -4.809421   -0.638050    0.423949
      7          1           0       -3.352899   -1.534289    0.839760
      8          1           0       -3.564884   -2.872814   -1.281581
      9          1           0       -5.029682   -1.971483   -1.699755
     10          1           0       -5.019469   -3.035545   -0.283077
     11          6           0       -2.617204    1.025037    0.054332
     12          6           0       -1.774389    2.030243   -0.731295
     13          6           0       -1.298619    3.202075    0.127918
     14          1           0       -3.486158    1.542331    0.484121
     15          1           0       -2.029058    0.645627    0.901136
     16          1           0       -2.364543    2.407161   -1.576439
     17          1           0       -0.908020    1.510922   -1.160627
     18          1           0       -0.687760    2.844355    0.963076
     19          1           0       -2.152558    3.745686    0.544902
     20          1           0       -0.697973    3.908417   -0.453602
     21          6           0        3.283547   -0.667892   -0.222746
     22          6           0        4.611298    0.080503   -0.345089
     23          6           0        5.449994   -0.393747   -1.532300
     24          1           0        3.483930   -1.743687   -0.125499
     25          1           0        2.711191   -0.539292   -1.151866
     26          1           0        5.180382   -0.048323    0.584515
     27          1           0        4.407739    1.154661   -0.441863
     28          1           0        4.905108   -0.249735   -2.470896
     29          1           0        5.682142   -1.459554   -1.438686
     30          1           0        6.394757    0.154499   -1.600923
     31          6           0        2.433894   -0.204979    0.959425
     32          6           0        1.106144   -0.953375    1.081768
     33          6           0        0.267447   -0.479125    2.268979
     34          1           0        3.006252   -0.333580    1.888545
     35          1           0        2.233512    0.870815    0.862178
     36          1           0        1.309703   -2.027532    1.178542
     37          1           0        0.537060   -0.824549    0.152164
     38          1           0        0.035300    0.586682    2.175365
     39          1           0        0.812333   -0.623137    3.207574
     40          1           0       -0.677315   -1.027372    2.337603
 ---------------------------------------------------------------------

 SCF Done:  E(RHF) =  -470.732615162     A.U. after   11 cycles
 E2 =    -0.1584506166D+01 EUMP2 =    -0.47231712132806D+03

 The electronic state is 1-A.
 Alpha  occ. eigenvalues --  -11.21713 -11.21638 -11.21609 -11.21598 -11.21472
 Alpha  occ. eigenvalues --  -11.21409 -11.21359 -11.21240 -11.21187 -11.21118
 Alpha  occ. eigenvalues --  -11.21098 -11.21062  -1.08517  -1.08393  -1.03623
 Alpha  occ. eigenvalues --   -1.03518  -0.96076  -0.95962  -0.87092  -0.86984
 Alpha  occ. eigenvalues --   -0.79700  -0.79574  -0.78326  -0.78195  -0.65386
 Alpha  occ. eigenvalues --   -0.64855  -0.61206  -0.60718  -0.59441  -0.59340
 Alpha  occ. eigenvalues --   -0.57701  -0.57556  -0.55435  -0.55180  -0.52781
 Alpha  occ. eigenvalues --   -0.52669  -0.52488  -0.52382  -0.50079  -0.49899
 Alpha  occ. eigenvalues --   -0.48035  -0.47864  -0.46874  -0.46528  -0.45909
 Alpha  occ. eigenvalues --   -0.45840  -0.45667  -0.45448  -0.43841  -0.43763
 Alpha virt. eigenvalues --    0.18957   0.22540   0.23453   0.24546   0.25259
 Alpha virt. eigenvalues --    0.26081   0.26589   0.27997   0.28588   0.29266
 Alpha virt. eigenvalues --    0.30390   0.31299   0.31736   0.31969   0.32201

 Mulliken charges:
               1
     1  C   -0.298913
     2  C   -0.300731
     3  C   -0.475724
     4  H    0.149411
     5  H    0.149636
     6  H    0.152122
     7  H    0.152236
     8  H    0.155278
     9  H    0.155232
    10  H    0.160167
    11  C   -0.307949
    12  C   -0.300311
    13  C   -0.479005
    14  H    0.148930
    15  H    0.162914
    16  H    0.152106
    17  H    0.151371
    18  H    0.156679
    19  H    0.155916
    20  H    0.160254
    21  C   -0.298323
    22  C   -0.299770
    23  C   -0.475772
    24  H    0.149817
    25  H    0.149348
    26  H    0.152043
    27  H    0.152247
    28  H    0.155284
    29  H    0.155211
    30  H    0.160436
    31  C   -0.299085
    32  C   -0.302796
    33  C   -0.483637
    34  H    0.150001
    35  H    0.150469
    36  H    0.152693
    37  H    0.154229
    38  H    0.159269
    39  H    0.157205
    40  H    0.161514
 Sum of Mulliken charges =  -0.00000

 Dipole moment (field-independent basis, Debye):
    X=              0.0309    Y=             -0.0099    Z=              0.0347  Tot=              0.0475
 Quadrupole moment (field-independent basis, Debye-Ang):
   XX=            -84.5440   YY=            -84.9321   ZZ=            -85.2487
   XY=             -0.9858   XZ=              0.8231   YZ=             -1.1764

 Normal termination of Gaussian 16 at Wed May  5 15:17:52 2021.
