 Gaussian 16, Revision A.03,
 Gaussian 16:  EM64L-G16RevA.03 25-Dec-2016

 -------------
 #p 6-31g* mp2
 -------------

 ------------------------------------------------------
 Input file generated by CHIRIPA (05-May-2021 14:55:18)
 ------------------------------------------------------
 Symbolic Z-matrix:
 Charge =  0 Multiplicity = 1

                         Standard orientation:
 ---------------------------------------------------------------------
 Center     Atomic      Atomic             Coordinates (Angstroms)
 Number     Number       Type             X           Y           Z
 ---------------------------------------------------------------------
      1          6           0        0.842470   -2.519725    1.005014
      2          6           0        1.062987   -1.366512    1.765273
      3          6           0        1.809782   -0.305233    1.245148
      4          6           0        2.323594   -0.431437   -0.044565
      5          6           0        2.121199   -1.567446   -0.826748
      6          6           0        1.371347   -2.616341   -0.286294
      7          1           0        0.261154   -3.339342    1.416955
      8          1           0        0.653467   -1.288709    2.768411
      9          1           0        1.995774    0.598986    1.811905
     10          1           0        2.542217   -1.615822   -1.823654
     11          1           0        1.201692   -3.510742   -0.879007
     12          7           0        3.115811    0.685536   -0.605959
     13          8           0        3.557683    0.549712   -1.744791
     14          8           0        3.279878    1.675693    0.103483
     15          6           0       -2.589409    1.515047    0.023910
     16          6           0       -1.106224    1.668291    0.362532
     17          6           0       -0.685946    3.128801    0.530081
     18          1           0       -2.807310    2.069024   -0.899438
     19          1           0       -3.189599    1.981561    0.817340
     20          1           0       -0.509040    1.200410   -0.430612
     21          1           0       -0.891786    1.113726    1.285077
     22          1           0       -1.256430    3.603957    1.334678
     23          1           0       -0.871508    3.691135   -0.390760
     24          1           0        0.377994    3.215198    0.771797
     25          6           0       -3.024741    0.060705   -0.146687
     26          6           0       -4.507926   -0.092539   -0.485307
     27          6           0       -4.928203   -1.553049   -0.652857
     28          1           0       -2.424550   -0.405808   -0.940116
     29          1           0       -2.806840   -0.493272    0.776662
     30          1           0       -4.722362    0.462026   -1.407854
     31          1           0       -5.105109    0.375341    0.307836
     32          1           0       -4.742641   -2.115382    0.267984
     33          1           0       -4.357720   -2.028205   -1.457454
     34          1           0       -5.992144   -1.639446   -0.894573
 ---------------------------------------------------------------------

 SCF Done:  E(RHF) =  -669.535178621     A.U. after   15 cycles
 E2 =    -0.2093665537D+01 EUMP2 =    -0.67162884415744D+03

 The electronic state is 1-A.
 Alpha  occ. eigenvalues --  -20.60843 -20.60838 -15.85883 -11.31194 -11.27795
 Alpha  occ. eigenvalues --  -11.27776 -11.27530 -11.26783 -11.26768 -11.21826
 Alpha  occ. eigenvalues --  -11.21589 -11.21550 -11.21423 -11.21395 -11.20793
 Alpha  occ. eigenvalues --   -1.59908  -1.39463  -1.19389  -1.08787  -1.08547
 Alpha  occ. eigenvalues --   -1.04794  -1.03610  -0.96054  -0.95626  -0.87062
 Alpha  occ. eigenvalues --   -0.86189  -0.82466  -0.79692  -0.78375  -0.77512
 Alpha  occ. eigenvalues --   -0.72103  -0.71227  -0.70501  -0.65194  -0.65038
 Alpha  occ. eigenvalues --   -0.64795  -0.62150  -0.61014  -0.59432  -0.57670
 Alpha  occ. eigenvalues --   -0.55349  -0.55290  -0.53180  -0.52888  -0.52678
 Alpha  occ. eigenvalues --   -0.52464  -0.50004  -0.48862  -0.48858  -0.47980
 Alpha  occ. eigenvalues --   -0.46744  -0.45894  -0.45829  -0.44868  -0.43851
 Alpha  occ. eigenvalues --   -0.37343  -0.36299
 Alpha virt. eigenvalues --    0.04989   0.11198   0.16407   0.20968   0.22788
 Alpha virt. eigenvalues --    0.23990   0.26199   0.26801   0.27262   0.27933
 Alpha virt. eigenvalues --    0.28592   0.30356   0.31388   0.31597   0.31750

 Mulliken charges:
               1
     1  C   -0.169694
     2  C   -0.217852
     3  C   -0.165173
     4  C    0.158348
     5  C   -0.172230
     6  C   -0.218740
     7  H    0.225888
     8  H    0.223034
     9  H    0.275810
    10  H    0.275564
    11  H    0.223499
    12  N    0.488243
    13  O   -0.459962
    14  O   -0.461136
    15  C   -0.298432
    16  C   -0.299418
    17  C   -0.481467
    18  H    0.151466
    19  H    0.148501
    20  H    0.153005
    21  H    0.144167
    22  H    0.151763
    23  H    0.157735
    24  H    0.171381
    25  C   -0.296540
    26  C   -0.299676
    27  C   -0.475227
    28  H    0.149750
    29  H    0.144090
    30  H    0.153691
    31  H    0.152102
    32  H    0.151994
    33  H    0.154142
    34  H    0.161373
 Sum of Mulliken charges =  -0.00000

 Dipole moment (field-independent basis, Debye):
    X=             -2.7013    Y=             -3.9042    Z=              1.9343  Tot=              5.1266
 Quadrupole moment (field-independent basis, Debye-Ang):
   XX=           -108.8484   YY=            -91.3779   ZZ=            -90.6059
   XY=             -8.7908   XZ=              3.9740   YZ=              1.5070

 Normal termination of Gaussian 16 at Thu May  6 07:38:54 2021.
