 Gaussian 16, Revision A.03,
 Gaussian 16:  EM64L-G16RevA.03 25-Dec-2016

 -------------
 #p 6-31g* mp2
 -------------

 ------------------------------------------------------
 Input file generated by CHIRIPA (05-May-2021 14:53:12)
 ------------------------------------------------------
 Symbolic Z-matrix:
 Charge =  0 Multiplicity = 1

                         Standard orientation:
 ---------------------------------------------------------------------
 Center     Atomic      Atomic             Coordinates (Angstroms)
 Number     Number       Type             X           Y           Z
 ---------------------------------------------------------------------
      1          6           0       -3.793450    0.102948    0.169058
      2          6           0       -5.020476    0.139433   -0.742567
      3          6           0       -6.002416   -0.997479   -0.457925
      4          1           0       -3.283552   -0.862665    0.048473
      5          1           0       -4.121789    0.154393    1.216408
      6          1           0       -4.689844    0.089328   -1.787932
      7          1           0       -5.527405    1.105146   -0.619939
      8          1           0       -6.360498   -0.947571    0.575462
      9          1           0       -5.518179   -1.969160   -0.599167
     10          1           0       -6.872074   -0.952258   -1.120880
     11          6           0       -2.802511    1.233236   -0.103371
     12          6           0       -1.575485    1.196751    0.808254
     13          6           0       -0.593545    2.333662    0.523612
     14          1           0       -2.474173    1.181790   -1.150721
     15          1           0       -3.312410    2.198848    0.017215
     16          1           0       -1.068557    0.231037    0.685627
     17          1           0       -1.906118    1.246855    1.853619
     18          1           0       -1.077783    3.305344    0.664855
     19          1           0       -0.235463    2.283754   -0.509774
     20          1           0        0.276112    2.288441    1.186568
     21          6           0        0.660656   -1.956752    0.772226
     22          6           0        1.455779   -1.272861    1.697750
     23          6           0        2.519957   -0.475024    1.267019
     24          6           0        2.761769   -0.383235   -0.102796
     25          6           0        1.987574   -1.052330   -1.049488
     26          6           0        0.928620   -1.844501   -0.596028
     27          1           0       -0.163994   -2.574330    1.115657
     28          1           0        1.250002   -1.358182    2.760963
     29          1           0        3.151401    0.065259    1.961850
     30          1           0        2.217229   -0.947738   -2.102929
     31          1           0        0.312783   -2.374483   -1.317074
     32          7           0        3.885601    0.458400   -0.570823
     33          8           0        4.077932    0.522771   -1.783054
     34          8           0        4.552853    1.037767    0.283430
 ---------------------------------------------------------------------

 SCF Done:  E(RHF) =  -669.534853600     A.U. after   15 cycles
 E2 =    -0.2093699003D+01 EUMP2 =    -0.67162855260299D+03

 The electronic state is 1-A.
 Alpha  occ. eigenvalues --  -20.60826 -20.60821 -15.85882 -11.31291 -11.27872
 Alpha  occ. eigenvalues --  -11.27865 -11.27593 -11.26887 -11.26869 -11.22024
 Alpha  occ. eigenvalues --  -11.21870 -11.21710 -11.21646 -11.21513 -11.21131
 Alpha  occ. eigenvalues --   -1.59900  -1.39453  -1.19476  -1.08885  -1.08761
 Alpha  occ. eigenvalues --   -1.04879  -1.03817  -0.96277  -0.95690  -0.87288
 Alpha  occ. eigenvalues --   -0.86274  -0.82515  -0.79900  -0.78607  -0.77551
 Alpha  occ. eigenvalues --   -0.72100  -0.71222  -0.70580  -0.65429  -0.65124
 Alpha  occ. eigenvalues --   -0.64874  -0.62220  -0.61250  -0.59668  -0.57911
 Alpha  occ. eigenvalues --   -0.55604  -0.55378  -0.53260  -0.52966  -0.52847
 Alpha  occ. eigenvalues --   -0.52699  -0.50225  -0.48862  -0.48852  -0.48213
 Alpha  occ. eigenvalues --   -0.46946  -0.46142  -0.46073  -0.44851  -0.44094
 Alpha  occ. eigenvalues --   -0.37316  -0.36477
 Alpha virt. eigenvalues --    0.04956   0.11121   0.16390   0.20929   0.22675
 Alpha virt. eigenvalues --    0.23970   0.26054   0.26848   0.27142   0.27615
 Alpha virt. eigenvalues --    0.28937   0.30819   0.31205   0.31583   0.31670

 Mulliken charges:
               1
     1  C   -0.296359
     2  C   -0.299725
     3  C   -0.475506
     4  H    0.140820
     5  H    0.149453
     6  H    0.151998
     7  H    0.154231
     8  H    0.155547
     9  H    0.152351
    10  H    0.161950
    11  C   -0.297645
    12  C   -0.308087
    13  C   -0.474839
    14  H    0.149116
    15  H    0.151090
    16  H    0.159345
    17  H    0.147238
    18  H    0.155392
    19  H    0.156482
    20  H    0.159723
    21  C   -0.175729
    22  C   -0.214226
    23  C   -0.171238
    24  C    0.160625
    25  C   -0.170981
    26  C   -0.216997
    27  H    0.227349
    28  H    0.224648
    29  H    0.276151
    30  H    0.276067
    31  H    0.223992
    32  N    0.488058
    33  O   -0.460230
    34  O   -0.460064
 Sum of Mulliken charges =  -0.00000

 Dipole moment (field-independent basis, Debye):
    X=             -3.8673    Y=             -2.9798    Z=              1.6405  Tot=              5.1504
 Quadrupole moment (field-independent basis, Debye-Ang):
   XX=           -117.5331   YY=            -93.1170   ZZ=            -90.2077
   XY=             -7.4202   XZ=              6.0358   YZ=              1.3117

 Normal termination of Gaussian 16 at Wed May  5 20:09:55 2021.
