 Gaussian 16, Revision A.03,
 Gaussian 16:  EM64L-G16RevA.03 25-Dec-2016

 -------------
 #p 6-31g* mp2
 -------------

 ------------------------------------------------------
 Input file generated by CHIRIPA (05-May-2021 14:53:11)
 ------------------------------------------------------
 Symbolic Z-matrix:
 Charge =  0 Multiplicity = 1

                         Standard orientation:
 ---------------------------------------------------------------------
 Center     Atomic      Atomic             Coordinates (Angstroms)
 Number     Number       Type             X           Y           Z
 ---------------------------------------------------------------------
      1          6           0        2.596141   -0.621636   -0.583066
      2          6           0        2.455991   -2.133048   -0.398733
      3          6           0        1.183983   -2.691085   -1.037783
      4          1           0        1.717796   -0.122949   -0.150903
      5          1           0        2.591322   -0.388222   -1.656792
      6          1           0        2.462464   -2.363675    0.674293
      7          1           0        3.334864   -2.628183   -0.831215
      8          1           0        1.173317   -2.489952   -2.113902
      9          1           0        0.295961   -2.223941   -0.599840
     10          1           0        1.103910   -3.773119   -0.894076
     11          6           0        3.862856   -0.048964    0.050345
     12          6           0        4.003006    1.462447   -0.133987
     13          6           0        5.275014    2.020485    0.505062
     14          1           0        3.867675   -0.282379    1.124072
     15          1           0        4.741201   -0.547652   -0.381818
     16          1           0        3.124133    1.957582    0.298494
     17          1           0        3.996533    1.693074   -1.207014
     18          1           0        6.163036    1.553340    0.067119
     19          1           0        5.285680    1.819351    1.581181
     20          1           0        5.355087    3.102518    0.361356
     21          6           0       -2.940269    2.593885   -0.660205
     22          6           0       -2.155710    2.402111    0.481816
     23          6           0       -1.917906    1.114533    0.971856
     24          6           0       -2.482710    0.036511    0.292038
     25          6           0       -3.268770    0.195123   -0.848243
     26          6           0       -3.493320    1.491721   -1.320425
     27          1           0       -3.119853    3.597611   -1.033944
     28          1           0       -1.724928    3.256208    0.996589
     29          1           0       -1.314395    0.937429    1.853802
     30          1           0       -3.684759   -0.675863   -1.339931
     31          1           0       -4.103024    1.637654   -2.207562
     32          7           0       -2.237973   -1.331365    0.801369
     33          8           0       -2.746910   -2.264575    0.184327
     34          8           0       -1.541846   -1.444397    1.807981
 ---------------------------------------------------------------------

 SCF Done:  E(RHF) =  -669.535813013     A.U. after   15 cycles
 E2 =    -0.2091628364D+01 EUMP2 =    -0.67162744137715D+03

 The electronic state is 1-A.
 Alpha  occ. eigenvalues --  -20.60881 -20.60868 -15.85911 -11.31263 -11.27834
 Alpha  occ. eigenvalues --  -11.27816 -11.27561 -11.26837 -11.26825 -11.21554
 Alpha  occ. eigenvalues --  -11.21158 -11.21051 -11.21041 -11.20967 -11.20280
 Alpha  occ. eigenvalues --   -1.59953  -1.39502  -1.19430  -1.08831  -1.08124
 Alpha  occ. eigenvalues --   -1.04828  -1.03171  -0.95669  -0.95613  -0.86631
 Alpha  occ. eigenvalues --   -0.86227  -0.82500  -0.79262  -0.77922  -0.77552
 Alpha  occ. eigenvalues --   -0.72131  -0.71298  -0.70536  -0.65083  -0.64830
 Alpha  occ. eigenvalues --   -0.64752  -0.62175  -0.60556  -0.59017  -0.57222
 Alpha  occ. eigenvalues --   -0.55330  -0.54894  -0.53156  -0.52920  -0.52292
 Alpha  occ. eigenvalues --   -0.52045  -0.49575  -0.48892  -0.48880  -0.47570
 Alpha  occ. eigenvalues --   -0.46302  -0.45464  -0.45367  -0.44904  -0.43430
 Alpha  occ. eigenvalues --   -0.37407  -0.36426
 Alpha virt. eigenvalues --    0.04963   0.11194   0.16446   0.21320   0.23081
 Alpha virt. eigenvalues --    0.24577   0.26616   0.27298   0.27675   0.28278
 Alpha virt. eigenvalues --    0.28400   0.30742   0.31691   0.32067   0.32360

 Mulliken charges:
               1
     1  C   -0.297354
     2  C   -0.300083
     3  C   -0.473748
     4  H    0.146674
     5  H    0.146868
     6  H    0.157488
     7  H    0.148912
     8  H    0.148847
     9  H    0.159056
    10  H    0.164531
    11  C   -0.298350
    12  C   -0.298307
    13  C   -0.475492
    14  H    0.150950
    15  H    0.149655
    16  H    0.147578
    17  H    0.150924
    18  H    0.155920
    19  H    0.155469
    20  H    0.158149
    21  C   -0.170483
    22  C   -0.218299
    23  C   -0.171489
    24  C    0.157057
    25  C   -0.170505
    26  C   -0.218428
    27  H    0.225970
    28  H    0.223772
    29  H    0.275511
    30  H    0.276128
    31  H    0.223820
    32  N    0.487301
    33  O   -0.458026
    34  O   -0.460015
 Sum of Mulliken charges =  -0.00000

 Dipole moment (field-independent basis, Debye):
    X=             -0.9862    Y=              4.7346    Z=             -1.7547  Tot=              5.1447
 Quadrupole moment (field-independent basis, Debye-Ang):
   XX=            -90.1846   YY=            -94.2837   ZZ=            -92.9135
   XY=            -11.7229   XZ=              6.0976   YZ=              2.7120

 Normal termination of Gaussian 16 at Thu May  6 02:31:13 2021.
