 Gaussian 16, Revision A.03,
 Gaussian 16:  EM64L-G16RevA.03 25-Dec-2016

 -------------
 #p 6-31g* mp2
 -------------

 ------------------------------------------------------
 Input file generated by CHIRIPA (05-May-2021 14:57:26)
 ------------------------------------------------------
 Symbolic Z-matrix:
 Charge =  0 Multiplicity = 1

                         Standard orientation:
 ---------------------------------------------------------------------
 Center     Atomic      Atomic             Coordinates (Angstroms)
 Number     Number       Type             X           Y           Z
 ---------------------------------------------------------------------
      1          6           0       -3.453428    2.645229    0.284095
      2          6           0       -3.902204    1.804893    1.308280
      3          6           0       -3.841711    0.415567    1.164536
      4          6           0       -3.324254   -0.101751   -0.022018
      5          6           0       -2.869260    0.709250   -1.060549
      6          6           0       -2.939294    2.095695   -0.894973
      7          1           0       -3.504126    3.723371    0.404239
      8          1           0       -4.301969    2.228876    2.225053
      9          1           0       -4.182196   -0.258152    1.941447
     10          1           0       -2.475835    0.257174   -1.962914
     11          1           0       -2.590041    2.745883   -1.692044
     12          7           0       -3.255162   -1.571042   -0.185750
     13          8           0       -2.794992   -2.001954   -1.240831
     14          8           0       -3.662485   -2.263940    0.744098
     15          6           0        1.173112   -1.419684   -0.234837
     16          6           0        1.256126   -0.098334   -0.686128
     17          6           0        2.449228    0.620070   -0.563865
     18          6           0        3.544706   -0.016730    0.017255
     19          6           0        3.493386   -1.331938    0.476476
     20          6           0        2.290038   -2.031191    0.344005
     21          1           0        0.242302   -1.970320   -0.333778
     22          1           0        0.390310    0.379117   -1.136072
     23          1           0        2.541190    1.644150   -0.904782
     24          1           0        4.373374   -1.781045    0.920706
     25          1           0        2.228472   -3.057250    0.695371
     26          7           0        4.813213    0.733675    0.152094
     27          8           0        5.764062    0.149991    0.667687
     28          8           0        4.832601    1.891318   -0.260368
 ---------------------------------------------------------------------

 SCF Done:  E(RHF) =  -868.339456093     A.U. after   16 cycles
 E2 =    -0.2599812906D+01 EUMP2 =    -0.87093926899850D+03

 The electronic state is 1-A.
 Alpha  occ. eigenvalues --  -20.62007 -20.61968 -20.60618 -20.60607 -15.87007
 Alpha  occ. eigenvalues --  -15.85667 -11.32216 -11.30927 -11.28797 -11.28696
 Alpha  occ. eigenvalues --  -11.28391 -11.27740 -11.27657 -11.27539 -11.27475
 Alpha  occ. eigenvalues --  -11.27060 -11.26483 -11.26393  -1.61057  -1.59693
 Alpha  occ. eigenvalues --   -1.40612  -1.39250  -1.20356  -1.19083  -1.09766
 Alpha  occ. eigenvalues --   -1.08466  -1.05732  -1.04486  -0.96632  -0.95321
 Alpha  occ. eigenvalues --   -0.87127  -0.85871  -0.83466  -0.82173  -0.78552
 Alpha  occ. eigenvalues --   -0.77265  -0.73214  -0.72393  -0.71885  -0.71429
 Alpha  occ. eigenvalues --   -0.71017  -0.70088  -0.65998  -0.65709  -0.64723
 Alpha  occ. eigenvalues --   -0.64492  -0.63074  -0.61850  -0.56188  -0.54870
 Alpha  occ. eigenvalues --   -0.54061  -0.53801  -0.52805  -0.52558  -0.50000
 Alpha  occ. eigenvalues --   -0.49961  -0.48648  -0.48633  -0.46032  -0.44680
 Alpha  occ. eigenvalues --   -0.38295  -0.37333  -0.37002  -0.36103
 Alpha virt. eigenvalues --    0.03908   0.05291   0.10254   0.11563   0.15436
 Alpha virt. eigenvalues --    0.16821   0.20114   0.21866   0.25748   0.27072
 Alpha virt. eigenvalues --    0.28246   0.28617   0.30427   0.31016   0.31861

 Mulliken charges:
               1
     1  C   -0.169164
     2  C   -0.217191
     3  C   -0.169741
     4  C    0.158188
     5  C   -0.178757
     6  C   -0.219560
     7  H    0.230295
     8  H    0.227852
     9  H    0.278042
    10  H    0.273850
    11  H    0.226283
    12  N    0.486209
    13  O   -0.465074
    14  O   -0.454519
    15  C   -0.177054
    16  C   -0.219719
    17  C   -0.172262
    18  C    0.157817
    19  C   -0.171185
    20  C   -0.219419
    21  H    0.240778
    22  H    0.217054
    23  H    0.271658
    24  H    0.274864
    25  H    0.226153
    26  N    0.488250
    27  O   -0.460681
    28  O   -0.462968
 Sum of Mulliken charges =  -0.00000

 Dipole moment (field-independent basis, Debye):
    X=             -5.1143    Y=              2.5334    Z=              0.2820  Tot=              5.7144
 Quadrupole moment (field-independent basis, Debye-Ang):
   XX=           -133.9050   YY=           -102.6979   ZZ=           -100.5908
   XY=            -29.0798   XZ=             -5.1982   YZ=             -2.7585

 Normal termination of Gaussian 16 at Thu May  6 09:56:44 2021.
