 Gaussian 16, Revision A.03,
 Gaussian 16:  EM64L-G16RevA.03 25-Dec-2016

 -------------
 #p 6-31g* mp2
 -------------

 ------------------------------------------------------
 Input file generated by CHIRIPA (05-May-2021 14:53:17)
 ------------------------------------------------------
 Symbolic Z-matrix:
 Charge =  0 Multiplicity = 1

                         Standard orientation:
 ---------------------------------------------------------------------
 Center     Atomic      Atomic             Coordinates (Angstroms)
 Number     Number       Type             X           Y           Z
 ---------------------------------------------------------------------
      1          6           0        5.198483   -0.547953   -0.036463
      2          6           0        6.563446   -0.199824    0.558235
      3          6           0        7.526210   -1.387615    0.563726
      4          1           0        4.757483   -1.376589    0.534348
      5          1           0        5.336280   -0.914188   -1.063244
      6          1           0        6.422991    0.166953    1.583107
      7          1           0        7.001163    0.628207   -0.013940
      8          1           0        7.695772   -1.750782   -0.455077
      9          1           0        7.114314   -2.214658    1.151044
     10          1           0        8.495783   -1.116530    0.993030
     11          6           0        4.225002    0.629294   -0.048880
     12          6           0        2.860039    0.281165   -0.643578
     13          6           0        1.897274    1.468957   -0.649069
     14          1           0        4.087205    0.995530    0.977901
     15          1           0        4.666002    1.457930   -0.619692
     16          1           0        2.422322   -0.546866   -0.071403
     17          1           0        3.000494   -0.085611   -1.668450
     18          1           0        2.309171    2.295999   -1.236387
     19          1           0        1.727713    1.832124    0.369734
     20          1           0        0.927702    1.197872   -1.078373
     21          6           0       -2.620137    2.256986    0.077684
     22          6           0       -2.189741    1.303817   -0.851158
     23          6           0       -2.770395    0.032496   -0.884813
     24          6           0       -3.783614   -0.253043    0.029050
     25          6           0       -4.234226    0.675158    0.966430
     26          6           0       -3.639209    1.940173    0.981921
     27          1           0       -2.163493    3.242130    0.096773
     28          1           0       -1.398511    1.547074   -1.554598
     29          1           0       -2.456431   -0.724355   -1.593347
     30          1           0       -5.025019    0.403324    1.655032
     31          1           0       -3.975477    2.678431    1.704377
     32          7           0       -4.405928   -1.595596    0.003036
     33          8           0       -5.296841   -1.822382    0.818806
     34          8           0       -3.991003   -2.395680   -0.832630
 ---------------------------------------------------------------------

 SCF Done:  E(RHF) =  -669.535367319     A.U. after   15 cycles
 E2 =    -0.2090934145D+01 EUMP2 =    -0.67162630146349D+03

 The electronic state is 1-A.
 Alpha  occ. eigenvalues --  -20.60753 -20.60748 -15.85807 -11.31173 -11.27747
 Alpha  occ. eigenvalues --  -11.27741 -11.27479 -11.26757 -11.26734 -11.22144
 Alpha  occ. eigenvalues --  -11.21877 -11.21855 -11.21809 -11.21672 -11.21260
 Alpha  occ. eigenvalues --   -1.59829  -1.39383  -1.19347  -1.08823  -1.08738
 Alpha  occ. eigenvalues --   -1.04754  -1.03959  -0.96429  -0.95573  -0.87458
 Alpha  occ. eigenvalues --   -0.86145  -0.82409  -0.80027  -0.78609  -0.77459
 Alpha  occ. eigenvalues --   -0.72025  -0.71152  -0.70448  -0.65446  -0.64998
 Alpha  occ. eigenvalues --   -0.64789  -0.62140  -0.61346  -0.59807  -0.58026
 Alpha  occ. eigenvalues --   -0.55704  -0.55247  -0.53354  -0.53035  -0.52903
 Alpha  occ. eigenvalues --   -0.52614  -0.50355  -0.48785  -0.48780  -0.48337
 Alpha  occ. eigenvalues --   -0.47038  -0.46160  -0.46064  -0.44788  -0.44211
 Alpha  occ. eigenvalues --   -0.37317  -0.36343
 Alpha virt. eigenvalues --    0.05076   0.11230   0.16511   0.20663   0.22582
 Alpha virt. eigenvalues --    0.23929   0.26056   0.26291   0.27126   0.28140
 Alpha virt. eigenvalues --    0.28460   0.30036   0.30994   0.31645   0.32202

 Mulliken charges:
               1
     1  C   -0.298832
     2  C   -0.299924
     3  C   -0.475979
     4  H    0.151299
     5  H    0.150256
     6  H    0.152124
     7  H    0.151819
     8  H    0.155651
     9  H    0.156121
    10  H    0.160868
    11  C   -0.298983
    12  C   -0.299448
    13  C   -0.478895
    14  H    0.149992
    15  H    0.149580
    16  H    0.155517
    17  H    0.152902
    18  H    0.155199
    19  H    0.156716
    20  H    0.152875
    21  C   -0.171490
    22  C   -0.218065
    23  C   -0.172176
    24  C    0.158484
    25  C   -0.170811
    26  C   -0.218774
    27  H    0.226323
    28  H    0.226128
    29  H    0.275496
    30  H    0.275555
    31  H    0.223357
    32  N    0.488108
    33  O   -0.460535
    34  O   -0.460457
 Sum of Mulliken charges =  -0.00000

 Dipole moment (field-independent basis, Debye):
    X=              2.3090    Y=              4.7125    Z=              0.1361  Tot=              5.2495
 Quadrupole moment (field-independent basis, Debye-Ang):
   XX=           -110.1687   YY=            -97.9608   ZZ=            -91.4406
   XY=            -18.9574   XZ=             -3.2784   YZ=              1.1522

 Normal termination of Gaussian 16 at Wed May  5 15:45:32 2021.
