 Gaussian 16, Revision A.03,
 Gaussian 16:  EM64L-G16RevA.03 25-Dec-2016

 -------------
 #p 6-31g* mp2
 -------------

 ------------------------------------------------------
 Input file generated by CHIRIPA (05-May-2021 14:53:12)
 ------------------------------------------------------
 Symbolic Z-matrix:
 Charge =  0 Multiplicity = 1

                         Standard orientation:
 ---------------------------------------------------------------------
 Center     Atomic      Atomic             Coordinates (Angstroms)
 Number     Number       Type             X           Y           Z
 ---------------------------------------------------------------------
      1          6           0       -3.357073   -0.211472   -0.148462
      2          6           0       -2.837502   -1.432417   -0.908282
      3          6           0       -3.752219   -2.649509   -0.767665
      4          1           0       -3.467281   -0.468309    0.914004
      5          1           0       -4.361986    0.039618   -0.515204
      6          1           0       -1.833305   -1.680289   -0.541180
      7          1           0       -2.728337   -1.172586   -1.969030
      8          1           0       -4.752711   -2.425929   -1.151890
      9          1           0       -3.852594   -2.936516    0.284073
     10          1           0       -3.361880   -3.510871   -1.318620
     11          6           0       -2.453418    1.013266   -0.279426
     12          6           0       -2.972989    2.234211    0.480393
     13          6           0       -2.058273    3.451303    0.339777
     14          1           0       -1.448506    0.762176    0.087316
     15          1           0       -2.343211    1.270103   -1.341892
     16          1           0       -3.082155    1.974380    1.541142
     17          1           0       -3.977186    2.482082    0.113291
     18          1           0       -1.957898    3.738310   -0.711961
     19          1           0       -1.057781    3.227723    0.724002
     20          1           0       -2.448612    4.312665    0.890732
     21          6           0        3.708057    1.510199   -0.818925
     22          6           0        2.518420    1.836578   -0.159563
     23          6           0        1.713626    0.834507    0.390627
     24          6           0        2.130670   -0.489480    0.262473
     25          6           0        3.310470   -0.846510   -0.388597
     26          6           0        4.099596    0.172055   -0.931141
     27          1           0        4.327154    2.295038   -1.243356
     28          1           0        2.211853    2.874943   -0.070902
     29          1           0        0.787825    1.059075    0.906263
     30          1           0        3.589811   -1.890606   -0.461043
     31          1           0        5.022978   -0.084360   -1.442668
     32          7           0        1.286965   -1.559059    0.840887
     33          8           0        1.676552   -2.717892    0.714531
     34          8           0        0.252058   -1.218310    1.409651
 ---------------------------------------------------------------------

 SCF Done:  E(RHF) =  -669.535910541     A.U. after   15 cycles
 E2 =    -0.2093553235D+01 EUMP2 =    -0.67162946377588D+03

 The electronic state is 1-A.
 Alpha  occ. eigenvalues --  -20.61052 -20.61044 -15.86053 -11.31305 -11.27860
 Alpha  occ. eigenvalues --  -11.27845 -11.27583 -11.26855 -11.26836 -11.21474
 Alpha  occ. eigenvalues --  -11.21375 -11.20958 -11.20673 -11.20600 -11.20182
 Alpha  occ. eigenvalues --   -1.60098  -1.39658  -1.19468  -1.08885  -1.07919
 Alpha  occ. eigenvalues --   -1.04854  -1.03066  -0.95743  -0.95557  -0.86589
 Alpha  occ. eigenvalues --   -0.86260  -0.82578  -0.79186  -0.77811  -0.77507
 Alpha  occ. eigenvalues --   -0.72287  -0.71404  -0.70589  -0.65134  -0.64910
 Alpha  occ. eigenvalues --   -0.64484  -0.62212  -0.60436  -0.58989  -0.57145
 Alpha  occ. eigenvalues --   -0.55366  -0.54868  -0.53185  -0.52958  -0.52283
 Alpha  occ. eigenvalues --   -0.51993  -0.49554  -0.49046  -0.49028  -0.47481
 Alpha  occ. eigenvalues --   -0.46167  -0.45605  -0.45181  -0.44506  -0.43286
 Alpha  occ. eigenvalues --   -0.37440  -0.36436
 Alpha virt. eigenvalues --    0.04824   0.11138   0.16325   0.19630   0.23295
 Alpha virt. eigenvalues --    0.24339   0.26069   0.27152   0.27849   0.28326
 Alpha virt. eigenvalues --    0.29590   0.31168   0.31689   0.31947   0.32632

 Mulliken charges:
               1
     1  C   -0.294718
     2  C   -0.306380
     3  C   -0.475155
     4  H    0.155712
     5  H    0.144842
     6  H    0.169000
     7  H    0.144212
     8  H    0.149777
     9  H    0.159157
    10  H    0.159417
    11  C   -0.307350
    12  C   -0.299941
    13  C   -0.474501
    14  H    0.157444
    15  H    0.145162
    16  H    0.155442
    17  H    0.152640
    18  H    0.154826
    19  H    0.141606
    20  H    0.161776
    21  C   -0.170369
    22  C   -0.220372
    23  C   -0.172159
    24  C    0.157920
    25  C   -0.170375
    26  C   -0.218608
    27  H    0.226204
    28  H    0.225139
    29  H    0.280645
    30  H    0.275715
    31  H    0.223885
    32  N    0.488032
    33  O   -0.457579
    34  O   -0.461046
 Sum of Mulliken charges =  -0.00000

 Dipole moment (field-independent basis, Debye):
    X=              3.1243    Y=              3.6085    Z=             -1.9286  Tot=              5.1480
 Quadrupole moment (field-independent basis, Debye-Ang):
   XX=            -80.4678   YY=            -97.4243   ZZ=            -95.5696
   XY=              3.4700   XZ=             -4.9829   YZ=              2.7948

 Normal termination of Gaussian 16 at Wed May  5 20:07:03 2021.
