 Gaussian 16, Revision A.03,
 Gaussian 16:  EM64L-G16RevA.03 25-Dec-2016

 -------------
 #p 6-31g* mp2
 -------------

 ------------------------------------------------------
 Input file generated by CHIRIPA (05-May-2021 14:57:22)
 ------------------------------------------------------
 Symbolic Z-matrix:
 Charge =  0 Multiplicity = 1

                         Standard orientation:
 ---------------------------------------------------------------------
 Center     Atomic      Atomic             Coordinates (Angstroms)
 Number     Number       Type             X           Y           Z
 ---------------------------------------------------------------------
      1          6           0       -2.456490    2.478838    0.521754
      2          6           0       -3.711875    2.186481   -0.021438
      3          6           0       -4.040287    0.877419   -0.386200
      4          6           0       -3.084998   -0.119288   -0.193097
      5          6           0       -1.825790    0.140345    0.345677
      6          6           0       -1.519107    1.456639    0.703258
      7          1           0       -2.209811    3.498557    0.802321
      8          1           0       -4.441833    2.978324   -0.163531
      9          1           0       -5.004719    0.623160   -0.808858
     10          1           0       -1.118939   -0.670186    0.475367
     11          1           0       -0.543378    1.680759    1.124884
     12          7           0       -3.421172   -1.508961   -0.575453
     13          8           0       -2.561994   -2.369177   -0.395236
     14          8           0       -4.537477   -1.711656   -1.048121
     15          6           0        1.882176   -1.012039    2.188047
     16          6           0        1.910813    0.366016    1.950002
     17          6           0        2.543710    0.877137    0.813012
     18          6           0        3.140521   -0.022517   -0.068876
     19          6           0        3.128851   -1.400661    0.140583
     20          6           0        2.490214   -1.889432    1.284171
     21          1           0        1.388296   -1.400410    3.073850
     22          1           0        1.439435    1.049768    2.650238
     23          1           0        2.580759    1.939434    0.604277
     24          1           0        3.607510   -2.057422   -0.575636
     25          1           0        2.469533   -2.960125    1.466476
     26          7           0        3.813579    0.506754   -1.276049
     27          8           0        4.331971   -0.306812   -2.037637
     28          8           0        3.809984    1.725141   -1.437785
 ---------------------------------------------------------------------

 SCF Done:  E(RHF) =  -868.337474025     A.U. after   16 cycles
 E2 =    -0.2601426275D+01 EUMP2 =    -0.87093890030034D+03

 The electronic state is 1-A.
 Alpha  occ. eigenvalues --  -20.61255 -20.61235 -20.60998 -20.60982 -15.86310
 Alpha  occ. eigenvalues --  -15.86046 -11.31849 -11.31387 -11.28541 -11.28375
 Alpha  occ. eigenvalues --  -11.28218 -11.27957 -11.27944 -11.27719 -11.27611
 Alpha  occ. eigenvalues --  -11.27389 -11.26967 -11.26957  -1.60319  -1.60067
 Alpha  occ. eigenvalues --   -1.39868  -1.39622  -1.20066  -1.19565  -1.09413
 Alpha  occ. eigenvalues --   -1.08971  -1.05510  -1.04957  -0.96209  -0.95804
 Alpha  occ. eigenvalues --   -0.86871  -0.86376  -0.83057  -0.82631  -0.78085
 Alpha  occ. eigenvalues --   -0.77672  -0.72523  -0.72267  -0.71644  -0.71388
 Alpha  occ. eigenvalues --   -0.71120  -0.70682  -0.65714  -0.65550  -0.65219
 Alpha  occ. eigenvalues --   -0.64951  -0.62859  -0.62287  -0.55939  -0.55503
 Alpha  occ. eigenvalues --   -0.53785  -0.53601  -0.53295  -0.53008  -0.49296
 Alpha  occ. eigenvalues --   -0.49267  -0.49024  -0.49018  -0.45235  -0.45032
 Alpha  occ. eigenvalues --   -0.38043  -0.37557  -0.37090  -0.36557
 Alpha virt. eigenvalues --    0.04434   0.04863   0.10468   0.11093   0.15739
 Alpha virt. eigenvalues --    0.16336   0.19772   0.21916   0.25476   0.27580
 Alpha virt. eigenvalues --    0.27998   0.28416   0.29961   0.31681   0.31961

 Mulliken charges:
               1
     1  C   -0.170751
     2  C   -0.218367
     3  C   -0.170289
     4  C    0.159125
     5  C   -0.175064
     6  C   -0.219952
     7  H    0.225467
     8  H    0.224349
     9  H    0.276265
    10  H    0.275859
    11  H    0.218300
    12  N    0.488287
    13  O   -0.462361
    14  O   -0.459314
    15  C   -0.174652
    16  C   -0.228566
    17  C   -0.172027
    18  C    0.159650
    19  C   -0.167943
    20  C   -0.217193
    21  H    0.230933
    22  H    0.220874
    23  H    0.274775
    24  H    0.280425
    25  H    0.230840
    26  N    0.488283
    27  O   -0.456364
    28  O   -0.460588
 Sum of Mulliken charges =  -0.00000

 Dipole moment (field-independent basis, Debye):
    X=             -0.9611    Y=              2.8012    Z=              5.5033  Tot=              6.2496
 Quadrupole moment (field-independent basis, Debye-Ang):
   XX=           -122.5649   YY=           -101.4604   ZZ=           -106.4239
   XY=            -24.7089   XZ=             10.3968   YZ=             -0.4469

 Normal termination of Gaussian 16 at Thu May  6 04:58:04 2021.
