 Gaussian 16, Revision A.03,
 Gaussian 16:  EM64L-G16RevA.03 25-Dec-2016

 -------------
 #p 6-31g* mp2
 -------------

 ------------------------------------------------------
 Input file generated by CHIRIPA (05-May-2021 14:53:14)
 ------------------------------------------------------
 Symbolic Z-matrix:
 Charge =  0 Multiplicity = 1

                         Standard orientation:
 ---------------------------------------------------------------------
 Center     Atomic      Atomic             Coordinates (Angstroms)
 Number     Number       Type             X           Y           Z
 ---------------------------------------------------------------------
      1          6           0       -3.258109   -0.150207    0.061396
      2          6           0       -3.798718   -1.383130   -0.663605
      3          6           0       -4.383076   -2.422709    0.293263
      4          1           0       -2.488037   -0.463347    0.779643
      5          1           0       -4.067195    0.305013    0.649231
      6          1           0       -2.989198   -1.835092   -1.250993
      7          1           0       -4.567457   -1.066998   -1.380346
      8          1           0       -5.208623   -1.993929    0.870516
      9          1           0       -3.621397   -2.766387    1.000604
     10          1           0       -4.763714   -3.295667   -0.246105
     11          6           0       -2.670613    0.898125   -0.881778
     12          6           0       -2.130005    2.131048   -0.156776
     13          6           0       -1.545647    3.170627   -1.113645
     14          1           0       -1.861527    0.442905   -1.469613
     15          1           0       -3.440685    1.211265   -1.600024
     16          1           0       -1.361266    1.814916    0.559964
     17          1           0       -2.939524    2.583010    0.430611
     18          1           0       -2.307325    3.514305   -1.820986
     19          1           0       -0.720100    2.741847   -1.690898
     20          1           0       -1.165008    4.043585   -0.574277
     21          6           0        4.014634   -0.853009   -1.458778
     22          6           0        4.163745    0.305235   -0.688871
     23          6           0        3.228654    0.625932    0.299716
     24          6           0        2.151681   -0.237934    0.492472
     25          6           0        1.975550   -1.399223   -0.258312
     26          6           0        2.922938   -1.700049   -1.241423
     27          1           0        4.745812   -1.094416   -2.224610
     28          1           0        5.010581    0.964902   -0.855470
     29          1           0        3.319766    1.516164    0.910129
     30          1           0        1.120943   -2.037378   -0.069044
     31          1           0        2.804586   -2.600232   -1.837836
     32          7           0        1.155233    0.091055    1.536147
     33          8           0        0.215231   -0.686418    1.686383
     34          8           0        1.333086    1.120159    2.184182
 ---------------------------------------------------------------------

 SCF Done:  E(RHF) =  -669.536532873     A.U. after   15 cycles
 E2 =    -0.2092388220D+01 EUMP2 =    -0.67162892109330D+03

 The electronic state is 1-A.
 Alpha  occ. eigenvalues --  -20.61098 -20.61085 -15.86105 -11.31374 -11.27932
 Alpha  occ. eigenvalues --  -11.27923 -11.27655 -11.26921 -11.26911 -11.20898
 Alpha  occ. eigenvalues --  -11.20677 -11.20580 -11.20453 -11.20407 -11.20250
 Alpha  occ. eigenvalues --   -1.60145  -1.39701  -1.19535  -1.08950  -1.07566
 Alpha  occ. eigenvalues --   -1.04922  -1.02769  -0.95801  -0.95223  -0.86325
 Alpha  occ. eigenvalues --   -0.86248  -0.82638  -0.78817  -0.77702  -0.77349
 Alpha  occ. eigenvalues --   -0.72328  -0.71466  -0.70643  -0.65194  -0.64923
 Alpha  occ. eigenvalues --   -0.64181  -0.62269  -0.60178  -0.58591  -0.56826
 Alpha  occ. eigenvalues --   -0.55428  -0.54521  -0.53257  -0.53012  -0.51958
 Alpha  occ. eigenvalues --   -0.51652  -0.49176  -0.49102  -0.49089  -0.47141
 Alpha  occ. eigenvalues --   -0.45860  -0.45252  -0.44932  -0.44552  -0.42982
 Alpha  occ. eigenvalues --   -0.37508  -0.36519
 Alpha virt. eigenvalues --    0.04768   0.11128   0.16238   0.21182   0.23543
 Alpha virt. eigenvalues --    0.24924   0.26973   0.27383   0.28214   0.28462
 Alpha virt. eigenvalues --    0.28942   0.31039   0.31850   0.32409   0.32538

 Mulliken charges:
               1
     1  C   -0.310759
     2  C   -0.297091
     3  C   -0.475966
     4  H    0.177403
     5  H    0.146810
     6  H    0.144960
     7  H    0.148045
     8  H    0.154974
     9  H    0.159145
    10  H    0.155401
    11  C   -0.295355
    12  C   -0.305633
    13  C   -0.474799
    14  H    0.141797
    15  H    0.144967
    16  H    0.166220
    17  H    0.151751
    18  H    0.152160
    19  H    0.149135
    20  H    0.160461
    21  C   -0.170308
    22  C   -0.218582
    23  C   -0.170356
    24  C    0.158025
    25  C   -0.170834
    26  C   -0.218545
    27  H    0.226432
    28  H    0.224255
    29  H    0.276232
    30  H    0.275667
    31  H    0.224265
    32  N    0.489666
    33  O   -0.461493
    34  O   -0.458049
 Sum of Mulliken charges =  -0.00000

 Dipole moment (field-independent basis, Debye):
    X=              3.7729    Y=             -1.1810    Z=             -3.4352  Tot=              5.2373
 Quadrupole moment (field-independent basis, Debye-Ang):
   XX=            -78.6281   YY=            -91.9241   ZZ=            -99.3114
   XY=             -1.8318   XZ=             -6.0399   YZ=              2.1065

 Normal termination of Gaussian 16 at Wed May  5 20:14:19 2021.
