 Gaussian 16, Revision A.03,
 Gaussian 16:  EM64L-G16RevA.03 25-Dec-2016

 -------------
 #p 6-31g* mp2
 -------------

 ------------------------------------------------------
 Input file generated by CHIRIPA (05-May-2021 14:51:07)
 ------------------------------------------------------
 Symbolic Z-matrix:
 Charge =  0 Multiplicity = 1

                         Standard orientation:
 ---------------------------------------------------------------------
 Center     Atomic      Atomic             Coordinates (Angstroms)
 Number     Number       Type             X           Y           Z
 ---------------------------------------------------------------------
      1          6           0        2.344030    0.969492    0.112768
      2          6           0        3.056235    2.306557    0.320140
      3          6           0        2.163331    3.355235    0.984061
      4          1           0        1.446807    1.130449   -0.500444
      5          1           0        1.995171    0.593242    1.084431
      6          1           0        3.404859    2.679499   -0.651452
      7          1           0        3.951971    2.142368    0.932770
      8          1           0        1.826010    3.008016    1.966025
      9          1           0        1.275789    3.548200    0.372802
     10          1           0        2.692397    4.303238    1.122768
     11          6           0        3.223738   -0.089108   -0.549959
     12          6           0        2.511533   -1.426174   -0.757331
     13          6           0        3.404437   -2.474852   -1.421252
     14          1           0        3.572597    0.287141   -1.521622
     15          1           0        4.120961   -0.250066    0.063253
     16          1           0        1.615797   -1.261985   -1.369961
     17          1           0        2.162909   -1.799116    0.214261
     18          1           0        4.291978   -2.667816   -0.809994
     19          1           0        3.741758   -2.127633   -2.403216
     20          1           0        2.875371   -3.422855   -1.559959
     21          6           0       -3.500239   -0.227883    0.059876
     22          6           0       -3.582510    0.947595   -0.914532
     23          6           0       -5.022105    1.360717   -1.222253
     24          1           0       -4.046810   -1.083215   -0.360375
     25          1           0       -4.012699    0.042307    0.993567
     26          1           0       -3.068849    0.675774   -1.845597
     27          1           0       -3.035518    1.800167   -0.491999
     28          1           0       -5.541862    1.658017   -0.305701
     29          1           0       -5.575383    0.527234   -1.666990
     30          1           0       -5.057606    2.202599   -1.920704
     31          6           0       -2.067529   -0.652500    0.377315
     32          6           0       -1.985257   -1.827978    1.351723
     33          6           0       -0.545663   -2.241100    1.659443
     34          1           0       -1.555069   -0.922690   -0.556375
     35          1           0       -1.520958    0.202832    0.797567
     36          1           0       -2.532250   -2.680550    0.929190
     37          1           0       -2.498918   -1.556157    2.282787
     38          1           0        0.007615   -1.407618    2.104182
     39          1           0       -0.025905   -2.538401    0.742892
     40          1           0       -0.510163   -3.082982    2.357896
 ---------------------------------------------------------------------

 SCF Done:  E(RHF) =  -470.732865677     A.U. after   11 cycles
 E2 =    -0.1583669505D+01 EUMP2 =    -0.47231653518250D+03

 The electronic state is 1-A.
 Alpha  occ. eigenvalues --  -11.21602 -11.21589 -11.21575 -11.21505 -11.21383
 Alpha  occ. eigenvalues --  -11.21369 -11.21321 -11.21310 -11.21079 -11.21071
 Alpha  occ. eigenvalues --  -11.21040 -11.21001  -1.08429  -1.08380  -1.03540
 Alpha  occ. eigenvalues --   -1.03478  -0.95975  -0.95946  -0.87017  -0.86942
 Alpha  occ. eigenvalues --   -0.79698  -0.79478  -0.78350  -0.78068  -0.65048
 Alpha  occ. eigenvalues --   -0.65027  -0.60958  -0.60871  -0.59387  -0.59280
 Alpha  occ. eigenvalues --   -0.57642  -0.57505  -0.55304  -0.55188  -0.52672
 Alpha  occ. eigenvalues --   -0.52659  -0.52468  -0.52315  -0.49986  -0.49831
 Alpha  occ. eigenvalues --   -0.48160  -0.47716  -0.46656  -0.46503  -0.46061
 Alpha  occ. eigenvalues --   -0.45709  -0.45624  -0.45317  -0.43768  -0.43751
 Alpha virt. eigenvalues --    0.21323   0.23178   0.23534   0.24099   0.25005
 Alpha virt. eigenvalues --    0.26098   0.26772   0.27544   0.28539   0.29865
 Alpha virt. eigenvalues --    0.30561   0.30954   0.31713   0.31753   0.32220

 Mulliken charges:
               1
     1  C   -0.300598
     2  C   -0.299611
     3  C   -0.475693
     4  H    0.151183
     5  H    0.150568
     6  H    0.152007
     7  H    0.151872
     8  H    0.154624
     9  H    0.155120
    10  H    0.160324
    11  C   -0.297979
    12  C   -0.306033
    13  C   -0.475696
    14  H    0.149104
    15  H    0.149376
    16  H    0.151182
    17  H    0.160504
    18  H    0.155187
    19  H    0.154893
    20  H    0.159565
    21  C   -0.298287
    22  C   -0.299614
    23  C   -0.475663
    24  H    0.149524
    25  H    0.149572
    26  H    0.151483
    27  H    0.151931
    28  H    0.155281
    29  H    0.155174
    30  H    0.160153
    31  C   -0.299653
    32  C   -0.299836
    33  C   -0.481087
    34  H    0.149795
    35  H    0.151324
    36  H    0.151655
    37  H    0.151572
    38  H    0.155533
    39  H    0.161933
    40  H    0.159310
 Sum of Mulliken charges =  -0.00000

 Dipole moment (field-independent basis, Debye):
    X=              0.0032    Y=             -0.0094    Z=              0.0089  Tot=              0.0134
 Quadrupole moment (field-independent basis, Debye-Ang):
   XX=            -86.0246   YY=            -85.2132   ZZ=            -83.7157
   XY=              0.7491   XZ=              0.3070   YZ=             -0.0580

 Normal termination of Gaussian 16 at Thu May  6 00:29:34 2021.
