 Gaussian 16, Revision A.03,
 Gaussian 16:  EM64L-G16RevA.03 25-Dec-2016

 -------------
 #p 6-31g* mp2
 -------------

 ------------------------------------------------------
 Input file generated by CHIRIPA (05-May-2021 14:57:21)
 ------------------------------------------------------
 Symbolic Z-matrix:
 Charge =  0 Multiplicity = 1

                         Standard orientation:
 ---------------------------------------------------------------------
 Center     Atomic      Atomic             Coordinates (Angstroms)
 Number     Number       Type             X           Y           Z
 ---------------------------------------------------------------------
      1          6           0       -3.485696   -2.236775   -0.413858
      2          6           0       -4.640401   -1.503077   -0.122543
      3          6           0       -4.567888   -0.125483    0.104445
      4          6           0       -3.318699    0.488972    0.031908
      5          6           0       -2.150262   -0.214626   -0.256182
      6          6           0       -2.246496   -1.591345   -0.479632
      7          1           0       -3.551239   -3.306583   -0.588814
      8          1           0       -5.604125   -2.001680   -0.070815
      9          1           0       -5.445961    0.466702    0.331872
     10          1           0       -1.203748    0.310283   -0.300921
     11          1           0       -1.348074   -2.158610   -0.705672
     12          7           0       -3.229376    1.946906    0.270338
     13          8           0       -2.116872    2.464707    0.200669
     14          8           0       -4.273560    2.544228    0.522373
     15          6           0        1.778357   -2.195886    0.402502
     16          6           0        1.744796   -1.509242   -0.815659
     17          6           0        2.601825   -0.428877   -1.045570
     18          6           0        3.483758   -0.060438   -0.030811
     19          6           0        3.541033   -0.724609    1.193480
     20          6           0        2.674788   -1.802072    1.401423
     21          1           0        1.109015   -3.034012    0.572569
     22          1           0        1.049652   -1.812871   -1.593238
     23          1           0        2.596877    0.120302   -1.979270
     24          1           0        4.244907   -0.398617    1.949596
     25          1           0        2.703056   -2.333483    2.348443
     26          7           0        4.395935    1.081759   -0.262578
     27          8           0        5.163700    1.386667    0.647479
     28          8           0        4.325862    1.650479   -1.349908
 ---------------------------------------------------------------------

 SCF Done:  E(RHF) =  -868.336372452     A.U. after   16 cycles
 E2 =    -0.2600878557D+01 EUMP2 =    -0.87093725100904D+03

 The electronic state is 1-A.
 Alpha  occ. eigenvalues --  -20.61066 -20.61058 -20.61004 -20.60998 -15.86126
 Alpha  occ. eigenvalues --  -15.86068 -11.31668 -11.31644 -11.28330 -11.28260
 Alpha  occ. eigenvalues --  -11.28256 -11.28239 -11.28184 -11.28079 -11.27486
 Alpha  occ. eigenvalues --  -11.27409 -11.27312 -11.27269  -1.60139  -1.60072
 Alpha  occ. eigenvalues --   -1.39687  -1.39619  -1.19903  -1.19855  -1.09276
 Alpha  occ. eigenvalues --   -1.09226  -1.05367  -1.05270  -0.96050  -0.96028
 Alpha  occ. eigenvalues --   -0.86787  -0.86657  -0.82885  -0.82858  -0.77946
 Alpha  occ. eigenvalues --   -0.77800  -0.72339  -0.72287  -0.71468  -0.71394
 Alpha  occ. eigenvalues --   -0.71046  -0.70965  -0.65671  -0.65529  -0.65492
 Alpha  occ. eigenvalues --   -0.65133  -0.62816  -0.62478  -0.55896  -0.55809
 Alpha  occ. eigenvalues --   -0.53659  -0.53598  -0.53528  -0.53302  -0.49116
 Alpha  occ. eigenvalues --   -0.49084  -0.49062  -0.49021  -0.45058  -0.44973
 Alpha  occ. eigenvalues --   -0.37929  -0.37852  -0.36939  -0.36892
 Alpha virt. eigenvalues --    0.04596   0.04753   0.10553   0.10725   0.15938
 Alpha virt. eigenvalues --    0.16220   0.18587   0.22033   0.25069   0.26973
 Alpha virt. eigenvalues --    0.27941   0.28623   0.30117   0.30941   0.31793

 Mulliken charges:
               1
     1  C   -0.170991
     2  C   -0.218637
     3  C   -0.169542
     4  C    0.159074
     5  C   -0.172019
     6  C   -0.221676
     7  H    0.224894
     8  H    0.224967
     9  H    0.277583
    10  H    0.278489
    11  H    0.213003
    12  N    0.487884
    13  O   -0.457680
    14  O   -0.459221
    15  C   -0.170934
    16  C   -0.227495
    17  C   -0.169183
    18  C    0.160262
    19  C   -0.168137
    20  C   -0.217689
    21  H    0.221391
    22  H    0.218747
    23  H    0.279401
    24  H    0.278898
    25  H    0.225904
    26  N    0.488366
    27  O   -0.458132
    28  O   -0.457530
 Sum of Mulliken charges =  -0.00000

 Dipole moment (field-independent basis, Debye):
    X=             -3.3617    Y=             -8.9174    Z=              0.0946  Tot=              9.5305
 Quadrupole moment (field-independent basis, Debye-Ang):
   XX=           -118.5210   YY=           -110.8855   ZZ=           -101.4713
   XY=              2.6762   XZ=              7.0413   YZ=             -1.3459

 Normal termination of Gaussian 16 at Wed May  5 16:14:05 2021.
