 Gaussian 16, Revision A.03,
 Gaussian 16:  EM64L-G16RevA.03 25-Dec-2016

 -------------
 #p 6-31g* mp2
 -------------

 ------------------------------------------------------
 Input file generated by CHIRIPA (05-May-2021 14:57:27)
 ------------------------------------------------------
 Symbolic Z-matrix:
 Charge =  0 Multiplicity = 1

                         Standard orientation:
 ---------------------------------------------------------------------
 Center     Atomic      Atomic             Coordinates (Angstroms)
 Number     Number       Type             X           Y           Z
 ---------------------------------------------------------------------
      1          6           0       -2.951888   -2.189635    0.050337
      2          6           0       -3.291368   -1.171682    0.947580
      3          6           0       -2.933447    0.154154    0.685666
      4          6           0       -2.233247    0.427555   -0.488328
      5          6           0       -1.880551   -0.564603   -1.401848
      6          6           0       -2.248803   -1.883387   -1.119451
      7          1           0       -3.233942   -3.216838    0.261754
      8          1           0       -3.837365   -1.406584    1.856839
      9          1           0       -3.183498    0.961680    1.363010
     10          1           0       -1.335979   -0.299526   -2.299953
     11          1           0       -1.983820   -2.671903   -1.818072
     12          7           0       -1.848864    1.827425   -0.776447
     13          8           0       -1.232235    2.042190   -1.817736
     14          8           0       -2.171491    2.683371    0.044470
     15          6           0        0.411261   -0.052477    2.111348
     16          6           0        1.426917    0.909255    2.117251
     17          6           0        2.476435    0.839194    1.196300
     18          6           0        2.478865   -0.210796    0.279345
     19          6           0        1.481494   -1.184228    0.248265
     20          6           0        0.441737   -1.094314    1.178518
     21          1           0       -0.400238    0.009659    2.830378
     22          1           0        1.405833    1.719467    2.840548
     23          1           0        3.275561    1.570291    1.178637
     24          1           0        1.529734   -1.980210   -0.484881
     25          1           0       -0.345689   -1.842616    1.171603
     26          7           0        3.584776   -0.295477   -0.700549
     27          8           0        3.563933   -1.230376   -1.498148
     28          8           0        4.451491    0.574655   -0.652436
 ---------------------------------------------------------------------

 SCF Done:  E(RHF) =  -868.335281205     A.U. after   16 cycles
 E2 =    -0.2606788917D+01 EUMP2 =    -0.87094207012214D+03

 The electronic state is 1-A.
 Alpha  occ. eigenvalues --  -20.61369 -20.61336 -20.60605 -20.60580 -15.86412
 Alpha  occ. eigenvalues --  -15.85644 -11.31988 -11.31003 -11.28683 -11.28558
 Alpha  occ. eigenvalues --  -11.28440 -11.27774 -11.27658 -11.27547 -11.27478
 Alpha  occ. eigenvalues --  -11.27252 -11.26546 -11.26471  -1.60419  -1.59666
 Alpha  occ. eigenvalues --   -1.39970  -1.39222  -1.20280  -1.19145  -1.09609
 Alpha  occ. eigenvalues --   -1.08559  -1.05704  -1.04545  -0.96387  -0.95401
 Alpha  occ. eigenvalues --   -0.87063  -0.85954  -0.83210  -0.82232  -0.78205
 Alpha  occ. eigenvalues --   -0.77287  -0.72636  -0.71870  -0.71742  -0.71348
 Alpha  occ. eigenvalues --   -0.70980  -0.70291  -0.65893  -0.65671  -0.64801
 Alpha  occ. eigenvalues --   -0.64613  -0.63008  -0.61963  -0.56173  -0.55103
 Alpha  occ. eigenvalues --   -0.54470  -0.53753  -0.52782  -0.52182  -0.49412
 Alpha  occ. eigenvalues --   -0.49373  -0.48631  -0.48611  -0.45332  -0.44632
 Alpha  occ. eigenvalues --   -0.38474  -0.37644  -0.36804  -0.35869
 Alpha virt. eigenvalues --    0.04262   0.05208   0.10262   0.11526   0.15675
 Alpha virt. eigenvalues --    0.16797   0.20344   0.21920   0.25997   0.27359
 Alpha virt. eigenvalues --    0.27847   0.28644   0.30215   0.31361   0.32028

 Mulliken charges:
               1
     1  C   -0.181387
     2  C   -0.223794
     3  C   -0.175277
     4  C    0.169157
     5  C   -0.166509
     6  C   -0.223829
     7  H    0.228871
     8  H    0.225079
     9  H    0.275396
    10  H    0.281984
    11  H    0.228527
    12  N    0.488524
    13  O   -0.454779
    14  O   -0.462088
    15  C   -0.176123
    16  C   -0.215197
    17  C   -0.169854
    18  C    0.161201
    19  C   -0.177068
    20  C   -0.216124
    21  H    0.219789
    22  H    0.225656
    23  H    0.276878
    24  H    0.269029
    25  H    0.225382
    26  N    0.488671
    27  O   -0.463946
    28  O   -0.458164
 Sum of Mulliken charges =  -0.00000

 Dipole moment (field-independent basis, Debye):
    X=             -5.3366    Y=             -4.4099    Z=              4.2625  Tot=              8.1299
 Quadrupole moment (field-independent basis, Debye-Ang):
   XX=           -117.5404   YY=           -106.2165   ZZ=           -100.2259
   XY=             13.6085   XZ=              5.0220   YZ=              5.6579

 Normal termination of Gaussian 16 at Wed May  5 16:33:54 2021.
