 Gaussian 16, Revision A.03,
 Gaussian 16:  EM64L-G16RevA.03 25-Dec-2016

 -------------
 #p 6-31g* mp2
 -------------

 ------------------------------------------------------
 Input file generated by CHIRIPA (05-May-2021 14:53:17)
 ------------------------------------------------------
 Symbolic Z-matrix:
 Charge =  0 Multiplicity = 1

                         Standard orientation:
 ---------------------------------------------------------------------
 Center     Atomic      Atomic             Coordinates (Angstroms)
 Number     Number       Type             X           Y           Z
 ---------------------------------------------------------------------
      1          6           0        3.339955   -0.583451   -0.028186
      2          6           0        4.030887   -1.194936    1.191111
      3          6           0        4.128305   -2.718814    1.113002
      4          1           0        2.333060   -1.012206   -0.124504
      5          1           0        3.890027   -0.870628   -0.935019
      6          1           0        3.480471   -0.905548    2.095496
      7          1           0        5.036184   -0.764534    1.284649
      8          1           0        4.695762   -3.023691    0.227766
      9          1           0        3.131210   -3.165506    1.043221
     10          1           0        4.625568   -3.135027    1.994680
     11          6           0        3.234988    0.939272    0.035237
     12          6           0        2.544056    1.550757   -1.184060
     13          6           0        2.446639    3.074634   -1.105952
     14          1           0        2.684917    1.226449    0.942070
     15          1           0        4.241883    1.368026    0.131555
     16          1           0        1.538760    1.120355   -1.277598
     17          1           0        3.094472    1.261369   -2.088445
     18          1           0        3.443733    3.521326   -1.036170
     19          1           0        1.879181    3.379511   -0.220715
     20          1           0        1.949376    3.490848   -1.987630
     21          6           0       -2.721541    1.992807    1.338098
     22          6           0       -1.654513    1.796273    0.455292
     23          6           0       -1.559473    0.618989   -0.292717
     24          6           0       -2.553527   -0.345087   -0.132383
     25          6           0       -3.628824   -0.178660    0.739011
     26          6           0       -3.703560    1.006452    1.476895
     27          1           0       -2.787484    2.910389    1.915235
     28          1           0       -0.890417    2.560564    0.345460
     29          1           0       -0.744173    0.440911   -0.983363
     30          1           0       -4.375266   -0.958722    0.827010
     31          1           0       -4.533355    1.156365    2.161738
     32          7           0       -2.463659   -1.595568   -0.918906
     33          8           0       -3.352293   -2.429572   -0.759513
     34          8           0       -1.506290   -1.718015   -1.679884
 ---------------------------------------------------------------------

 SCF Done:  E(RHF) =  -669.535496563     A.U. after   15 cycles
 E2 =    -0.2091885282D+01 EUMP2 =    -0.67162738184498D+03

 The electronic state is 1-A.
 Alpha  occ. eigenvalues --  -20.60791 -20.60786 -15.85841 -11.31199 -11.27769
 Alpha  occ. eigenvalues --  -11.27755 -11.27511 -11.26787 -11.26768 -11.22209
 Alpha  occ. eigenvalues --  -11.21809 -11.21749 -11.21628 -11.21443 -11.20948
 Alpha  occ. eigenvalues --   -1.59865  -1.39418  -1.19373  -1.08769  -1.08712
 Alpha  occ. eigenvalues --   -1.04777  -1.03829  -0.96264  -0.95606  -0.87282
 Alpha  occ. eigenvalues --   -0.86174  -0.82437  -0.79919  -0.78460  -0.77485
 Alpha  occ. eigenvalues --   -0.72059  -0.71188  -0.70494  -0.65383  -0.65018
 Alpha  occ. eigenvalues --   -0.64780  -0.62194  -0.61166  -0.59660  -0.57853
 Alpha  occ. eigenvalues --   -0.55570  -0.55268  -0.53105  -0.52982  -0.52884
 Alpha  occ. eigenvalues --   -0.52670  -0.50207  -0.48818  -0.48816  -0.48208
 Alpha  occ. eigenvalues --   -0.46963  -0.46002  -0.45901  -0.44824  -0.44055
 Alpha  occ. eigenvalues --   -0.37355  -0.36376
 Alpha virt. eigenvalues --    0.05036   0.11257   0.16515   0.18717   0.23086
 Alpha virt. eigenvalues --    0.23736   0.24638   0.26031   0.27430   0.28450
 Alpha virt. eigenvalues --    0.29321   0.30310   0.31381   0.31578   0.32567

 Mulliken charges:
               1
     1  C   -0.300368
     2  C   -0.299873
     3  C   -0.476408
     4  H    0.155252
     5  H    0.152121
     6  H    0.150627
     7  H    0.151032
     8  H    0.156288
     9  H    0.159404
    10  H    0.159692
    11  C   -0.298132
    12  C   -0.304838
    13  C   -0.477797
    14  H    0.146308
    15  H    0.151275
    16  H    0.147317
    17  H    0.159037
    18  H    0.160377
    19  H    0.147272
    20  H    0.161994
    21  C   -0.171089
    22  C   -0.224058
    23  C   -0.181905
    24  C    0.160598
    25  C   -0.170412
    26  C   -0.218703
    27  H    0.225884
    28  H    0.227413
    29  H    0.285793
    30  H    0.275636
    31  H    0.223537
    32  N    0.487397
    33  O   -0.460236
    34  O   -0.460438
 Sum of Mulliken charges =  -0.00000

 Dipole moment (field-independent basis, Debye):
    X=             -0.1961    Y=              4.3259    Z=              2.7299  Tot=              5.1190
 Quadrupole moment (field-independent basis, Debye-Ang):
   XX=            -88.4182   YY=            -99.0404   ZZ=            -95.0069
   XY=             -9.4873   XZ=             -9.9784   YZ=             -2.2641

 Normal termination of Gaussian 16 at Thu May  6 20:32:52 2021.
