 Gaussian 16, Revision A.03,
 Gaussian 16:  EM64L-G16RevA.03 25-Dec-2016

 -------------
 #p 6-31g* mp2
 -------------

 ------------------------------------------------------
 Input file generated by CHIRIPA (05-May-2021 14:57:23)
 ------------------------------------------------------
 Symbolic Z-matrix:
 Charge =  0 Multiplicity = 1

                         Standard orientation:
 ---------------------------------------------------------------------
 Center     Atomic      Atomic             Coordinates (Angstroms)
 Number     Number       Type             X           Y           Z
 ---------------------------------------------------------------------
      1          6           0       -1.654689   -2.202033    0.685290
      2          6           0       -1.539039   -1.732907   -0.627366
      3          6           0       -2.275847   -0.623371   -1.052330
      4          6           0       -3.122571   -0.004275   -0.134143
      5          6           0       -3.259492   -0.447918    1.180286
      6          6           0       -2.513033   -1.559175    1.583343
      7          1           0       -1.078571   -3.064615    1.006903
      8          1           0       -0.873221   -2.230179   -1.326974
      9          1           0       -2.205458   -0.239225   -2.062723
     10          1           0       -3.931463    0.068643    1.854851
     11          1           0       -2.604855   -1.921308    2.603379
     12          7           0       -3.907705    1.171251   -0.572438
     13          8           0       -4.646706    1.699069    0.255768
     14          8           0       -3.769226    1.542553   -1.735879
     15          6           0        3.113963    2.653667    0.628575
     16          6           0        2.045440    1.879785    1.093213
     17          6           0        1.968255    0.518228    0.785392
     18          6           0        2.981494   -0.039387    0.007124
     19          6           0        4.058789    0.705240   -0.470638
     20          6           0        4.115461    2.064962   -0.150494
     21          1           0        3.165955    3.710644    0.872484
     22          1           0        1.266237    2.334306    1.698439
     23          1           0        1.152246   -0.104188    1.132012
     24          1           0        4.820508    0.223962   -1.071948
     25          1           0        4.946464    2.663526   -0.512710
     26          7           0        2.910640   -1.479835   -0.325276
     27          8           0        3.815992   -1.947295   -1.012629
     28          8           0        1.951094   -2.114122    0.107837
 ---------------------------------------------------------------------

 SCF Done:  E(RHF) =  -868.340648288     A.U. after   16 cycles
 E2 =    -0.2599715009D+01 EUMP2 =    -0.87094036329742D+03

 The electronic state is 1-A.
 Alpha  occ. eigenvalues --  -20.61565 -20.61497 -20.60699 -20.60688 -15.86565
 Alpha  occ. eigenvalues --  -15.85743 -11.31598 -11.30962 -11.28137 -11.28105
 Alpha  occ. eigenvalues --  -11.27807 -11.27542 -11.27438 -11.27075 -11.27047
 Alpha  occ. eigenvalues --  -11.27043 -11.26495 -11.26281  -1.60600  -1.59779
 Alpha  occ. eigenvalues --   -1.40165  -1.39335  -1.19743  -1.19103  -1.09198
 Alpha  occ. eigenvalues --   -1.08480  -1.05093  -1.04467  -0.96090  -0.95343
 Alpha  occ. eigenvalues --   -0.86506  -0.85832  -0.82938  -0.82180  -0.78021
 Alpha  occ. eigenvalues --   -0.77282  -0.72820  -0.71961  -0.71903  -0.71109
 Alpha  occ. eigenvalues --   -0.70841  -0.70078  -0.65402  -0.65089  -0.64710
 Alpha  occ. eigenvalues --   -0.64388  -0.62444  -0.61795  -0.55602  -0.54823
 Alpha  occ. eigenvalues --   -0.53447  -0.53222  -0.52785  -0.52503  -0.49562
 Alpha  occ. eigenvalues --   -0.49516  -0.48726  -0.48700  -0.45639  -0.44773
 Alpha  occ. eigenvalues --   -0.37705  -0.37013  -0.36692  -0.36084
 Alpha virt. eigenvalues --    0.04465   0.05219   0.10958   0.11590   0.16036
 Alpha virt. eigenvalues --    0.16761   0.21129   0.21980   0.27038   0.27743
 Alpha virt. eigenvalues --    0.27958   0.28884   0.30723   0.31591   0.32089

 Mulliken charges:
               1
     1  C   -0.171291
     2  C   -0.217105
     3  C   -0.175873
     4  C    0.156200
     5  C   -0.174910
     6  C   -0.224285
     7  H    0.238469
     8  H    0.235992
     9  H    0.274527
    10  H    0.273009
    11  H    0.222359
    12  N    0.487909
    13  O   -0.462792
    14  O   -0.461144
    15  C   -0.169258
    16  C   -0.218971
    17  C   -0.171762
    18  C    0.155985
    19  C   -0.170630
    20  C   -0.218734
    21  H    0.228410
    22  H    0.226729
    23  H    0.276238
    24  H    0.275625
    25  H    0.225056
    26  N    0.489814
    27  O   -0.456770
    28  O   -0.472797
 Sum of Mulliken charges =  -0.00000

 Dipole moment (field-independent basis, Debye):
    X=              3.2988    Y=              0.8528    Z=              2.6556  Tot=              4.3199
 Quadrupole moment (field-independent basis, Debye-Ang):
   XX=           -117.4801   YY=           -105.6401   ZZ=           -100.5171
   XY=             29.1398   XZ=             -6.2838   YZ=              0.8904

 Normal termination of Gaussian 16 at Thu May  6 00:16:01 2021.
