 Gaussian 16, Revision A.03,
 Gaussian 16:  EM64L-G16RevA.03 25-Dec-2016

 -------------
 #p 6-31g* mp2
 -------------

 ------------------------------------------------------
 Input file generated by CHIRIPA (05-May-2021 14:53:17)
 ------------------------------------------------------
 Symbolic Z-matrix:
 Charge =  0 Multiplicity = 1

                         Standard orientation:
 ---------------------------------------------------------------------
 Center     Atomic      Atomic             Coordinates (Angstroms)
 Number     Number       Type             X           Y           Z
 ---------------------------------------------------------------------
      1          6           0        3.782359    0.136185   -0.129818
      2          6           0        3.286450    1.547968   -0.444343
      3          6           0        1.771061    1.612969   -0.637127
      4          1           0        3.485494   -0.539630   -0.943508
      5          1           0        3.280446   -0.227594    0.777454
      6          1           0        3.790177    1.909509   -1.349972
      7          1           0        3.584696    2.220538    0.370098
      8          1           0        1.252946    1.277661    0.267155
      9          1           0        1.459594    0.964865   -1.462688
     10          1           0        1.438156    2.631254   -0.861026
     11          6           0        5.295289    0.055026    0.065593
     12          6           0        5.791199   -1.356757    0.380118
     13          6           0        7.306587   -1.421758    0.572902
     14          1           0        5.797202    0.418805   -0.841679
     15          1           0        5.592154    0.730841    0.879283
     16          1           0        5.492952   -2.029327   -0.434323
     17          1           0        5.287471   -1.718299    1.285747
     18          1           0        7.618054   -0.773654    1.398463
     19          1           0        7.824703   -1.086450   -0.331380
     20          1           0        7.639492   -2.440043    0.796801
     21          6           0       -2.454427    2.193069    0.203261
     22          6           0       -3.592165    1.902176    0.963166
     23          6           0       -4.205239    0.648996    0.872462
     24          6           0       -3.651482   -0.293930    0.007863
     25          6           0       -2.518881   -0.034253   -0.762251
     26          6           0       -1.922354    1.225631   -0.655507
     27          1           0       -1.984603    3.169174    0.279952
     28          1           0       -4.007566    2.651563    1.630928
     29          1           0       -5.086881    0.397197    1.449282
     30          1           0       -2.127827   -0.801701   -1.419151
     31          1           0       -1.038860    1.448755   -1.246862
     32          7           0       -4.291756   -1.624165   -0.096651
     33          8           0       -3.784445   -2.437643   -0.865759
     34          8           0       -5.288791   -1.828137    0.592517
 ---------------------------------------------------------------------

 SCF Done:  E(RHF) =  -669.535392502     A.U. after   15 cycles
 E2 =    -0.2091285644D+01 EUMP2 =    -0.67162667814579D+03

 The electronic state is 1-A.
 Alpha  occ. eigenvalues --  -20.60701 -20.60696 -15.85752 -11.31099 -11.27662
 Alpha  occ. eigenvalues --  -11.27636 -11.27384 -11.26684 -11.26580 -11.22352
 Alpha  occ. eigenvalues --  -11.22173 -11.21926 -11.21898 -11.21775 -11.21310
 Alpha  occ. eigenvalues --   -1.59777  -1.39331  -1.19261  -1.08951  -1.08659
 Alpha  occ. eigenvalues --   -1.04661  -1.04101  -0.96589  -0.95500  -0.87641
 Alpha  occ. eigenvalues --   -0.86042  -0.82332  -0.80194  -0.78718  -0.77374
 Alpha  occ. eigenvalues --   -0.71971  -0.71099  -0.70370  -0.65574  -0.64909
 Alpha  occ. eigenvalues --   -0.64662  -0.62020  -0.61493  -0.59979  -0.58161
 Alpha  occ. eigenvalues --   -0.55870  -0.55164  -0.53445  -0.53113  -0.52945
 Alpha  occ. eigenvalues --   -0.52529  -0.50519  -0.48736  -0.48728  -0.48465
 Alpha  occ. eigenvalues --   -0.47184  -0.46269  -0.46163  -0.44740  -0.44342
 Alpha  occ. eigenvalues --   -0.37238  -0.36247
 Alpha virt. eigenvalues --    0.05144   0.11334   0.16636   0.20769   0.22423
 Alpha virt. eigenvalues --    0.23852   0.25735   0.26306   0.26991   0.27956
 Alpha virt. eigenvalues --    0.28736   0.30165   0.31073   0.31291   0.32035

 Mulliken charges:
               1
     1  C   -0.299378
     2  C   -0.299785
     3  C   -0.483474
     4  H    0.150774
     5  H    0.151430
     6  H    0.154061
     7  H    0.153919
     8  H    0.161564
     9  H    0.151827
    10  H    0.154935
    11  C   -0.298859
    12  C   -0.300204
    13  C   -0.476039
    14  H    0.150102
    15  H    0.150099
    16  H    0.153046
    17  H    0.153052
    18  H    0.155329
    19  H    0.155425
    20  H    0.161782
    21  C   -0.173821
    22  C   -0.218442
    23  C   -0.171573
    24  C    0.158753
    25  C   -0.173633
    26  C   -0.221593
    27  H    0.225248
    28  H    0.222850
    29  H    0.275138
    30  H    0.275016
    31  H    0.235829
    32  N    0.488055
    33  O   -0.460660
    34  O   -0.460776
 Sum of Mulliken charges =  -0.00000

 Dipole moment (field-independent basis, Debye):
    X=              2.4710    Y=              4.6635    Z=              0.4006  Tot=              5.2928
 Quadrupole moment (field-independent basis, Debye-Ang):
   XX=           -109.9481   YY=            -97.8616   ZZ=            -92.0631
   XY=            -18.9193   XZ=             -4.2384   YZ=              1.3028

 Normal termination of Gaussian 16 at Wed May  5 20:23:24 2021.
