 Gaussian 16, Revision A.03,
 Gaussian 16:  EM64L-G16RevA.03 25-Dec-2016

 -------------
 #p 6-31g* mp2
 -------------

 ------------------------------------------------------
 Input file generated by CHIRIPA (05-May-2021 14:57:22)
 ------------------------------------------------------
 Symbolic Z-matrix:
 Charge =  0 Multiplicity = 1

                         Standard orientation:
 ---------------------------------------------------------------------
 Center     Atomic      Atomic             Coordinates (Angstroms)
 Number     Number       Type             X           Y           Z
 ---------------------------------------------------------------------
      1          6           0        4.235438    2.459226    0.418256
      2          6           0        3.009771    1.843199    0.144810
      3          6           0        2.945374    0.468538   -0.101583
      4          6           0        4.131503   -0.263004   -0.066460
      5          6           0        5.367890    0.321804    0.203050
      6          6           0        5.408517    1.697905    0.446453
      7          1           0        4.276230    3.527654    0.608499
      8          1           0        2.097136    2.431955    0.122262
      9          1           0        2.009938   -0.033918   -0.315862
     10          1           0        6.260731   -0.291392    0.218677
     11          1           0        6.361794    2.173641    0.658544
     12          7           0        4.075911   -1.719058   -0.325723
     13          8           0        5.135176   -2.341348   -0.288997
     14          8           0        2.974125   -2.210452   -0.560750
     15          6           0       -1.620530    0.144642    0.030828
     16          6           0       -2.353694    0.870085   -0.914014
     17          6           0       -3.750400    0.810224   -0.927289
     18          6           0       -4.384302    0.011272    0.023044
     19          6           0       -3.681766   -0.723188    0.977141
     20          6           0       -2.285733   -0.648281    0.971731
     21          1           0       -0.535796    0.196987    0.033882
     22          1           0       -1.839757    1.486706   -1.645923
     23          1           0       -4.342638    1.361528   -1.647522
     24          1           0       -4.222206   -1.329151    1.694184
     25          1           0       -1.718932   -1.212750    1.706683
     26          7           0       -5.862577   -0.060064    0.018881
     27          8           0       -6.397303   -0.771300    0.866731
     28          8           0       -6.458529    0.596609   -0.832152
 ---------------------------------------------------------------------

 SCF Done:  E(RHF) =  -868.336858238     A.U. after   16 cycles
 E2 =    -0.2599564954D+01 EUMP2 =    -0.87093642319224D+03

 The electronic state is 1-A.
 Alpha  occ. eigenvalues --  -20.61548 -20.61525 -20.60879 -20.60872 -15.86595
 Alpha  occ. eigenvalues --  -15.85933 -11.32046 -11.31364 -11.28739 -11.28544
 Alpha  occ. eigenvalues --  -11.28309 -11.27945 -11.27900 -11.27805 -11.27693
 Alpha  occ. eigenvalues --  -11.27559 -11.27037 -11.26948  -1.60611  -1.59951
 Alpha  occ. eigenvalues --   -1.40165  -1.39503  -1.20209  -1.19547  -1.09572
 Alpha  occ. eigenvalues --   -1.08952  -1.05640  -1.04951  -0.96406  -0.95776
 Alpha  occ. eigenvalues --   -0.87022  -0.86358  -0.83248  -0.82598  -0.78300
 Alpha  occ. eigenvalues --   -0.77612  -0.72811  -0.72152  -0.71935  -0.71347
 Alpha  occ. eigenvalues --   -0.71273  -0.70703  -0.65862  -0.65639  -0.65210
 Alpha  occ. eigenvalues --   -0.64962  -0.63010  -0.62291  -0.56116  -0.55527
 Alpha  occ. eigenvalues --   -0.53935  -0.53723  -0.53281  -0.53051  -0.49578
 Alpha  occ. eigenvalues --   -0.49559  -0.48916  -0.48901  -0.45553  -0.44893
 Alpha  occ. eigenvalues --   -0.38154  -0.37558  -0.37240  -0.36539
 Alpha virt. eigenvalues --    0.04259   0.04908   0.10419   0.11107   0.15751
 Alpha virt. eigenvalues --    0.16365   0.17775   0.21958   0.24548   0.26862
 Alpha virt. eigenvalues --    0.27349   0.29655   0.30029   0.30836   0.32456

 Mulliken charges:
               1
     1  C   -0.170293
     2  C   -0.219028
     3  C   -0.180184
     4  C    0.161815
     5  C   -0.169455
     6  C   -0.218010
     7  H    0.228505
     8  H    0.220204
     9  H    0.273127
    10  H    0.278276
    11  H    0.226797
    12  N    0.487572
    13  O   -0.456559
    14  O   -0.462378
    15  C   -0.171814
    16  C   -0.220019
    17  C   -0.170393
    18  C    0.159069
    19  C   -0.170346
    20  C   -0.219109
    21  H    0.221495
    22  H    0.221067
    23  H    0.276069
    24  H    0.277208
    25  H    0.227827
    26  N    0.487912
    27  O   -0.459197
    28  O   -0.460154
 Sum of Mulliken charges =  -0.00000

 Dipole moment (field-independent basis, Debye):
    X=              5.5677    Y=              5.3580    Z=              0.9968  Tot=              7.7911
 Quadrupole moment (field-independent basis, Debye-Ang):
   XX=           -142.5426   YY=           -106.3952   ZZ=           -102.9769
   XY=             20.2152   XZ=              4.7207   YZ=             -3.4680

 Normal termination of Gaussian 16 at Fri May  7 06:25:03 2021.
