 Gaussian 16, Revision A.03,
 Gaussian 16:  EM64L-G16RevA.03 25-Dec-2016

 -------------
 #p 6-31g* mp2
 -------------

 ------------------------------------------------------
 Input file generated by CHIRIPA (05-May-2021 14:55:24)
 ------------------------------------------------------
 Symbolic Z-matrix:
 Charge =  0 Multiplicity = 1

                         Standard orientation:
 ---------------------------------------------------------------------
 Center     Atomic      Atomic             Coordinates (Angstroms)
 Number     Number       Type             X           Y           Z
 ---------------------------------------------------------------------
      1          6           0       -1.533304    2.075865    1.098116
      2          6           0       -2.391049    2.152539   -0.004116
      3          6           0       -3.101657    1.026571   -0.430474
      4          6           0       -2.929884   -0.165338    0.271763
      5          6           0       -2.082787   -0.273500    1.373587
      6          6           0       -1.382177    0.865224    1.782243
      7          1           0       -0.985170    2.955499    1.422445
      8          1           0       -2.510378    3.091418   -0.537326
      9          1           0       -3.772308    1.057898   -1.280569
     10          1           0       -1.984496   -1.223339    1.885018
     11          1           0       -0.716733    0.802740    2.638588
     12          7           0       -3.676881   -1.364103   -0.170233
     13          8           0       -3.508105   -2.402426    0.465406
     14          8           0       -4.417007   -1.242673   -1.143940
     15          6           0        3.078578    0.491333   -0.629496
     16          6           0        1.815766   -0.084840   -1.270835
     17          6           0        0.796805    0.992953   -1.642149
     18          1           0        2.799638    1.059220    0.268637
     19          1           0        3.538744    1.209029   -1.322714
     20          1           0        1.358875   -0.802268   -0.577174
     21          1           0        2.097763   -0.651582   -2.167438
     22          1           0        1.229966    1.704089   -2.352964
     23          1           0        0.486879    1.552546   -0.753666
     24          1           0       -0.098076    0.559037   -2.099056
     25          6           0        4.106754   -0.573848   -0.252703
     26          6           0        5.369566    0.002325    0.388636
     27          6           0        6.388526   -1.075468    0.759951
     28          1           0        3.646587   -1.291544    0.440516
     29          1           0        4.385693   -1.141734   -1.150836
     30          1           0        5.087569    0.569067    1.285238
     31          1           0        5.826456    0.719753   -0.305025
     32          1           0        6.698452   -1.635061   -0.128532
     33          1           0        5.955366   -1.786603    1.470766
     34          1           0        7.283408   -0.641552    1.216857
 ---------------------------------------------------------------------

 SCF Done:  E(RHF) =  -669.534346697     A.U. after   15 cycles
 E2 =    -0.2093362856D+01 EUMP2 =    -0.67162770955348D+03

 The electronic state is 1-A.
 Alpha  occ. eigenvalues --  -20.60818 -20.60813 -15.85873 -11.31267 -11.27841
 Alpha  occ. eigenvalues --  -11.27810 -11.27542 -11.26858 -11.26808 -11.21872
 Alpha  occ. eigenvalues --  -11.21756 -11.21679 -11.21610 -11.21290 -11.21111
 Alpha  occ. eigenvalues --   -1.59894  -1.39446  -1.19436  -1.08841  -1.08666
 Alpha  occ. eigenvalues --   -1.04835  -1.03730  -0.96187  -0.95661  -0.87207
 Alpha  occ. eigenvalues --   -0.86236  -0.82488  -0.79804  -0.78494  -0.77528
 Alpha  occ. eigenvalues --   -0.72090  -0.71217  -0.70549  -0.65315  -0.65087
 Alpha  occ. eigenvalues --   -0.64836  -0.62180  -0.61165  -0.59556  -0.57799
 Alpha  occ. eigenvalues --   -0.55634  -0.55343  -0.53335  -0.52927  -0.52722
 Alpha  occ. eigenvalues --   -0.52519  -0.50060  -0.48851  -0.48844  -0.48122
 Alpha  occ. eigenvalues --   -0.46838  -0.46034  -0.45968  -0.44847  -0.44002
 Alpha  occ. eigenvalues --   -0.37307  -0.36410
 Alpha virt. eigenvalues --    0.04965   0.11169   0.16408   0.21185   0.22663
 Alpha virt. eigenvalues --    0.24133   0.26343   0.27180   0.27198   0.27818
 Alpha virt. eigenvalues --    0.28350   0.30840   0.31331   0.31708   0.31888

 Mulliken charges:
               1
     1  C   -0.176026
     2  C   -0.211668
     3  C   -0.171331
     4  C    0.159565
     5  C   -0.171185
     6  C   -0.216166
     7  H    0.226351
     8  H    0.224356
     9  H    0.275921
    10  H    0.275842
    11  H    0.223674
    12  N    0.487942
    13  O   -0.460223
    14  O   -0.460187
    15  C   -0.297269
    16  C   -0.299287
    17  C   -0.478482
    18  H    0.143332
    19  H    0.149607
    20  H    0.151837
    21  H    0.153702
    22  H    0.151136
    23  H    0.155783
    24  H    0.161630
    25  C   -0.298263
    26  C   -0.299387
    27  C   -0.475766
    28  H    0.149105
    29  H    0.151704
    30  H    0.149452
    31  H    0.152211
    32  H    0.156439
    33  H    0.155263
    34  H    0.160387
 Sum of Mulliken charges =  -0.00000

 Dipole moment (field-independent basis, Debye):
    X=              2.5473    Y=              4.2135    Z=              1.5648  Tot=              5.1663
 Quadrupole moment (field-independent basis, Debye-Ang):
   XX=           -110.4434   YY=            -95.6226   ZZ=            -90.8550
   XY=            -13.8429   XZ=             -2.7798   YZ=             -1.1392

 Normal termination of Gaussian 16 at Thu May  6 04:46:45 2021.
