 Gaussian 16, Revision A.03,
 Gaussian 16:  EM64L-G16RevA.03 25-Dec-2016

 -------------
 #p 6-31g* mp2
 -------------

 ------------------------------------------------------
 Input file generated by CHIRIPA (05-May-2021 14:51:09)
 ------------------------------------------------------
 Symbolic Z-matrix:
 Charge =  0 Multiplicity = 1

                         Standard orientation:
 ---------------------------------------------------------------------
 Center     Atomic      Atomic             Coordinates (Angstroms)
 Number     Number       Type             X           Y           Z
 ---------------------------------------------------------------------
      1          6           0        2.771829    1.110350   -0.372918
      2          6           0        2.217735    2.412085    0.207127
      3          6           0        2.453778    3.614454   -0.707414
      4          1           0        3.848639    1.227309   -0.556618
      5          1           0        2.306191    0.925372   -1.350854
      6          1           0        2.683255    2.593837    1.184304
      7          1           0        1.142156    2.291950    0.389647
      8          1           0        1.974790    3.458967   -1.679523
      9          1           0        3.524645    3.762570   -0.880351
     10          1           0        2.049781    4.534393   -0.273413
     11          6           0        2.543552   -0.100690    0.529856
     12          6           0        3.097646   -1.402424   -0.050190
     13          6           0        2.861603   -2.604793    0.864352
     14          1           0        3.009190    0.084289    1.507792
     15          1           0        1.466742   -0.217648    0.713556
     16          1           0        4.173225   -1.282289   -0.232709
     17          1           0        2.632126   -1.584176   -1.027366
     18          1           0        1.790736   -2.752909    1.037289
     19          1           0        3.340591   -2.449307    1.836461
     20          1           0        3.265600   -3.524733    0.430351
     21          6           0       -2.066501   -0.964566    0.071767
     22          6           0       -1.997964   -2.184347   -0.847702
     23          6           0       -0.809913   -3.094512   -0.534771
     24          1           0       -1.132076   -0.393639   -0.016764
     25          1           0       -2.127988   -1.303602    1.115160
     26          1           0       -1.938020   -1.843122   -1.889138
     27          1           0       -2.932738   -2.752331   -0.757116
     28          1           0       -0.867561   -3.463026    0.494537
     29          1           0        0.132809   -2.548650   -0.643917
     30          1           0       -0.780152   -3.960131   -1.203861
     31          6           0       -3.248880   -0.045095   -0.228705
     32          6           0       -3.317417    1.174685    0.690764
     33          6           0       -4.505468    2.084852    0.377833
     34          1           0       -3.187393    0.293941   -1.272098
     35          1           0       -4.183304   -0.616021   -0.140175
     36          1           0       -2.382643    1.742670    0.600178
     37          1           0       -3.377361    0.833462    1.732200
     38          1           0       -5.448189    1.538990    0.486979
     39          1           0       -4.447820    2.453364   -0.651476
     40          1           0       -4.535229    2.950470    1.046923
 ---------------------------------------------------------------------

 SCF Done:  E(RHF) =  -470.732674520     A.U. after   11 cycles
 E2 =    -0.1584290518D+01 EUMP2 =    -0.47231696503801D+03

 The electronic state is 1-A.
 Alpha  occ. eigenvalues --  -11.21664 -11.21654 -11.21633 -11.21586 -11.21480
 Alpha  occ. eigenvalues --  -11.21417 -11.21415 -11.21348 -11.21109 -11.21106
 Alpha  occ. eigenvalues --  -11.21096 -11.20927  -1.08509  -1.08429  -1.03616
 Alpha  occ. eigenvalues --   -1.03499  -0.96080  -0.95927  -0.87099  -0.86941
 Alpha  occ. eigenvalues --   -0.79693  -0.79553  -0.78367  -0.78199  -0.65288
 Alpha  occ. eigenvalues --   -0.64942  -0.61187  -0.60778  -0.59416  -0.59313
 Alpha  occ. eigenvalues --   -0.57724  -0.57520  -0.55498  -0.55109  -0.52731
 Alpha  occ. eigenvalues --   -0.52647  -0.52577  -0.52247  -0.50016  -0.49845
 Alpha  occ. eigenvalues --   -0.48130  -0.47748  -0.46702  -0.46598  -0.46179
 Alpha  occ. eigenvalues --   -0.45787  -0.45747  -0.45339  -0.43845  -0.43775
 Alpha virt. eigenvalues --    0.19596   0.22486   0.23680   0.24887   0.25155
 Alpha virt. eigenvalues --    0.26500   0.26795   0.27414   0.28763   0.30142
 Alpha virt. eigenvalues --    0.30636   0.31135   0.31471   0.31765   0.31933

 Mulliken charges:
               1
     1  C   -0.297897
     2  C   -0.300200
     3  C   -0.475694
     4  H    0.149973
     5  H    0.148744
     6  H    0.152378
     7  H    0.151486
     8  H    0.154968
     9  H    0.155404
    10  H    0.160381
    11  C   -0.304575
    12  C   -0.301623
    13  C   -0.480543
    14  H    0.150070
    15  H    0.154736
    16  H    0.152564
    17  H    0.151355
    18  H    0.162088
    19  H    0.154412
    20  H    0.159882
    21  C   -0.303280
    22  C   -0.299586
    23  C   -0.482627
    24  H    0.153023
    25  H    0.149828
    26  H    0.151778
    27  H    0.152321
    28  H    0.155454
    29  H    0.163246
    30  H    0.160895
    31  C   -0.298050
    32  C   -0.300037
    33  C   -0.475757
    34  H    0.149573
    35  H    0.150134
    36  H    0.151771
    37  H    0.152268
    38  H    0.155332
    39  H    0.155278
    40  H    0.160528
 Sum of Mulliken charges =  -0.00000

 Dipole moment (field-independent basis, Debye):
    X=             -0.0351    Y=             -0.0180    Z=              0.0073  Tot=              0.0401
 Quadrupole moment (field-independent basis, Debye-Ang):
   XX=            -84.3148   YY=            -85.9074   ZZ=            -84.4587
   XY=              1.0533   XZ=             -0.0106   YZ=              0.3583

 Normal termination of Gaussian 16 at Thu May  6 02:10:41 2021.
