 Gaussian 16, Revision A.03,
 Gaussian 16:  EM64L-G16RevA.03 25-Dec-2016

 -------------
 #p 6-31g* mp2
 -------------

 ------------------------------------------------------
 Input file generated by CHIRIPA (05-May-2021 14:57:27)
 ------------------------------------------------------
 Symbolic Z-matrix:
 Charge =  0 Multiplicity = 1

                         Standard orientation:
 ---------------------------------------------------------------------
 Center     Atomic      Atomic             Coordinates (Angstroms)
 Number     Number       Type             X           Y           Z
 ---------------------------------------------------------------------
      1          6           0        2.124723    0.922453    0.552248
      2          6           0        2.232639   -0.362850    0.011073
      3          6           0        3.486838   -0.907751   -0.279814
      4          6           0        4.617356   -0.136090   -0.015694
      5          6           0        4.542545    1.147437    0.523058
      6          6           0        3.277987    1.672173    0.806067
      7          1           0        1.146408    1.337913    0.775156
      8          1           0        1.338711   -0.947376   -0.187085
      9          1           0        3.599245   -1.900189   -0.699158
     10          1           0        5.451695    1.706052    0.709642
     11          1           0        3.197204    2.670628    1.226311
     12          7           0        5.950603   -0.702278   -0.319472
     13          8           0        6.931362   -0.002123   -0.077539
     14          8           0        5.989599   -1.835491   -0.793755
     15          6           0       -2.979891    2.104751   -0.357207
     16          6           0       -2.434196    0.967726    0.247699
     17          6           0       -3.210433   -0.180382    0.431684
     18          6           0       -4.534681   -0.156570   -0.003162
     19          6           0       -5.107100    0.960719   -0.609208
     20          6           0       -4.312253    2.097631   -0.782980
     21          1           0       -2.369663    2.992281   -0.496164
     22          1           0       -1.399763    0.970398    0.579344
     23          1           0       -2.813325   -1.074356    0.897015
     24          1           0       -6.141409    0.927937   -0.929441
     25          1           0       -4.738705    2.979221   -1.253069
     26          7           0       -5.366300   -1.366094    0.186208
     27          8           0       -6.530316   -1.319685   -0.205645
     28          8           0       -4.838360   -2.337625    0.722903
 ---------------------------------------------------------------------

 SCF Done:  E(RHF) =  -868.336228236     A.U. after   16 cycles
 E2 =    -0.2599644204D+01 EUMP2 =    -0.87093587244017D+03

 The electronic state is 1-A.
 Alpha  occ. eigenvalues --  -20.61373 -20.61364 -20.61190 -20.61184 -15.86433
 Alpha  occ. eigenvalues --  -15.86247 -11.31942 -11.31760 -11.28606 -11.28503
 Alpha  occ. eigenvalues --  -11.28352 -11.28332 -11.28327 -11.28266 -11.27745
 Alpha  occ. eigenvalues --  -11.27528 -11.27448 -11.27433  -1.60444  -1.60261
 Alpha  occ. eigenvalues --   -1.39993  -1.39810  -1.20149  -1.19960  -1.09521
 Alpha  occ. eigenvalues --   -1.09360  -1.05590  -1.05375  -0.96323  -0.96166
 Alpha  occ. eigenvalues --   -0.86990  -0.86785  -0.83167  -0.82981  -0.78186
 Alpha  occ. eigenvalues --   -0.77973  -0.72648  -0.72465  -0.71770  -0.71585
 Alpha  occ. eigenvalues --   -0.71265  -0.71169  -0.65811  -0.65686  -0.65605
 Alpha  occ. eigenvalues --   -0.65368  -0.62950  -0.62706  -0.56147  -0.55956
 Alpha  occ. eigenvalues --   -0.53890  -0.53706  -0.53685  -0.53480  -0.49419
 Alpha  occ. eigenvalues --   -0.49393  -0.49237  -0.49208  -0.45367  -0.45182
 Alpha  occ. eigenvalues --   -0.38134  -0.37994  -0.37190  -0.36962
 Alpha virt. eigenvalues --    0.04382   0.04550   0.10453   0.10681   0.15814
 Alpha virt. eigenvalues --    0.15993   0.17182   0.21983   0.24506   0.26378
 Alpha virt. eigenvalues --    0.27613   0.28775   0.29837   0.31165   0.31992

 Mulliken charges:
               1
     1  C   -0.173870
     2  C   -0.218926
     3  C   -0.169833
     4  C    0.159313
     5  C   -0.170037
     6  C   -0.218353
     7  H    0.218698
     8  H    0.222100
     9  H    0.278530
    10  H    0.277464
    11  H    0.224195
    12  N    0.487850
    13  O   -0.458969
    14  O   -0.458278
    15  C   -0.171101
    16  C   -0.221936
    17  C   -0.171841
    18  C    0.159494
    19  C   -0.169440
    20  C   -0.218220
    21  H    0.225107
    22  H    0.216888
    23  H    0.275919
    24  H    0.278378
    25  H    0.226320
    26  N    0.488009
    27  O   -0.457934
    28  O   -0.459525
 Sum of Mulliken charges =  -0.00000

 Dipole moment (field-independent basis, Debye):
    X=             -1.8062    Y=              6.2083    Z=              0.3183  Tot=              6.4736
 Quadrupole moment (field-independent basis, Debye-Ang):
   XX=           -169.2844   YY=           -102.5750   ZZ=           -104.9064
   XY=            -10.2134   XZ=             10.9555   YZ=              0.2896

 Normal termination of Gaussian 16 at Wed May  5 21:15:54 2021.
