 Gaussian 16, Revision A.03,
 Gaussian 16:  EM64L-G16RevA.03 25-Dec-2016

 -------------
 #p 6-31g* mp2
 -------------

 ------------------------------------------------------
 Input file generated by CHIRIPA (05-May-2021 14:57:21)
 ------------------------------------------------------
 Symbolic Z-matrix:
 Charge =  0 Multiplicity = 1

                         Standard orientation:
 ---------------------------------------------------------------------
 Center     Atomic      Atomic             Coordinates (Angstroms)
 Number     Number       Type             X           Y           Z
 ---------------------------------------------------------------------
      1          6           0        2.001224    2.104956   -1.475055
      2          6           0        2.386602    2.191707   -0.133236
      3          6           0        2.411943    1.050130    0.673430
      4          6           0        2.044034   -0.167493    0.103056
      5          6           0        1.655424   -0.286260   -1.230424
      6          6           0        1.637506    0.868429   -2.018408
      7          1           0        1.984421    2.996853   -2.094436
      8          1           0        2.669581    3.150681    0.291423
      9          1           0        2.706188    1.088759    1.715229
     10          1           0        1.378723   -1.256207   -1.625465
     11          1           0        1.337786    0.798067   -3.060168
     12          7           0        2.066932   -1.382970    0.947148
     13          8           0        1.738255   -2.443883    0.420772
     14          8           0        2.413122   -1.251732    2.119140
     15          6           0       -2.285333    1.815487    1.735937
     16          6           0       -2.134562    0.490809    2.159040
     17          6           0       -1.997949   -0.541362    1.226031
     18          6           0       -2.016567   -0.211521   -0.128276
     19          6           0       -2.165148    1.098494   -0.581132
     20          6           0       -2.300120    2.114573    0.369610
     21          1           0       -2.390820    2.611052    2.467609
     22          1           0       -2.122719    0.255588    3.219501
     23          1           0       -1.879782   -1.575528    1.525959
     24          1           0       -2.173167    1.301929   -1.645072
     25          1           0       -2.417060    3.142430    0.038127
     26          7           0       -1.872810   -1.295717   -1.125399
     27          8           0       -1.892410   -0.978917   -2.312787
     28          8           0       -1.743257   -2.441781   -0.700674
 ---------------------------------------------------------------------

 SCF Done:  E(RHF) =  -868.338083710     A.U. after   16 cycles
 E2 =    -0.2603838998D+01 EUMP2 =    -0.87094192270783D+03

 The electronic state is 1-A.
 Alpha  occ. eigenvalues --  -20.60898 -20.60765 -20.60632 -20.60543 -15.85851
 Alpha  occ. eigenvalues --  -15.85629 -11.31173 -11.31045 -11.27807 -11.27664
 Alpha  occ. eigenvalues --  -11.27654 -11.27504 -11.27479 -11.27392 -11.26817
 Alpha  occ. eigenvalues --  -11.26719 -11.26695 -11.26558  -1.59908  -1.59673
 Alpha  occ. eigenvalues --   -1.39454  -1.39215  -1.19364  -1.19210  -1.08767
 Alpha  occ. eigenvalues --   -1.08623  -1.04744  -1.04609  -0.95604  -0.95444
 Alpha  occ. eigenvalues --   -0.86150  -0.86018  -0.82430  -0.82250  -0.77488
 Alpha  occ. eigenvalues --   -0.77279  -0.72078  -0.71852  -0.71351  -0.70929
 Alpha  occ. eigenvalues --   -0.70465  -0.70302  -0.65009  -0.64862  -0.64753
 Alpha  occ. eigenvalues --   -0.64599  -0.62085  -0.61924  -0.55270  -0.55147
 Alpha  occ. eigenvalues --   -0.53482  -0.52837  -0.52687  -0.52561  -0.48858
 Alpha  occ. eigenvalues --   -0.48829  -0.48627  -0.48598  -0.44932  -0.44521
 Alpha  occ. eigenvalues --   -0.37603  -0.37200  -0.36304  -0.36013
 Alpha virt. eigenvalues --    0.04932   0.05256   0.11068   0.11638   0.16522
 Alpha virt. eigenvalues --    0.16690   0.21287   0.21713   0.27194   0.27561
 Alpha virt. eigenvalues --    0.28349   0.28552   0.30921   0.31138   0.32415

 Mulliken charges:
               1
     1  C   -0.173560
     2  C   -0.218285
     3  C   -0.171107
     4  C    0.159886
     5  C   -0.182335
     6  C   -0.218338
     7  H    0.223085
     8  H    0.220080
     9  H    0.272747
    10  H    0.288861
    11  H    0.230537
    12  N    0.485484
    13  O   -0.450785
    14  O   -0.466514
    15  C   -0.171433
    16  C   -0.218020
    17  C   -0.174164
    18  C    0.157239
    19  C   -0.167993
    20  C   -0.218416
    21  H    0.224490
    22  H    0.227093
    23  H    0.283993
    24  H    0.270359
    25  H    0.219776
    26  N    0.485735
    27  O   -0.470683
    28  O   -0.447730
 Sum of Mulliken charges =  -0.00000

 Dipole moment (field-independent basis, Debye):
    X=             -0.6320    Y=              7.7818    Z=              0.5591  Tot=              7.8274
 Quadrupole moment (field-independent basis, Debye-Ang):
   XX=           -104.5151   YY=           -104.7130   ZZ=           -101.1295
   XY=              1.9198   XZ=            -12.1816   YZ=             -0.6602

 Normal termination of Gaussian 16 at Thu May  6 06:29:45 2021.
