 Gaussian 16, Revision A.03,
 Gaussian 16:  EM64L-G16RevA.03 25-Dec-2016

 -------------
 #p 6-31g* mp2
 -------------

 ------------------------------------------------------
 Input file generated by CHIRIPA (05-May-2021 14:51:10)
 ------------------------------------------------------
 Symbolic Z-matrix:
 Charge =  0 Multiplicity = 1

                         Standard orientation:
 ---------------------------------------------------------------------
 Center     Atomic      Atomic             Coordinates (Angstroms)
 Number     Number       Type             X           Y           Z
 ---------------------------------------------------------------------
      1          6           0        4.287296   -0.577824    0.342905
      2          6           0        5.394105   -1.279512   -0.444873
      3          6           0        5.837939   -2.592492    0.200796
      4          1           0        4.639761   -0.384537    1.365330
      5          1           0        3.425348   -1.253484    0.431920
      6          1           0        6.253186   -0.602216   -0.533565
      7          1           0        5.039033   -1.470978   -1.465598
      8          1           0        4.996572   -3.289059    0.274935
      9          1           0        6.217624   -2.415361    1.212263
     10          1           0        6.629730   -3.077338   -0.378731
     11          6           0        3.832936    0.736207   -0.290032
     12          6           0        2.726128    1.437895    0.497746
     13          6           0        2.282293    2.750875   -0.147923
     14          1           0        4.694885    1.411867   -0.379047
     15          1           0        3.480472    0.542920   -1.312458
     16          1           0        3.081200    1.629362    1.518471
     17          1           0        1.867047    0.760600    0.586438
     18          1           0        1.902609    2.573744   -1.159390
     19          1           0        3.123661    3.447442   -0.222062
     20          1           0        1.490503    3.235721    0.431604
     21          6           0       -4.748458   -0.132433    0.300339
     22          6           0       -5.702439   -1.067143   -0.444123
     23          6           0       -7.075449   -1.163217    0.221764
     24          1           0       -4.632236   -0.485113    1.334291
     25          1           0       -5.198825    0.868063    0.360115
     26          1           0       -5.249799   -2.065233   -0.503687
     27          1           0       -5.816254   -0.712307   -1.476477
     28          1           0       -7.551191   -0.178241    0.267496
     29          1           0       -6.981517   -1.538854    1.245812
     30          1           0       -7.741464   -1.836520   -0.326823
     31          6           0       -3.371774   -0.025950   -0.353212
     32          6           0       -2.417794    0.908759    0.391250
     33          6           0       -1.044784    1.004834   -0.274637
     34          1           0       -2.921408   -1.026446   -0.412988
     35          1           0       -3.487998    0.326728   -1.387163
     36          1           0       -2.303978    0.553924    1.423604
     37          1           0       -2.870435    1.906850    0.450815
     38          1           0       -1.138716    1.380471   -1.298686
     39          1           0       -0.569041    0.019858   -0.320369
     40          1           0       -0.378770    1.678137    0.273951
 ---------------------------------------------------------------------

 SCF Done:  E(RHF) =  -470.732134653     A.U. after   11 cycles
 E2 =    -0.1583345552D+01 EUMP2 =    -0.47231548020553D+03

 The electronic state is 1-A.
 Alpha  occ. eigenvalues --  -11.21604 -11.21592 -11.21575 -11.21476 -11.21405
 Alpha  occ. eigenvalues --  -11.21359 -11.21346 -11.21294 -11.21074 -11.21054
 Alpha  occ. eigenvalues --  -11.21010 -11.21010  -1.08437  -1.08375  -1.03578
 Alpha  occ. eigenvalues --   -1.03441  -0.96068  -0.95862  -0.87054  -0.86909
 Alpha  occ. eigenvalues --   -0.79619  -0.79532  -0.78252  -0.78186  -0.65080
 Alpha  occ. eigenvalues --   -0.65008  -0.61027  -0.60886  -0.59628  -0.59068
 Alpha  occ. eigenvalues --   -0.57758  -0.57359  -0.55276  -0.55250  -0.52826
 Alpha  occ. eigenvalues --   -0.52478  -0.52466  -0.52192  -0.50046  -0.49774
 Alpha  occ. eigenvalues --   -0.47953  -0.47816  -0.46752  -0.46452  -0.45802
 Alpha  occ. eigenvalues --   -0.45742  -0.45715  -0.45598  -0.43780  -0.43688
 Alpha virt. eigenvalues --    0.21903   0.23024   0.23564   0.25003   0.26154
 Alpha virt. eigenvalues --    0.26595   0.27089   0.27448   0.27685   0.29067
 Alpha virt. eigenvalues --    0.29850   0.31167   0.31620   0.32057   0.32282

 Mulliken charges:
               1
     1  C   -0.298137
     2  C   -0.299619
     3  C   -0.475662
     4  H    0.149516
     5  H    0.149069
     6  H    0.151916
     7  H    0.151913
     8  H    0.155019
     9  H    0.155118
    10  H    0.160171
    11  C   -0.297847
    12  C   -0.305617
    13  C   -0.477844
    14  H    0.149128
    15  H    0.149667
    16  H    0.150912
    17  H    0.158998
    18  H    0.157467
    19  H    0.155655
    20  H    0.158614
    21  C   -0.298225
    22  C   -0.299601
    23  C   -0.475694
    24  H    0.149618
    25  H    0.149540
    26  H    0.151853
    27  H    0.151918
    28  H    0.155197
    29  H    0.155178
    30  H    0.160242
    31  C   -0.298722
    32  C   -0.299679
    33  C   -0.481741
    34  H    0.149294
    35  H    0.149575
    36  H    0.151780
    37  H    0.151807
    38  H    0.154601
    39  H    0.153864
    40  H    0.170758
 Sum of Mulliken charges =  -0.00000

 Dipole moment (field-independent basis, Debye):
    X=             -0.0150    Y=              0.0134    Z=             -0.0070  Tot=              0.0213
 Quadrupole moment (field-independent basis, Debye-Ang):
   XX=            -85.6744   YY=            -84.9132   ZZ=            -84.4344
   XY=              0.2875   XZ=              0.7720   YZ=              0.1935

 Normal termination of Gaussian 16 at Thu May  6 02:14:16 2021.
