 Gaussian 16, Revision A.03,
 Gaussian 16:  EM64L-G16RevA.03 25-Dec-2016

 -------------
 #p 6-31g* mp2
 -------------

 ------------------------------------------------------
 Input file generated by CHIRIPA (05-May-2021 14:53:17)
 ------------------------------------------------------
 Symbolic Z-matrix:
 Charge =  0 Multiplicity = 1

                         Standard orientation:
 ---------------------------------------------------------------------
 Center     Atomic      Atomic             Coordinates (Angstroms)
 Number     Number       Type             X           Y           Z
 ---------------------------------------------------------------------
      1          6           0        4.330660   -0.656164   -0.239577
      2          6           0        5.782481   -1.002817    0.092135
      3          6           0        6.114551   -2.471839   -0.171491
      4          1           0        3.662904   -1.296539    0.352848
      5          1           0        4.136250   -0.893351   -1.294728
      6          1           0        5.974484   -0.763754    1.145985
      7          1           0        6.446857   -0.361411   -0.501008
      8          1           0        5.950828   -2.720753   -1.224979
      9          1           0        5.475771   -3.125382    0.431371
     10          1           0        7.157310   -2.697744    0.072396
     11          6           0        3.983420    0.808905    0.018732
     12          6           0        2.531599    1.155558   -0.312980
     13          6           0        2.199529    2.624580   -0.049354
     14          1           0        4.177830    1.046092    1.073882
     15          1           0        4.651176    1.449279   -0.573693
     16          1           0        1.867222    0.514152    0.280162
     17          1           0        2.339595    0.916495   -1.366830
     18          1           0        2.838308    3.278123   -0.652216
     19          1           0        2.363251    2.873494    1.004134
     20          1           0        1.156770    2.850485   -0.293241
     21          6           0       -5.272493   -1.461107   -0.463319
     22          6           0       -4.690843   -1.539154    0.806371
     23          6           0       -3.568730   -0.767262    1.121959
     24          6           0       -3.051937    0.075822    0.139400
     25          6           0       -3.608906    0.175714   -1.134608
     26          6           0       -4.730623   -0.605430   -1.428056
     27          1           0       -6.144023   -2.064324   -0.699876
     28          1           0       -5.109530   -2.202810    1.557575
     29          1           0       -3.098545   -0.808155    2.096983
     30          1           0       -3.169041    0.846487   -1.862620
     31          1           0       -5.180256   -0.542770   -2.414944
     32          7           0       -1.864216    0.897887    0.461779
     33          8           0       -1.427913    1.632872   -0.421439
     34          8           0       -1.392073    0.791672    1.591573
 ---------------------------------------------------------------------

 SCF Done:  E(RHF) =  -669.536613859     A.U. after   15 cycles
 E2 =    -0.2091352109D+01 EUMP2 =    -0.67162796596781D+03

 The electronic state is 1-A.
 Alpha  occ. eigenvalues --  -20.61046 -20.61027 -15.86053 -11.31343 -11.27900
 Alpha  occ. eigenvalues --  -11.27896 -11.27632 -11.26899 -11.26889 -11.20928
 Alpha  occ. eigenvalues --  -11.20549 -11.20525 -11.20238 -11.20050 -11.19143
 Alpha  occ. eigenvalues --   -1.60081  -1.39639  -1.19505  -1.08916  -1.07397
 Alpha  occ. eigenvalues --   -1.04896  -1.02381  -0.95764  -0.94830  -0.86298
 Alpha  occ. eigenvalues --   -0.85863  -0.82597  -0.78524  -0.77654  -0.77140
 Alpha  occ. eigenvalues --   -0.72272  -0.71388  -0.70614  -0.65161  -0.64900
 Alpha  occ. eigenvalues --   -0.64042  -0.62244  -0.59793  -0.58283  -0.56401
 Alpha  occ. eigenvalues --   -0.55396  -0.54156  -0.53229  -0.52988  -0.51511
 Alpha  occ. eigenvalues --   -0.51284  -0.49021  -0.48950  -0.48828  -0.46788
 Alpha  occ. eigenvalues --   -0.45595  -0.45055  -0.44688  -0.44574  -0.42614
 Alpha  occ. eigenvalues --   -0.37482  -0.36495
 Alpha virt. eigenvalues --    0.04866   0.11161   0.16374   0.21295   0.23798
 Alpha virt. eigenvalues --    0.25543   0.27218   0.27602   0.28154   0.28479
 Alpha virt. eigenvalues --    0.29219   0.30870   0.32370   0.32458   0.32639

 Mulliken charges:
               1
     1  C   -0.297177
     2  C   -0.298719
     3  C   -0.475016
     4  H    0.148604
     5  H    0.146784
     6  H    0.151336
     7  H    0.150671
     8  H    0.153665
     9  H    0.153952
    10  H    0.158082
    11  C   -0.297495
    12  C   -0.297254
    13  C   -0.483154
    14  H    0.148308
    15  H    0.145851
    16  H    0.158115
    17  H    0.146052
    18  H    0.143101
    19  H    0.151221
    20  H    0.186888
    21  C   -0.170440
    22  C   -0.218599
    23  C   -0.170552
    24  C    0.158039
    25  C   -0.170605
    26  C   -0.218563
    27  H    0.226187
    28  H    0.223987
    29  H    0.275891
    30  H    0.275931
    31  H    0.224015
    32  N    0.489809
    33  O   -0.459761
    34  O   -0.459150
 Sum of Mulliken charges =  -0.00000

 Dipole moment (field-independent basis, Debye):
    X=             -4.6328    Y=             -2.8638    Z=             -1.0888  Tot=              5.5543
 Quadrupole moment (field-independent basis, Debye-Ang):
   XX=            -71.3268   YY=            -96.3950   ZZ=            -90.0613
   XY=              9.1973   XZ=              3.0474   YZ=             -2.9265

 Normal termination of Gaussian 16 at Thu May  6 12:16:08 2021.
