 Gaussian 16, Revision A.03,
 Gaussian 16:  EM64L-G16RevA.03 25-Dec-2016

 -------------
 #p 6-31g* mp2
 -------------

 ------------------------------------------------------
 Input file generated by CHIRIPA (05-May-2021 14:53:18)
 ------------------------------------------------------
 Symbolic Z-matrix:
 Charge =  0 Multiplicity = 1

                         Standard orientation:
 ---------------------------------------------------------------------
 Center     Atomic      Atomic             Coordinates (Angstroms)
 Number     Number       Type             X           Y           Z
 ---------------------------------------------------------------------
      1          6           0       -3.460896   -1.033064   -0.235893
      2          6           0       -2.076257   -1.101851    0.409111
      3          6           0       -1.316653   -2.377524    0.043799
      4          1           0       -4.045769   -1.910645    0.071876
      5          1           0       -3.352782   -1.096662   -1.327525
      6          1           0       -2.186850   -1.036750    1.499132
      7          1           0       -1.494679   -0.223906    0.099924
      8          1           0       -1.176947   -2.445728   -1.039913
      9          1           0       -1.873051   -3.263191    0.367245
     10          1           0       -0.329501   -2.406009    0.515583
     11          6           0       -4.232554    0.236461    0.119885
     12          6           0       -5.617192    0.305248   -0.525119
     13          6           0       -6.376796    1.580921   -0.159807
     14          1           0       -4.340668    0.300059    1.211517
     15          1           0       -3.647681    1.114042   -0.187884
     16          1           0       -6.198770   -0.572697   -0.215932
     17          1           0       -5.506599    0.240147   -1.615140
     18          1           0       -5.820398    2.466588   -0.483253
     19          1           0       -6.516502    1.649125    0.923905
     20          1           0       -7.363948    1.609407   -0.631591
     21          6           0        2.664349    2.807672    0.176467
     22          6           0        3.650780    2.278997   -0.662568
     23          6           0        3.848507    0.897349   -0.743191
     24          6           0        3.038211    0.069821    0.032637
     25          6           0        2.047132    0.566197    0.878013
     26          6           0        1.867080    1.951095    0.942729
     27          1           0        2.517615    3.882231    0.232918
     28          1           0        4.271426    2.941831   -1.258802
     29          1           0        4.604867    0.461282   -1.384427
     30          1           0        1.443992   -0.119790    1.460303
     31          1           0        1.100240    2.358863    1.595207
     32          7           0        3.238181   -1.394589   -0.044295
     33          8           0        2.511180   -2.102331    0.649397
     34          8           0        4.118130   -1.806921   -0.796829
 ---------------------------------------------------------------------

 SCF Done:  E(RHF) =  -669.536297665     A.U. after   15 cycles
 E2 =    -0.2091490247D+01 EUMP2 =    -0.67162778791171D+03

 The electronic state is 1-A.
 Alpha  occ. eigenvalues --  -20.60908 -20.60900 -15.85937 -11.31254 -11.27822
 Alpha  occ. eigenvalues --  -11.27814 -11.27558 -11.26831 -11.26820 -11.21655
 Alpha  occ. eigenvalues --  -11.21488 -11.21439 -11.21289 -11.21175 -11.20423
 Alpha  occ. eigenvalues --   -1.59963  -1.39521  -1.19425  -1.08830  -1.08392
 Alpha  occ. eigenvalues --   -1.04821  -1.03423  -0.95838  -0.95665  -0.86836
 Alpha  occ. eigenvalues --   -0.86221  -0.82507  -0.79501  -0.78224  -0.77561
 Alpha  occ. eigenvalues --   -0.72165  -0.71275  -0.70534  -0.65082  -0.65029
 Alpha  occ. eigenvalues --   -0.64823  -0.62174  -0.60827  -0.59206  -0.57450
 Alpha  occ. eigenvalues --   -0.55327  -0.55125  -0.53152  -0.52914  -0.52470
 Alpha  occ. eigenvalues --   -0.52250  -0.49780  -0.48922  -0.48911  -0.47799
 Alpha  occ. eigenvalues --   -0.46561  -0.45753  -0.45691  -0.44937  -0.43613
 Alpha  occ. eigenvalues --   -0.37404  -0.36417
 Alpha virt. eigenvalues --    0.04920   0.11206   0.16399   0.20923   0.22898
 Alpha virt. eigenvalues --    0.24073   0.26446   0.26675   0.27546   0.27773
 Alpha virt. eigenvalues --    0.29007   0.30519   0.31504   0.31632   0.31934

 Mulliken charges:
               1
     1  C   -0.297237
     2  C   -0.301910
     3  C   -0.486555
     4  H    0.151018
     5  H    0.150318
     6  H    0.147864
     7  H    0.144922
     8  H    0.154648
     9  H    0.154171
    10  H    0.182195
    11  C   -0.297714
    12  C   -0.299539
    13  C   -0.475533
    14  H    0.148102
    15  H    0.146364
    16  H    0.152929
    17  H    0.152365
    18  H    0.153624
    19  H    0.154704
    20  H    0.160676
    21  C   -0.170633
    22  C   -0.218574
    23  C   -0.170856
    24  C    0.158102
    25  C   -0.171000
    26  C   -0.219541
    27  H    0.225906
    28  H    0.223683
    29  H    0.275713
    30  H    0.278015
    31  H    0.224538
    32  N    0.489834
    33  O   -0.461699
    34  O   -0.458900
 Sum of Mulliken charges =  -0.00000

 Dipole moment (field-independent basis, Debye):
    X=             -0.5511    Y=              5.0857    Z=              0.2519  Tot=              5.1217
 Quadrupole moment (field-independent basis, Debye-Ang):
   XX=            -97.1025   YY=            -94.8128   ZZ=            -92.4381
   XY=             17.2190   XZ=             -2.2403   YZ=             -0.8764

 Normal termination of Gaussian 16 at Wed May  5 17:18:33 2021.
