 Gaussian 16, Revision A.03,
 Gaussian 16:  EM64L-G16RevA.03 25-Dec-2016

 -------------
 #p 6-31g* mp2
 -------------

 ------------------------------------------------------
 Input file generated by CHIRIPA (05-May-2021 14:57:21)
 ------------------------------------------------------
 Symbolic Z-matrix:
 Charge =  0 Multiplicity = 1

                         Standard orientation:
 ---------------------------------------------------------------------
 Center     Atomic      Atomic             Coordinates (Angstroms)
 Number     Number       Type             X           Y           Z
 ---------------------------------------------------------------------
      1          6           0       -1.217027   -0.728475    1.480234
      2          6           0       -1.474046   -1.315844    0.237069
      3          6           0       -2.590648   -0.932784   -0.511940
      4          6           0       -3.433021    0.045058    0.014865
      5          6           0       -3.203836    0.648853    1.250258
      6          6           0       -2.081218    0.250274    1.981976
      7          1           0       -0.347287   -1.032073    2.055367
      8          1           0       -0.804628   -2.076202   -0.155079
      9          1           0       -2.813351   -1.371107   -1.477183
     10          1           0       -3.889314    1.404193    1.614949
     11          1           0       -1.884101    0.708151    2.947139
     12          7           0       -4.618301    0.458802   -0.768925
     13          8           0       -5.345094    1.322495   -0.282671
     14          8           0       -4.798088   -0.088434   -1.854672
     15          6           0        3.866303    2.463816   -0.261546
     16          6           0        3.462035    1.902848    0.954350
     17          6           0        3.111442    0.551652    1.031182
     18          6           0        3.176899   -0.212824   -0.132683
     19          6           0        3.575721    0.317005   -1.358861
     20          6           0        3.921759    1.670504   -1.412242
     21          1           0        4.136883    3.514352   -0.312122
     22          1           0        3.418024    2.516547    1.849604
     23          1           0        2.794976    0.091711    1.959472
     24          1           0        3.609648   -0.320022   -2.234339
     25          1           0        4.235353    2.103470   -2.357886
     26          7           0        2.808152   -1.644493   -0.063758
     27          8           0        2.874217   -2.296670   -1.103439
     28          8           0        2.460047   -2.087349    1.028642
 ---------------------------------------------------------------------

 SCF Done:  E(RHF) =  -868.340010055     A.U. after   16 cycles
 E2 =    -0.2599243330D+01 EUMP2 =    -0.87093925338510D+03

 The electronic state is 1-A.
 Alpha  occ. eigenvalues --  -20.61943 -20.61885 -20.60478 -20.60469 -15.86931
 Alpha  occ. eigenvalues --  -15.85525 -11.32000 -11.30781 -11.28581 -11.28495
 Alpha  occ. eigenvalues --  -11.28189 -11.27491 -11.27436 -11.27379 -11.27289
 Alpha  occ. eigenvalues --  -11.26936 -11.26362 -11.26164  -1.60980  -1.59555
 Alpha  occ. eigenvalues --   -1.40541  -1.39111  -1.20138  -1.18930  -1.09583
 Alpha  occ. eigenvalues --   -1.08324  -1.05500  -1.04313  -0.96470  -0.95181
 Alpha  occ. eigenvalues --   -0.86912  -0.85700  -0.83315  -0.82018  -0.78407
 Alpha  occ. eigenvalues --   -0.77101  -0.73152  -0.72299  -0.71741  -0.71242
 Alpha  occ. eigenvalues --   -0.70878  -0.69964  -0.65794  -0.65497  -0.64565
 Alpha  occ. eigenvalues --   -0.64280  -0.62861  -0.61654  -0.55994  -0.54734
 Alpha  occ. eigenvalues --   -0.53834  -0.53588  -0.52661  -0.52376  -0.49928
 Alpha  occ. eigenvalues --   -0.49878  -0.48507  -0.48490  -0.45999  -0.44541
 Alpha  occ. eigenvalues --   -0.38087  -0.37104  -0.36865  -0.35935
 Alpha virt. eigenvalues --    0.04067   0.05419   0.10557   0.11716   0.15624
 Alpha virt. eigenvalues --    0.16947   0.20450   0.22005   0.26208   0.27155
 Alpha virt. eigenvalues --    0.27822   0.28855   0.30556   0.31041   0.32890

 Mulliken charges:
               1
     1  C   -0.177314
     2  C   -0.225396
     3  C   -0.171988
     4  C    0.157770
     5  C   -0.172079
     6  C   -0.219576
     7  H    0.236263
     8  H    0.236726
     9  H    0.275485
    10  H    0.273012
    11  H    0.219124
    12  N    0.488092
    13  O   -0.462599
    14  O   -0.460923
    15  C   -0.169212
    16  C   -0.217643
    17  C   -0.171398
    18  C    0.158716
    19  C   -0.169935
    20  C   -0.217830
    21  H    0.228944
    22  H    0.224708
    23  H    0.270395
    24  H    0.277205
    25  H    0.226944
    26  N    0.487764
    27  O   -0.455912
    28  O   -0.469341
 Sum of Mulliken charges =  -0.00000

 Dipole moment (field-independent basis, Debye):
    X=              5.8451    Y=              3.6067    Z=              2.3507  Tot=              7.2594
 Quadrupole moment (field-independent basis, Debye-Ang):
   XX=           -126.2531   YY=           -105.6198   ZZ=            -97.6695
   XY=             20.8227   XZ=            -12.8701   YZ=              2.7039

 Normal termination of Gaussian 16 at Wed May  5 19:17:44 2021.
