 Gaussian 16, Revision A.03,
 Gaussian 16:  EM64L-G16RevA.03 25-Dec-2016

 -------------
 #p 6-31g* mp2
 -------------

 ------------------------------------------------------
 Input file generated by CHIRIPA (05-May-2021 14:53:14)
 ------------------------------------------------------
 Symbolic Z-matrix:
 Charge =  0 Multiplicity = 1

                         Standard orientation:
 ---------------------------------------------------------------------
 Center     Atomic      Atomic             Coordinates (Angstroms)
 Number     Number       Type             X           Y           Z
 ---------------------------------------------------------------------
      1          6           0        3.521323   -0.514060   -0.329454
      2          6           0        4.825733   -1.229281    0.024038
      3          6           0        4.866079   -2.670733   -0.484278
      4          1           0        2.676549   -1.076495    0.091222
      5          1           0        3.390440   -0.522919   -1.420411
      6          1           0        4.954805   -1.217863    1.113912
      7          1           0        5.667512   -0.664975   -0.397366
      8          1           0        4.762388   -2.698047   -1.573820
      9          1           0        4.045632   -3.254076   -0.053955
     10          1           0        5.807245   -3.163217   -0.220602
     11          6           0        3.465941    0.927900    0.171957
     12          6           0        2.161531    1.643121   -0.181535
     13          6           0        2.121185    3.084573    0.326780
     14          1           0        3.596824    0.936759    1.262913
     15          1           0        4.310715    1.490335   -0.248720
     16          1           0        1.319752    1.078815    0.239869
     17          1           0        2.032459    1.631703   -1.271410
     18          1           0        2.941632    3.667916   -0.103542
     19          1           0        2.224875    3.111887    1.416323
     20          1           0        1.180018    3.577057    0.063105
     21          6           0       -3.295089   -2.613253    0.250176
     22          6           0       -2.220594   -2.085123    0.973403
     23          6           0       -1.898061   -0.728236    0.876559
     24          6           0       -2.674711    0.075355    0.043284
     25          6           0       -3.751349   -0.421148   -0.689947
     26          6           0       -4.055696   -1.781047   -0.577731
     27          1           0       -3.538577   -3.668486    0.331378
     28          1           0       -1.628154   -2.729061    1.617146
     29          1           0       -1.071597   -0.293180    1.425286
     30          1           0       -4.323563    0.245670   -1.323464
     31          1           0       -4.890727   -2.188455   -1.140571
     32          7           0       -2.342886    1.513425   -0.067377
     33          8           0       -3.042616    2.200362   -0.808413
     34          8           0       -1.389356    1.926418    0.589017
 ---------------------------------------------------------------------

 SCF Done:  E(RHF) =  -669.536055421     A.U. after   15 cycles
 E2 =    -0.2091853326D+01 EUMP2 =    -0.67162790874684D+03

 The electronic state is 1-A.
 Alpha  occ. eigenvalues --  -20.60965 -20.60950 -15.85977 -11.31296 -11.27863
 Alpha  occ. eigenvalues --  -11.27852 -11.27591 -11.26866 -11.26855 -11.21457
 Alpha  occ. eigenvalues --  -11.21137 -11.21049 -11.20827 -11.20642 -11.19823
 Alpha  occ. eigenvalues --   -1.60013  -1.39570  -1.19462  -1.08868  -1.07984
 Alpha  occ. eigenvalues --   -1.04859  -1.02960  -0.95718  -0.95410  -0.86443
 Alpha  occ. eigenvalues --   -0.86259  -0.82548  -0.79092  -0.77784  -0.77558
 Alpha  occ. eigenvalues --   -0.72210  -0.71320  -0.70573  -0.65124  -0.64868
 Alpha  occ. eigenvalues --   -0.64627  -0.62212  -0.60366  -0.58840  -0.56970
 Alpha  occ. eigenvalues --   -0.55363  -0.54739  -0.53187  -0.52955  -0.52059
 Alpha  occ. eigenvalues --   -0.51846  -0.49419  -0.48988  -0.48950  -0.47364
 Alpha  occ. eigenvalues --   -0.46176  -0.45404  -0.45237  -0.44743  -0.43213
 Alpha  occ. eigenvalues --   -0.37437  -0.36458
 Alpha virt. eigenvalues --    0.04893   0.11162   0.16379   0.20934   0.23109
 Alpha virt. eigenvalues --    0.24630   0.26040   0.27392   0.27642   0.28583
 Alpha virt. eigenvalues --    0.28914   0.30418   0.31563   0.32039   0.32950

 Mulliken charges:
               1
     1  C   -0.295854
     2  C   -0.299071
     3  C   -0.474882
     4  H    0.142234
     5  H    0.149527
     6  H    0.150737
     7  H    0.152894
     8  H    0.155259
     9  H    0.151521
    10  H    0.159665
    11  C   -0.298397
    12  C   -0.300811
    13  C   -0.476286
    14  H    0.146735
    15  H    0.148545
    16  H    0.156789
    17  H    0.148682
    18  H    0.147189
    19  H    0.150658
    20  H    0.179690
    21  C   -0.170449
    22  C   -0.218676
    23  C   -0.171339
    24  C    0.158259
    25  C   -0.170661
    26  C   -0.218506
    27  H    0.226074
    28  H    0.223871
    29  H    0.276749
    30  H    0.275828
    31  H    0.223863
    32  N    0.489734
    33  O   -0.459004
    34  O   -0.460567
 Sum of Mulliken charges =  -0.00000

 Dipole moment (field-independent basis, Debye):
    X=             -1.4437    Y=             -4.9555    Z=              0.3703  Tot=              5.1748
 Quadrupole moment (field-independent basis, Debye-Ang):
   XX=            -86.4539   YY=            -96.8960   ZZ=            -92.5819
   XY=             13.4634   XZ=              1.4139   YZ=             -1.3178

 Normal termination of Gaussian 16 at Thu May  6 12:08:24 2021.
