 Gaussian 16, Revision A.03,
 Gaussian 16:  EM64L-G16RevA.03 25-Dec-2016

 -------------
 #p 6-31g* mp2
 -------------

 ------------------------------------------------------
 Input file generated by CHIRIPA (05-May-2021 14:57:24)
 ------------------------------------------------------
 Symbolic Z-matrix:
 Charge =  0 Multiplicity = 1

                         Standard orientation:
 ---------------------------------------------------------------------
 Center     Atomic      Atomic             Coordinates (Angstroms)
 Number     Number       Type             X           Y           Z
 ---------------------------------------------------------------------
      1          6           0        2.604943    1.786438    0.844559
      2          6           0        2.126938    0.480963    0.690388
      3          6           0        2.978799   -0.540959    0.260788
      4          6           0        4.308823   -0.220562   -0.006930
      5          6           0        4.814925    1.070332    0.137095
      6          6           0        3.945048    2.076444    0.567908
      7          1           0        1.936199    2.574151    1.178754
      8          1           0        1.086672    0.252831    0.904506
      9          1           0        2.635086   -1.560246    0.132981
     10          1           0        5.856939    1.267089   -0.084064
     11          1           0        4.319033    3.089388    0.686753
     12          7           0        5.220186   -1.294057   -0.462370
     13          8           0        6.387696   -0.985905   -0.691716
     14          8           0        4.749746   -2.423287   -0.581373
     15          6           0       -5.911779   -1.730610    0.311863
     16          6           0       -6.175854   -0.658017   -0.546232
     17          6           0       -5.211891    0.330818   -0.764240
     18          6           0       -3.989130    0.215165   -0.104869
     19          6           0       -3.696078   -0.841380    0.756016
     20          6           0       -4.674914   -1.818714    0.959108
     21          1           0       -6.666386   -2.494294    0.475425
     22          1           0       -7.135536   -0.587017   -1.050231
     23          1           0       -5.389904    1.171867   -1.423304
     24          1           0       -2.730106   -0.884992    1.244291
     25          1           0       -4.467061   -2.650585    1.626065
     26          7           0       -2.960752    1.255912   -0.327769
     27          8           0       -1.891363    1.131087    0.265073
     28          8           0       -3.243572    2.176769   -1.091100
 ---------------------------------------------------------------------

 SCF Done:  E(RHF) =  -868.339861454     A.U. after   16 cycles
 E2 =    -0.2598200894D+01 EUMP2 =    -0.87093806234809D+03

 The electronic state is 1-A.
 Alpha  occ. eigenvalues --  -20.61689 -20.61627 -20.60197 -20.60191 -15.86705
 Alpha  occ. eigenvalues --  -15.85242 -11.31833 -11.30420 -11.28403 -11.28346
 Alpha  occ. eigenvalues --  -11.28050 -11.27334 -11.27309 -11.26977 -11.26931
 Alpha  occ. eigenvalues --  -11.26548 -11.25940 -11.25768  -1.60719  -1.59276
 Alpha  occ. eigenvalues --   -1.40285  -1.38835  -1.19977  -1.18549  -1.09410
 Alpha  occ. eigenvalues --   -1.07954  -1.05348  -1.03921  -0.96289  -0.94833
 Alpha  occ. eigenvalues --   -0.86756  -0.85306  -0.83137  -0.81676  -0.78214
 Alpha  occ. eigenvalues --   -0.76767  -0.72944  -0.72022  -0.71465  -0.71083
 Alpha  occ. eigenvalues --   -0.70596  -0.69612  -0.65637  -0.65345  -0.64186
 Alpha  occ. eigenvalues --   -0.63876  -0.62704  -0.61268  -0.55845  -0.54352
 Alpha  occ. eigenvalues --   -0.53684  -0.53437  -0.52264  -0.51984  -0.49703
 Alpha  occ. eigenvalues --   -0.49649  -0.48232  -0.48200  -0.45739  -0.44284
 Alpha  occ. eigenvalues --   -0.37934  -0.36939  -0.36483  -0.35530
 Alpha virt. eigenvalues --    0.04311   0.05750   0.10719   0.12138   0.15853
 Alpha virt. eigenvalues --    0.17317   0.20733   0.22337   0.26503   0.27216
 Alpha virt. eigenvalues --    0.28551   0.29225   0.30351   0.31401   0.32627

 Mulliken charges:
               1
     1  C   -0.170905
     2  C   -0.220926
     3  C   -0.173487
     4  C    0.158137
     5  C   -0.172609
     6  C   -0.219094
     7  H    0.231964
     8  H    0.237437
     9  H    0.271281
    10  H    0.272768
    11  H    0.221338
    12  N    0.488263
    13  O   -0.462481
    14  O   -0.463306
    15  C   -0.169875
    16  C   -0.218275
    17  C   -0.170342
    18  C    0.158371
    19  C   -0.170023
    20  C   -0.218083
    21  H    0.228139
    22  H    0.225724
    23  H    0.276761
    24  H    0.270878
    25  H    0.225372
    26  N    0.492988
    27  O   -0.474342
    28  O   -0.455672
 Sum of Mulliken charges =  -0.00000

 Dipole moment (field-independent basis, Debye):
    X=             -7.3707    Y=              0.1945    Z=              2.3842  Tot=              7.7492
 Quadrupole moment (field-independent basis, Debye-Ang):
   XX=            -99.4658   YY=           -105.4750   ZZ=           -104.4043
   XY=             32.7846   XZ=              6.4451   YZ=             -1.8535

 Normal termination of Gaussian 16 at Fri May  7 08:01:36 2021.
