 Gaussian 16, Revision A.03,
 Gaussian 16:  EM64L-G16RevA.03 25-Dec-2016

 -------------
 #p 6-31g* mp2
 -------------

 ------------------------------------------------------
 Input file generated by CHIRIPA (05-May-2021 14:53:18)
 ------------------------------------------------------
 Symbolic Z-matrix:
 Charge =  0 Multiplicity = 1

                         Standard orientation:
 ---------------------------------------------------------------------
 Center     Atomic      Atomic             Coordinates (Angstroms)
 Number     Number       Type             X           Y           Z
 ---------------------------------------------------------------------
      1          6           0        4.096720   -0.564730   -0.164709
      2          6           0        3.081563   -1.702368   -0.049727
      3          6           0        3.677821   -3.064839   -0.404609
      4          1           0        4.493013   -0.537580   -1.188994
      5          1           0        4.949754   -0.775761    0.494984
      6          1           0        2.230058   -1.488575   -0.708399
      7          1           0        2.687499   -1.726691    0.974351
      8          1           0        4.514509   -3.304036    0.259725
      9          1           0        4.054469   -3.064568   -1.432587
     10          1           0        2.934937   -3.863637   -0.315696
     11          6           0        3.515584    0.803621    0.186894
     12          6           0        4.530741    1.941259    0.071913
     13          6           0        3.934483    3.303731    0.426795
     14          1           0        2.662551    1.014653   -0.472798
     15          1           0        3.119291    0.776472    1.211179
     16          1           0        4.924806    1.965582   -0.952166
     17          1           0        5.382246    1.727467    0.730584
     18          1           0        3.557836    3.303459    1.454772
     19          1           0        3.097796    3.542928   -0.237540
     20          1           0        4.677368    4.102528    0.337881
     21          6           0       -0.843314   -1.437175    0.139794
     22          6           0       -0.815680   -0.135650   -0.371860
     23          6           0       -1.989884    0.618164   -0.458782
     24          6           0       -3.179500    0.036602   -0.023019
     25          6           0       -3.239440   -1.257614    0.491474
     26          6           0       -2.052974   -1.993023    0.569072
     27          1           0        0.073598   -2.015607    0.203696
     28          1           0        0.122316    0.298596   -0.705988
     29          1           0       -1.997083    1.627990   -0.850724
     30          1           0       -4.189679   -1.663441    0.816690
     31          1           0       -2.077433   -3.003570    0.966865
     32          7           0       -4.429069    0.824889   -0.110103
     33          8           0       -5.464288    0.289694    0.280439
     34          8           0       -4.349599    1.963017   -0.567254
 ---------------------------------------------------------------------

 SCF Done:  E(RHF) =  -669.535141126     A.U. after   15 cycles
 E2 =    -0.2092349443D+01 EUMP2 =    -0.67162749056984D+03

 The electronic state is 1-A.
 Alpha  occ. eigenvalues --  -20.60682 -20.60677 -15.85735 -11.31073 -11.27645
 Alpha  occ. eigenvalues --  -11.27641 -11.27295 -11.26638 -11.26612 -11.23006
 Alpha  occ. eigenvalues --  -11.22503 -11.22447 -11.22378 -11.22219 -11.21716
 Alpha  occ. eigenvalues --   -1.59758  -1.39313  -1.19239  -1.09518  -1.08630
 Alpha  occ. eigenvalues --   -1.04644  -1.04554  -0.96962  -0.95475  -0.87977
 Alpha  occ. eigenvalues --   -0.86042  -0.82320  -0.80676  -0.79344  -0.77366
 Alpha  occ. eigenvalues --   -0.71953  -0.71082  -0.70341  -0.66162  -0.64887
 Alpha  occ. eigenvalues --   -0.64637  -0.62011  -0.61926  -0.60375  -0.58608
 Alpha  occ. eigenvalues --   -0.56227  -0.55113  -0.53652  -0.53383  -0.52971
 Alpha  occ. eigenvalues --   -0.52733  -0.50897  -0.48933  -0.48712  -0.48703
 Alpha  occ. eigenvalues --   -0.47697  -0.46829  -0.46751  -0.44810  -0.44724
 Alpha  occ. eigenvalues --   -0.37205  -0.36252
 Alpha virt. eigenvalues --    0.05163   0.11379   0.16644   0.19303   0.22292
 Alpha virt. eigenvalues --    0.22832   0.24353   0.25813   0.26232   0.28503
 Alpha virt. eigenvalues --    0.29344   0.30208   0.30846   0.31001   0.32104

 Mulliken charges:
               1
     1  C   -0.297789
     2  C   -0.309191
     3  C   -0.476207
     4  H    0.153237
     5  H    0.154477
     6  H    0.145884
     7  H    0.152430
     8  H    0.160489
     9  H    0.159890
    10  H    0.158365
    11  C   -0.302307
    12  C   -0.300336
    13  C   -0.476354
    14  H    0.143795
    15  H    0.152598
    16  H    0.153860
    17  H    0.154846
    18  H    0.157079
    19  H    0.154413
    20  H    0.163775
    21  C   -0.177616
    22  C   -0.225825
    23  C   -0.172154
    24  C    0.158294
    25  C   -0.170906
    26  C   -0.219800
    27  H    0.235889
    28  H    0.229435
    29  H    0.275299
    30  H    0.275024
    31  H    0.222964
    32  N    0.488060
    33  O   -0.460827
    34  O   -0.460792
 Sum of Mulliken charges =  -0.00000

 Dipole moment (field-independent basis, Debye):
    X=              4.7644    Y=             -2.7549    Z=              0.3455  Tot=              5.5144
 Quadrupole moment (field-independent basis, Debye-Ang):
   XX=           -120.6871   YY=            -93.0076   ZZ=            -93.8330
   XY=             11.5642   XZ=             -1.8392   YZ=             -1.9788

 Normal termination of Gaussian 16 at Wed May  5 23:39:58 2021.
