 Gaussian 16, Revision A.03,
 Gaussian 16:  EM64L-G16RevA.03 25-Dec-2016

 -------------
 #p 6-31g* mp2
 -------------

 ------------------------------------------------------
 Input file generated by CHIRIPA (05-May-2021 14:51:11)
 ------------------------------------------------------
 Symbolic Z-matrix:
 Charge =  0 Multiplicity = 1

                         Standard orientation:
 ---------------------------------------------------------------------
 Center     Atomic      Atomic             Coordinates (Angstroms)
 Number     Number       Type             X           Y           Z
 ---------------------------------------------------------------------
      1          6           0       -2.058062    1.197757    0.441532
      2          6           0       -1.074652    2.337256    0.172401
      3          6           0       -0.731387    3.131927    1.432743
      4          1           0       -2.977676    1.610977    0.878001
      5          1           0       -1.629588    0.523457    1.195936
      6          1           0       -1.504258    3.008452   -0.582285
      7          1           0       -0.157347    1.921297   -0.263656
      8          1           0       -0.279319    2.480540    2.187680
      9          1           0       -1.633883    3.573871    1.867240
     10          1           0       -0.027026    3.941496    1.217492
     11          6           0       -2.410958    0.394091   -0.808793
     12          6           0       -3.394367   -0.745408   -0.539662
     13          6           0       -3.737632   -1.540079   -1.800004
     14          1           0       -2.839431    1.068391   -1.563197
     15          1           0       -1.491344   -0.019129   -1.245262
     16          1           0       -4.311672   -0.329449   -0.103605
     17          1           0       -2.964761   -1.416604    0.215024
     18          1           0       -2.835137   -1.982024   -2.234501
     19          1           0       -4.189701   -0.888692   -2.554941
     20          1           0       -4.441994   -2.349648   -1.584753
     21          6           0        1.727800   -0.827116    0.754336
     22          6           0        1.102928   -2.210848    0.935459
     23          6           0        0.091302   -2.257300    2.080994
     24          1           0        2.218124   -0.527793    1.690782
     25          1           0        0.930528   -0.093625    0.570642
     26          1           0        1.901250   -2.941738    1.117382
     27          1           0        0.614199   -2.506993   -0.001588
     28          1           0       -0.725123   -1.549965    1.902877
     29          1           0        0.569241   -1.987180    3.028205
     30          1           0       -0.343083   -3.255639    2.192752
     31          6           0        2.741220   -0.764733   -0.387075
     32          6           0        3.366092    0.619000   -0.568198
     33          6           0        4.377718    0.665453   -1.713733
     34          1           0        3.538492   -1.498223   -0.203380
     35          1           0        2.250895   -1.064055   -1.323521
     36          1           0        3.854821    0.915146    0.368850
     37          1           0        2.567769    1.349890   -0.750121
     38          1           0        3.899778    0.395332   -2.660944
     39          1           0        5.194143   -0.041884   -1.535616
     40          1           0        4.812103    1.663792   -1.825491
 ---------------------------------------------------------------------

 SCF Done:  E(RHF) =  -470.732521308     A.U. after   11 cycles
 E2 =    -0.1585596577D+01 EUMP2 =    -0.47231811788543D+03

 The electronic state is 1-A.
 Alpha  occ. eigenvalues --  -11.21671 -11.21647 -11.21641 -11.21638 -11.21460
 Alpha  occ. eigenvalues --  -11.21453 -11.21396 -11.21392 -11.21134 -11.21105
 Alpha  occ. eigenvalues --  -11.21100 -11.21077  -1.08556  -1.08428  -1.03588
 Alpha  occ. eigenvalues --   -1.03569  -0.96047  -0.96007  -0.87057  -0.87031
 Alpha  occ. eigenvalues --   -0.79662  -0.79632  -0.78316  -0.78305  -0.65606
 Alpha  occ. eigenvalues --   -0.64707  -0.61010  -0.60949  -0.59424  -0.59362
 Alpha  occ. eigenvalues --   -0.57695  -0.57590  -0.55402  -0.55242  -0.52730
 Alpha  occ. eigenvalues --   -0.52706  -0.52500  -0.52401  -0.50012  -0.49984
 Alpha  occ. eigenvalues --   -0.48004  -0.47969  -0.46791  -0.46727  -0.46145
 Alpha  occ. eigenvalues --   -0.45807  -0.45615  -0.45296  -0.43838  -0.43822
 Alpha virt. eigenvalues --    0.18903   0.21973   0.23442   0.24646   0.25624
 Alpha virt. eigenvalues --    0.25889   0.27052   0.27853   0.28978   0.29769
 Alpha virt. eigenvalues --    0.30561   0.31430   0.31746   0.31774   0.32447

 Mulliken charges:
               1
     1  C   -0.307121
     2  C   -0.305516
     3  C   -0.476021
     4  H    0.150884
     5  H    0.156372
     6  H    0.152738
     7  H    0.155620
     8  H    0.156385
     9  H    0.155304
    10  H    0.160408
    11  C   -0.298855
    12  C   -0.302856
    13  C   -0.475551
    14  H    0.150159
    15  H    0.149141
    16  H    0.152270
    17  H    0.154947
    18  H    0.154851
    19  H    0.155287
    20  H    0.160578
    21  C   -0.308653
    22  C   -0.299142
    23  C   -0.484219
    24  H    0.149722
    25  H    0.160006
    26  H    0.152515
    27  H    0.151516
    28  H    0.162272
    29  H    0.155521
    30  H    0.160839
    31  C   -0.297800
    32  C   -0.303214
    33  C   -0.475658
    34  H    0.149977
    35  H    0.149159
    36  H    0.152339
    37  H    0.154647
    38  H    0.155295
    39  H    0.155360
    40  H    0.160494
 Sum of Mulliken charges =  -0.00000

 Dipole moment (field-independent basis, Debye):
    X=             -0.0017    Y=              0.0093    Z=              0.0153  Tot=              0.0180
 Quadrupole moment (field-independent basis, Debye-Ang):
   XX=            -84.1900   YY=            -84.8068   ZZ=            -85.6131
   XY=             -1.0477   XZ=              0.9443   YZ=             -0.6651

 Normal termination of Gaussian 16 at Wed May  5 19:50:47 2021.
