 Gaussian 16, Revision A.03,
 Gaussian 16:  EM64L-G16RevA.03 25-Dec-2016

 -------------
 #p 6-31g* mp2
 -------------

 ------------------------------------------------------
 Input file generated by CHIRIPA (05-May-2021 14:53:17)
 ------------------------------------------------------
 Symbolic Z-matrix:
 Charge =  0 Multiplicity = 1

                         Standard orientation:
 ---------------------------------------------------------------------
 Center     Atomic      Atomic             Coordinates (Angstroms)
 Number     Number       Type             X           Y           Z
 ---------------------------------------------------------------------
      1          6           0        3.119578    1.278888    0.136332
      2          6           0        1.877155    1.995799   -0.393205
      3          6           0        2.022216    3.517829   -0.379921
      4          1           0        3.323539    1.620282    1.160439
      5          1           0        3.988757    1.570605   -0.469327
      6          1           0        1.010332    1.701748    0.212407
      7          1           0        1.676017    1.652517   -1.416101
      8          1           0        2.869286    3.829502   -0.999544
      9          1           0        2.199819    3.879012    0.638217
     10          1           0        1.122729    4.010196   -0.762488
     11          6           0        2.989838   -0.243231    0.129313
     12          6           0        4.232261   -0.960142    0.658851
     13          6           0        4.087200   -2.482172    0.645566
     14          1           0        2.120659   -0.534948    0.734973
     15          1           0        2.785877   -0.584625   -0.894794
     16          1           0        4.433399   -0.616860    1.681747
     17          1           0        5.099084   -0.666091    0.053238
     18          1           0        3.909597   -2.843355   -0.372572
     19          1           0        3.240129   -2.793844    1.265190
     20          1           0        4.986687   -2.974539    1.028134
     21          6           0       -3.766638    1.541747    0.716614
     22          6           0       -4.188036    0.231148    0.964152
     23          6           0       -3.431287   -0.854905    0.514298
     24          6           0       -2.253063   -0.592715   -0.183080
     25          6           0       -1.806738    0.701607   -0.445405
     26          6           0       -2.579428    1.772388    0.013865
     27          1           0       -4.360691    2.379486    1.069729
     28          1           0       -5.109612    0.049033    1.509659
     29          1           0       -3.734156   -1.879639    0.692083
     30          1           0       -0.883559    0.851575   -0.991911
     31          1           0       -2.249717    2.789156   -0.179827
     32          7           0       -1.443489   -1.734385   -0.664303
     33          8           0       -0.409277   -1.476740   -1.276400
     34          8           0       -1.858485   -2.865256   -0.420278
 ---------------------------------------------------------------------

 SCF Done:  E(RHF) =  -669.535425874     A.U. after   15 cycles
 E2 =    -0.2092755891D+01 EUMP2 =    -0.67162818176534D+03

 The electronic state is 1-A.
 Alpha  occ. eigenvalues --  -20.60800 -20.60782 -15.85832 -11.31166 -11.27757
 Alpha  occ. eigenvalues --  -11.27670 -11.27497 -11.26767 -11.26746 -11.21775
 Alpha  occ. eigenvalues --  -11.21398 -11.21191 -11.21020 -11.20697 -11.20327
 Alpha  occ. eigenvalues --   -1.59859  -1.39413  -1.19351  -1.08752  -1.08133
 Alpha  occ. eigenvalues --   -1.04751  -1.03295  -0.95710  -0.95588  -0.86734
 Alpha  occ. eigenvalues --   -0.86146  -0.82421  -0.79463  -0.77895  -0.77391
 Alpha  occ. eigenvalues --   -0.72050  -0.71177  -0.70460  -0.65007  -0.64805
 Alpha  occ. eigenvalues --   -0.64715  -0.62124  -0.60685  -0.59156  -0.57306
 Alpha  occ. eigenvalues --   -0.55256  -0.54978  -0.53092  -0.52875  -0.52466
 Alpha  occ. eigenvalues --   -0.52090  -0.49642  -0.48812  -0.48810  -0.47687
 Alpha  occ. eigenvalues --   -0.46469  -0.45472  -0.45253  -0.44703  -0.43501
 Alpha  occ. eigenvalues --   -0.37338  -0.36332
 Alpha virt. eigenvalues --    0.05020   0.11255   0.16483   0.20651   0.23224
 Alpha virt. eigenvalues --    0.24287   0.26219   0.26785   0.27263   0.28379
 Alpha virt. eigenvalues --    0.29523   0.30670   0.31533   0.31868   0.32567

 Mulliken charges:
               1
     1  C   -0.297805
     2  C   -0.308198
     3  C   -0.474138
     4  H    0.147701
     5  H    0.149362
     6  H    0.148683
     7  H    0.155735
     8  H    0.158738
     9  H    0.156163
    10  H    0.151063
    11  C   -0.298256
    12  C   -0.300525
    13  C   -0.474881
    14  H    0.150977
    15  H    0.162383
    16  H    0.147994
    17  H    0.149353
    18  H    0.160625
    19  H    0.157507
    20  H    0.156492
    21  C   -0.170382
    22  C   -0.218892
    23  C   -0.170544
    24  C    0.155853
    25  C   -0.174585
    26  C   -0.222390
    27  H    0.225585
    28  H    0.223351
    29  H    0.275446
    30  H    0.286114
    31  H    0.224229
    32  N    0.487983
    33  O   -0.460369
    34  O   -0.460374
 Sum of Mulliken charges =  -0.00000

 Dipole moment (field-independent basis, Debye):
    X=             -2.8283    Y=              3.8683    Z=              1.6176  Tot=              5.0577
 Quadrupole moment (field-independent basis, Debye-Ang):
   XX=            -80.0593   YY=            -99.4215   ZZ=            -94.4803
   XY=             -5.1795   XZ=             -5.6258   YZ=             -2.9811

 Normal termination of Gaussian 16 at Thu May  6 04:24:31 2021.
