 Gaussian 16, Revision A.03,
 Gaussian 16:  EM64L-G16RevA.03 25-Dec-2016

 -------------
 #p 6-31g* mp2
 -------------

 ------------------------------------------------------
 Input file generated by CHIRIPA (05-May-2021 14:55:25)
 ------------------------------------------------------
 Symbolic Z-matrix:
 Charge =  0 Multiplicity = 1

                         Standard orientation:
 ---------------------------------------------------------------------
 Center     Atomic      Atomic             Coordinates (Angstroms)
 Number     Number       Type             X           Y           Z
 ---------------------------------------------------------------------
      1          6           0       -1.561022    2.432575    0.380892
      2          6           0       -2.454238    2.352917   -0.692579
      3          6           0       -3.250481    1.217696   -0.870959
      4          6           0       -3.127242    0.176049    0.047231
      5          6           0       -2.246648    0.225558    1.126765
      6          6           0       -1.460255    1.370514    1.285543
      7          1           0       -0.946307    3.318223    0.511848
      8          1           0       -2.534607    3.176201   -1.396702
      9          1           0       -3.950220    1.129684   -1.693173
     10          1           0       -2.188793   -0.611222    1.812235
     11          1           0       -0.767435    1.429616    2.120140
     12          7           0       -3.964975   -1.030912   -0.131236
     13          8           0       -3.837607   -1.935020    0.691566
     14          8           0       -4.733095   -1.049965   -1.090541
     15          6           0        4.462220   -0.306005   -0.483562
     16          6           0        5.590780    0.209726    0.409945
     17          6           0        6.856635    0.553481   -0.375700
     18          1           0        4.810673   -1.194731   -1.027339
     19          1           0        4.228851    0.453366   -1.242699
     20          1           0        5.821008   -0.549824    1.168032
     21          1           0        5.239536    1.097214    0.951802
     22          1           0        6.649003    1.328021   -1.121071
     23          1           0        7.233779   -0.328376   -0.903612
     24          1           0        7.650482    0.920152    0.282493
     25          6           0        3.190065   -0.653919    0.287352
     26          6           0        2.061504   -1.169650   -0.606155
     27          6           0        0.795650   -1.513406    0.179490
     28          1           0        3.423433   -1.413291    1.046489
     29          1           0        2.841611    0.234807    0.831127
     30          1           0        2.412748   -2.057139   -1.148013
     31          1           0        1.831276   -0.410100   -1.364242
     32          1           0        0.418504   -0.631549    0.707403
     33          1           0        1.003280   -2.287946    0.924862
     34          1           0        0.001802   -1.880076   -0.478703
 ---------------------------------------------------------------------

 SCF Done:  E(RHF) =  -669.534027949     A.U. after   15 cycles
 E2 =    -0.2092917863D+01 EUMP2 =    -0.67162694581260D+03

 The electronic state is 1-A.
 Alpha  occ. eigenvalues --  -20.60775 -20.60770 -15.85829 -11.31193 -11.27788
 Alpha  occ. eigenvalues --  -11.27777 -11.27547 -11.26791 -11.26775 -11.21903
 Alpha  occ. eigenvalues --  -11.21791 -11.21709 -11.21645 -11.21335 -11.21116
 Alpha  occ. eigenvalues --   -1.59851  -1.39403  -1.19396  -1.08785  -1.08702
 Alpha  occ. eigenvalues --   -1.04818  -1.03757  -0.96218  -0.95612  -0.87239
 Alpha  occ. eigenvalues --   -0.86196  -0.82456  -0.79839  -0.78530  -0.77488
 Alpha  occ. eigenvalues --   -0.72048  -0.71176  -0.70502  -0.65347  -0.65048
 Alpha  occ. eigenvalues --   -0.64806  -0.62163  -0.61171  -0.59575  -0.57827
 Alpha  occ. eigenvalues --   -0.55604  -0.55302  -0.53297  -0.52913  -0.52786
 Alpha  occ. eigenvalues --   -0.52545  -0.50119  -0.48808  -0.48800  -0.48150
 Alpha  occ. eigenvalues --   -0.46871  -0.46071  -0.45996  -0.44807  -0.44024
 Alpha  occ. eigenvalues --   -0.37379  -0.36268
 Alpha virt. eigenvalues --    0.05043   0.11157   0.16415   0.21105   0.22642
 Alpha virt. eigenvalues --    0.24129   0.26113   0.26756   0.27352   0.28093
 Alpha virt. eigenvalues --    0.28574   0.30395   0.31432   0.31649   0.32081

 Mulliken charges:
               1
     1  C   -0.170993
     2  C   -0.219000
     3  C   -0.170956
     4  C    0.157839
     5  C   -0.164339
     6  C   -0.221498
     7  H    0.225609
     8  H    0.223419
     9  H    0.275738
    10  H    0.277410
    11  H    0.224053
    12  N    0.487837
    13  O   -0.460008
    14  O   -0.460613
    15  C   -0.298213
    16  C   -0.299445
    17  C   -0.475747
    18  H    0.151575
    19  H    0.148594
    20  H    0.152743
    21  H    0.149547
    22  H    0.154729
    23  H    0.156394
    24  H    0.160564
    25  C   -0.297312
    26  C   -0.299402
    27  C   -0.480038
    28  H    0.150536
    29  H    0.143236
    30  H    0.154083
    31  H    0.150962
    32  H    0.153208
    33  H    0.154900
    34  H    0.164587
 Sum of Mulliken charges =  -0.00000

 Dipole moment (field-independent basis, Debye):
    X=              2.9163    Y=              4.2194    Z=              0.6027  Tot=              5.1644
 Quadrupole moment (field-independent basis, Debye-Ang):
   XX=           -113.8894   YY=            -92.1092   ZZ=            -91.8325
   XY=            -14.5065   XZ=              0.4533   YZ=             -1.5874

 Normal termination of Gaussian 16 at Thu May  6 03:13:06 2021.
