 Gaussian 16, Revision A.03,
 Gaussian 16:  EM64L-G16RevA.03 25-Dec-2016

 -------------
 #p 6-31g* mp2
 -------------

 ------------------------------------------------------
 Input file generated by CHIRIPA (05-May-2021 14:53:18)
 ------------------------------------------------------
 Symbolic Z-matrix:
 Charge =  0 Multiplicity = 1

                         Standard orientation:
 ---------------------------------------------------------------------
 Center     Atomic      Atomic             Coordinates (Angstroms)
 Number     Number       Type             X           Y           Z
 ---------------------------------------------------------------------
      1          6           0        5.593883    0.255816   -0.166791
      2          6           0        6.983726   -0.325695   -0.427881
      3          6           0        7.993376    0.732804   -0.872832
      4          1           0        5.232245    0.748769   -1.079567
      5          1           0        5.669584    1.037602    0.601633
      6          1           0        6.905210   -1.107110   -1.194589
      7          1           0        7.342016   -0.817487    0.485565
      8          1           0        8.101192    1.508163   -0.107460
      9          1           0        7.661904    1.216894   -1.797161
     10          1           0        8.980133    0.295354   -1.053962
     11          6           0        4.573481   -0.790112    0.278789
     12          6           0        3.183639   -0.208602    0.539879
     13          6           0        2.173988   -1.267100    0.984831
     14          1           0        4.497780   -1.571899   -0.489634
     15          1           0        4.935119   -1.283065    1.191565
     16          1           0        2.825348    0.283191   -0.373567
     17          1           0        3.262154    0.572814    1.306588
     18          1           0        2.505460   -1.751191    1.909159
     19          1           0        2.066172   -2.042460    0.219458
     20          1           0        1.187231   -0.829651    1.165960
     21          6           0       -2.231575    1.953892    0.497065
     22          6           0       -3.513411    2.344288    0.095806
     23          6           0       -4.485465    1.385975   -0.206341
     24          6           0       -4.139849    0.039992   -0.096033
     25          6           0       -2.871474   -0.380514    0.301072
     26          6           0       -1.915255    0.595133    0.598239
     27          1           0       -1.482610    2.705065    0.729847
     28          1           0       -3.761886    3.398799    0.016354
     29          1           0       -5.485540    1.660374   -0.519348
     30          1           0       -2.653467   -1.439286    0.371009
     31          1           0       -0.920575    0.289028    0.909615
     32          7           0       -5.160537   -0.983706   -0.413268
     33          8           0       -4.830986   -2.163116   -0.308265
     34          8           0       -6.270777   -0.587287   -0.760911
 ---------------------------------------------------------------------

 SCF Done:  E(RHF) =  -669.535470047     A.U. after   15 cycles
 E2 =    -0.2090686225D+01 EUMP2 =    -0.67162615627117D+03

 The electronic state is 1-A.
 Alpha  occ. eigenvalues --  -20.60733 -20.60728 -15.85787 -11.31151 -11.27723
 Alpha  occ. eigenvalues --  -11.27712 -11.27466 -11.26740 -11.26718 -11.22405
 Alpha  occ. eigenvalues --  -11.22053 -11.22007 -11.21986 -11.21869 -11.21418
 Alpha  occ. eigenvalues --   -1.59809  -1.39362  -1.19325  -1.09015  -1.08721
 Alpha  occ. eigenvalues --   -1.04729  -1.04147  -0.96602  -0.95555  -0.87621
 Alpha  occ. eigenvalues --   -0.86128  -0.82388  -0.80214  -0.78799  -0.77437
 Alpha  occ. eigenvalues --   -0.72005  -0.71132  -0.70433  -0.65636  -0.64977
 Alpha  occ. eigenvalues --   -0.64765  -0.62116  -0.61528  -0.59998  -0.58208
 Alpha  occ. eigenvalues --   -0.55863  -0.55234  -0.53419  -0.53079  -0.53057
 Alpha  occ. eigenvalues --   -0.52667  -0.50519  -0.48768  -0.48760  -0.48523
 Alpha  occ. eigenvalues --   -0.47229  -0.46348  -0.46249  -0.44768  -0.44399
 Alpha  occ. eigenvalues --   -0.37308  -0.36331
 Alpha virt. eigenvalues --    0.05101   0.11319   0.16591   0.19617   0.22483
 Alpha virt. eigenvalues --    0.23631   0.25677   0.26112   0.26962   0.28325
 Alpha virt. eigenvalues --    0.28439   0.29923   0.30850   0.31488   0.32256

 Mulliken charges:
               1
     1  C   -0.298696
     2  C   -0.300167
     3  C   -0.476011
     4  H    0.149965
     5  H    0.149401
     6  H    0.153079
     7  H    0.152742
     8  H    0.155230
     9  H    0.155500
    10  H    0.161688
    11  C   -0.299054
    12  C   -0.300190
    13  C   -0.480229
    14  H    0.151787
    15  H    0.151382
    16  H    0.151832
    17  H    0.151125
    18  H    0.160375
    19  H    0.160488
    20  H    0.150506
    21  C   -0.173225
    22  C   -0.218526
    23  C   -0.171162
    24  C    0.158695
    25  C   -0.174020
    26  C   -0.226424
    27  H    0.226288
    28  H    0.223241
    29  H    0.275473
    30  H    0.276071
    31  H    0.235743
    32  N    0.488128
    33  O   -0.460346
    34  O   -0.460690
 Sum of Mulliken charges =  -0.00000

 Dipole moment (field-independent basis, Debye):
    X=              3.8084    Y=              3.5689    Z=              1.0974  Tot=              5.3334
 Quadrupole moment (field-independent basis, Debye-Ang):
   XX=           -122.6017   YY=            -92.4226   ZZ=            -94.7738
   XY=            -18.3304   XZ=             -3.6780   YZ=             -0.8031

 Normal termination of Gaussian 16 at Thu May  6 02:50:27 2021.
