 Gaussian 16, Revision A.03,
 Gaussian 16:  EM64L-G16RevA.03 25-Dec-2016

 -------------
 #p 6-31g* mp2
 -------------

 ------------------------------------------------------
 Input file generated by CHIRIPA (05-May-2021 14:51:08)
 ------------------------------------------------------
 Symbolic Z-matrix:
 Charge =  0 Multiplicity = 1

                         Standard orientation:
 ---------------------------------------------------------------------
 Center     Atomic      Atomic             Coordinates (Angstroms)
 Number     Number       Type             X           Y           Z
 ---------------------------------------------------------------------
      1          6           0       -3.391545    0.710358   -0.540162
      2          6           0       -3.735012    1.857518    0.410647
      3          6           0       -3.705411    3.223372   -0.275911
      4          1           0       -2.395741    0.884664   -0.970206
      5          1           0       -4.099939    0.714986   -1.380133
      6          1           0       -3.027031    1.849880    1.249289
      7          1           0       -4.730034    1.680364    0.838625
      8          1           0       -4.424248    3.255437   -1.101044
      9          1           0       -2.711569    3.425916   -0.688046
     10          1           0       -3.953899    4.028988    0.422012
     11          6           0       -3.416968   -0.661467    0.131534
     12          6           0       -3.073500   -1.808627   -0.819276
     13          6           0       -3.103102   -3.174481   -0.132717
     14          1           0       -2.708573   -0.666095    0.971505
     15          1           0       -4.412771   -0.835773    0.561578
     16          1           0       -2.078479   -1.631473   -1.247253
     17          1           0       -3.781482   -1.800989   -1.657917
     18          1           0       -4.096943   -3.377025    0.279418
     19          1           0       -2.384264   -3.206546    0.692416
     20          1           0       -2.854613   -3.980097   -0.830640
     21          6           0        2.727772    0.241686    0.438782
     22          6           0        1.682769   -0.855437    0.644395
     23          6           0        0.334675   -0.307355    1.113482
     24          1           0        2.861716    0.792643    1.379765
     25          1           0        2.349449    0.965638   -0.296176
     26          1           0        2.063531   -1.577848    1.377714
     27          1           0        1.551437   -1.403968   -0.297136
     28          1           0       -0.070572    0.397817    0.380605
     29          1           0        0.444431    0.222948    2.064971
     30          1           0       -0.397474   -1.108622    1.254154
     31          6           0        4.080741   -0.290577   -0.030154
     32          6           0        5.125743    0.806545   -0.235767
     33          6           0        6.473836    0.258464   -0.704854
     34          1           0        4.459063   -1.014529    0.704803
     35          1           0        3.946796   -0.841533   -0.971138
     36          1           0        5.257075    1.355077    0.705764
     37          1           0        4.744981    1.528958   -0.969087
     38          1           0        6.364081   -0.271840   -1.656344
     39          1           0        6.879085   -0.446707    0.028024
     40          1           0        7.205987    1.059730   -0.845526
 ---------------------------------------------------------------------

 SCF Done:  E(RHF) =  -470.732750407     A.U. after   11 cycles
 E2 =    -0.1583736839D+01 EUMP2 =    -0.47231648724613D+03

 The electronic state is 1-A.
 Alpha  occ. eigenvalues --  -11.21681 -11.21636 -11.21548 -11.21540 -11.21460
 Alpha  occ. eigenvalues --  -11.21398 -11.21324 -11.21230 -11.21172 -11.21097
 Alpha  occ. eigenvalues --  -11.21067 -11.21035  -1.08494  -1.08360  -1.03599
 Alpha  occ. eigenvalues --   -1.03480  -0.96064  -0.95920  -0.87085  -0.86941
 Alpha  occ. eigenvalues --   -0.79675  -0.79533  -0.78300  -0.78176  -0.65196
 Alpha  occ. eigenvalues --   -0.64967  -0.61004  -0.60923  -0.59409  -0.59273
 Alpha  occ. eigenvalues --   -0.57651  -0.57539  -0.55429  -0.55141  -0.52773
 Alpha  occ. eigenvalues --   -0.52632  -0.52472  -0.52346  -0.49983  -0.49871
 Alpha  occ. eigenvalues --   -0.48009  -0.47830  -0.46712  -0.46558  -0.45861
 Alpha  occ. eigenvalues --   -0.45779  -0.45682  -0.45638  -0.43770  -0.43720
 Alpha virt. eigenvalues --    0.20233   0.22990   0.23179   0.24934   0.26080
 Alpha virt. eigenvalues --    0.26177   0.26997   0.27448   0.27870   0.29590
 Alpha virt. eigenvalues --    0.30319   0.31182   0.31477   0.31804   0.32280

 Mulliken charges:
               1
     1  C   -0.299339
     2  C   -0.300500
     3  C   -0.475515
     4  H    0.150081
     5  H    0.149186
     6  H    0.153228
     7  H    0.151793
     8  H    0.154997
     9  H    0.154624
    10  H    0.160135
    11  C   -0.302568
    12  C   -0.300742
    13  C   -0.476887
    14  H    0.156359
    15  H    0.148930
    16  H    0.152725
    17  H    0.151905
    18  H    0.155436
    19  H    0.154887
    20  H    0.160246
    21  C   -0.298707
    22  C   -0.299993
    23  C   -0.482536
    24  H    0.149842
    25  H    0.149403
    26  H    0.152339
    27  H    0.152253
    28  H    0.157916
    29  H    0.155434
    30  H    0.164483
    31  C   -0.298334
    32  C   -0.299681
    33  C   -0.475741
    34  H    0.149689
    35  H    0.149779
    36  H    0.152008
    37  H    0.151980
    38  H    0.155254
    39  H    0.155248
    40  H    0.160384
 Sum of Mulliken charges =  -0.00000

 Dipole moment (field-independent basis, Debye):
    X=              0.0391    Y=             -0.0017    Z=              0.0227  Tot=              0.0453
 Quadrupole moment (field-independent basis, Debye-Ang):
   XX=            -84.8610   YY=            -86.0227   ZZ=            -84.0002
   XY=              0.3387   XZ=              0.8311   YZ=              0.2208

 Normal termination of Gaussian 16 at Thu May  6 05:16:00 2021.
