 Gaussian 16, Revision A.03,
 Gaussian 16:  EM64L-G16RevA.03 25-Dec-2016

 -------------
 #p 6-31g* mp2
 -------------

 ------------------------------------------------------
 Input file generated by CHIRIPA (05-May-2021 14:51:11)
 ------------------------------------------------------
 Symbolic Z-matrix:
 Charge =  0 Multiplicity = 1

                         Standard orientation:
 ---------------------------------------------------------------------
 Center     Atomic      Atomic             Coordinates (Angstroms)
 Number     Number       Type             X           Y           Z
 ---------------------------------------------------------------------
      1          6           0       -2.546306   -0.562357   -0.188094
      2          6           0       -1.910016   -1.918147    0.120048
      3          6           0       -0.413373   -1.953100   -0.190809
      4          1           0       -2.384686   -0.320932   -1.247593
      5          1           0       -2.032113    0.216478    0.391921
      6          1           0       -2.426162   -2.694378   -0.459326
      7          1           0       -2.073336   -2.156460    1.178892
      8          1           0        0.120017   -1.199594    0.397686
      9          1           0       -0.234813   -1.740568   -1.249841
     10          1           0        0.021203   -2.931454    0.036843
     11          6           0       -4.042234   -0.511738    0.117465
     12          6           0       -4.678524    0.844052   -0.190677
     13          6           0       -6.175167    0.879004    0.120181
     14          1           0       -4.556427   -1.290573   -0.462549
     15          1           0       -4.203854   -0.753163    1.176964
     16          1           0       -4.515204    1.082365   -1.249520
     17          1           0       -4.162378    1.620283    0.388698
     18          1           0       -6.353727    0.666473    1.179212
     19          1           0       -6.708557    0.125499   -0.468314
     20          1           0       -6.609743    1.857359   -0.107472
     21          6           0        3.744981   -0.019368   -0.230568
     22          6           0        3.494059   -1.372978    0.434836
     23          6           0        4.403371   -2.475991   -0.107668
     24          1           0        3.597483   -0.117960   -1.314758
     25          1           0        4.796053    0.264837   -0.082679
     26          1           0        2.443428   -1.653896    0.286923
     27          1           0        3.641984   -1.271109    1.517590
     28          1           0        5.455923   -2.221707    0.053807
     29          1           0        4.250558   -2.606670   -1.183852
     30          1           0        4.207097   -3.435037    0.381787
     31          6           0        2.843559    1.093464    0.301196
     32          6           0        3.094481    2.447074   -0.364207
     33          6           0        2.185169    3.550086    0.178296
     34          1           0        1.792488    0.809258    0.153307
     35          1           0        2.991057    1.192054    1.385388
     36          1           0        2.946556    2.345203   -1.446961
     37          1           0        4.145111    2.727992   -0.216295
     38          1           0        2.337982    3.680765    1.254481
     39          1           0        1.132616    3.295802    0.016823
     40          1           0        2.381444    4.509132   -0.311159
 ---------------------------------------------------------------------

 SCF Done:  E(RHF) =  -470.732688391     A.U. after   11 cycles
 E2 =    -0.1583417638D+01 EUMP2 =    -0.47231610602883D+03

 The electronic state is 1-A.
 Alpha  occ. eigenvalues --  -11.21659 -11.21629 -11.21568 -11.21455 -11.21410
 Alpha  occ. eigenvalues --  -11.21392 -11.21341 -11.21270 -11.21152 -11.21091
 Alpha  occ. eigenvalues --  -11.21052 -11.20975  -1.08482  -1.08356  -1.03590
 Alpha  occ. eigenvalues --   -1.03448  -0.96044  -0.95913  -0.87080  -0.86921
 Alpha  occ. eigenvalues --   -0.79714  -0.79480  -0.78323  -0.78135  -0.65139
 Alpha  occ. eigenvalues --   -0.64971  -0.61009  -0.60838  -0.59421  -0.59268
 Alpha  occ. eigenvalues --   -0.57664  -0.57508  -0.55340  -0.55201  -0.52774
 Alpha  occ. eigenvalues --   -0.52621  -0.52454  -0.52333  -0.50022  -0.49846
 Alpha  occ. eigenvalues --   -0.48033  -0.47818  -0.46773  -0.46518  -0.45968
 Alpha  occ. eigenvalues --   -0.45778  -0.45692  -0.45286  -0.43811  -0.43703
 Alpha virt. eigenvalues --    0.21678   0.23004   0.24088   0.24155   0.25507
 Alpha virt. eigenvalues --    0.26754   0.27114   0.27535   0.27792   0.29490
 Alpha virt. eigenvalues --    0.30585   0.31442   0.31651   0.31852   0.32177

 Mulliken charges:
               1
     1  C   -0.298752
     2  C   -0.299940
     3  C   -0.482249
     4  H    0.149468
     5  H    0.149483
     6  H    0.152127
     7  H    0.152463
     8  H    0.160984
     9  H    0.155125
    10  H    0.161135
    11  C   -0.298321
    12  C   -0.299721
    13  C   -0.475743
    14  H    0.149680
    15  H    0.149871
    16  H    0.151915
    17  H    0.152094
    18  H    0.155275
    19  H    0.155205
    20  H    0.160398
    21  C   -0.297094
    22  C   -0.311138
    23  C   -0.474940
    24  H    0.149168
    25  H    0.148975
    26  H    0.167120
    27  H    0.150324
    28  H    0.154523
    29  H    0.154748
    30  H    0.159455
    31  C   -0.303004
    32  C   -0.299289
    33  C   -0.475782
    34  H    0.153260
    35  H    0.149052
    36  H    0.151959
    37  H    0.151958
    38  H    0.154922
    39  H    0.155088
    40  H    0.160201
 Sum of Mulliken charges =  -0.00000

 Dipole moment (field-independent basis, Debye):
    X=             -0.0648    Y=             -0.0193    Z=             -0.0019  Tot=              0.0677
 Quadrupole moment (field-independent basis, Debye-Ang):
   XX=            -86.0464   YY=            -85.5263   ZZ=            -83.4741
   XY=              0.9901   XZ=              1.0134   YZ=              0.1596

 Normal termination of Gaussian 16 at Thu May  6 00:39:35 2021.
