 Gaussian 16, Revision A.03,
 Gaussian 16:  EM64L-G16RevA.03 25-Dec-2016

 -------------
 #p 6-31g* mp2
 -------------

 ------------------------------------------------------
 Input file generated by CHIRIPA (05-May-2021 14:55:25)
 ------------------------------------------------------
 Symbolic Z-matrix:
 Charge =  0 Multiplicity = 1

                         Standard orientation:
 ---------------------------------------------------------------------
 Center     Atomic      Atomic             Coordinates (Angstroms)
 Number     Number       Type             X           Y           Z
 ---------------------------------------------------------------------
      1          6           0       -2.740888    2.586619    0.542321
      2          6           0       -1.909830    1.539974    0.955114
      3          6           0       -2.209019    0.218156    0.611847
      4          6           0       -3.352393   -0.022012   -0.148616
      5          6           0       -4.200070    0.999239   -0.574972
      6          6           0       -3.881345    2.313393   -0.220060
      7          1           0       -2.500882    3.610462    0.813502
      8          1           0       -1.023478    1.749201    1.547271
      9          1           0       -1.583001   -0.611133    0.918111
     10          1           0       -5.076702    0.759433   -1.164402
     11          1           0       -4.528575    3.124238   -0.542036
     12          7           0       -3.679472   -1.417305   -0.518181
     13          8           0       -4.692635   -1.602520   -1.188876
     14          8           0       -2.916481   -2.299299   -0.130152
     15          6           0        4.928150   -0.366969   -0.161074
     16          6           0        5.606235    0.936437   -0.584532
     17          6           0        7.018173    0.718415   -1.129225
     18          1           0        5.544427   -0.862531    0.601530
     19          1           0        4.888779   -1.048275   -1.022276
     20          1           0        5.643074    1.615610    0.276853
     21          1           0        4.988177    1.429048   -1.346078
     22          1           0        6.996183    0.061203   -2.004547
     23          1           0        7.654802    0.248825   -0.372395
     24          1           0        7.484335    1.663146   -1.425934
     25          6           0        3.515976   -0.165379    0.385604
     26          6           0        2.837890   -1.468786    0.809061
     27          6           0        1.425952   -1.250764    1.353754
     28          1           0        3.555348    0.515926    1.246804
     29          1           0        2.899699    0.330182   -0.377002
     30          1           0        3.455949   -1.961397    1.570607
     31          1           0        2.801053   -2.147959   -0.052324
     32          1           0        0.789324   -0.781174    0.596925
     33          1           0        1.447943   -0.593552    2.229077
     34          1           0        0.959790   -2.195495    1.650463
 ---------------------------------------------------------------------

 SCF Done:  E(RHF) =  -669.535602829     A.U. after   15 cycles
 E2 =    -0.2091253257D+01 EUMP2 =    -0.67162685608637D+03

 The electronic state is 1-A.
 Alpha  occ. eigenvalues --  -20.60717 -20.60712 -15.85769 -11.31114 -11.27702
 Alpha  occ. eigenvalues --  -11.27627 -11.27443 -11.26719 -11.26687 -11.21935
 Alpha  occ. eigenvalues --  -11.21841 -11.21728 -11.21615 -11.21612 -11.21254
 Alpha  occ. eigenvalues --   -1.59793  -1.39346  -1.19295  -1.08729  -1.08696
 Alpha  occ. eigenvalues --   -1.04696  -1.03845  -0.96322  -0.95529  -0.87352
 Alpha  occ. eigenvalues --   -0.86091  -0.82362  -0.79927  -0.78542  -0.77402
 Alpha  occ. eigenvalues --   -0.71989  -0.71116  -0.70411  -0.65359  -0.64947
 Alpha  occ. eigenvalues --   -0.64698  -0.62085  -0.61214  -0.59663  -0.57911
 Alpha  occ. eigenvalues --   -0.55638  -0.55190  -0.53072  -0.53028  -0.52812
 Alpha  occ. eigenvalues --   -0.52638  -0.50249  -0.48747  -0.48744  -0.48229
 Alpha  occ. eigenvalues --   -0.46930  -0.46087  -0.45995  -0.44755  -0.44087
 Alpha  occ. eigenvalues --   -0.37285  -0.36291
 Alpha virt. eigenvalues --    0.05092   0.11330   0.16569   0.20809   0.22645
 Alpha virt. eigenvalues --    0.23982   0.25746   0.26330   0.27267   0.28016
 Alpha virt. eigenvalues --    0.29325   0.30317   0.31162   0.31598   0.32079

 Mulliken charges:
               1
     1  C   -0.170763
     2  C   -0.221286
     3  C   -0.178232
     4  C    0.158710
     5  C   -0.170677
     6  C   -0.218818
     7  H    0.225323
     8  H    0.224649
     9  H    0.285927
    10  H    0.275310
    11  H    0.223158
    12  N    0.487601
    13  O   -0.460761
    14  O   -0.460346
    15  C   -0.298681
    16  C   -0.299766
    17  C   -0.475892
    18  H    0.150544
    19  H    0.151672
    20  H    0.150873
    21  H    0.151737
    22  H    0.156292
    23  H    0.155676
    24  H    0.160392
    25  C   -0.299073
    26  C   -0.299618
    27  C   -0.484230
    28  H    0.146843
    29  H    0.149333
    30  H    0.154096
    31  H    0.157518
    32  H    0.152103
    33  H    0.150172
    34  H    0.170219
 Sum of Mulliken charges =  -0.00000

 Dipole moment (field-independent basis, Debye):
    X=              1.2800    Y=              4.8245    Z=              1.2821  Tot=              5.1534
 Quadrupole moment (field-independent basis, Debye-Ang):
   XX=           -100.0982   YY=            -94.8122   ZZ=            -93.9767
   XY=            -18.3882   XZ=             -1.5811   YZ=             -1.5917

 Normal termination of Gaussian 16 at Thu May  6 17:44:05 2021.
