 Gaussian 16, Revision A.03,
 Gaussian 16:  EM64L-G16RevA.03 25-Dec-2016

 -------------
 #p 6-31g* mp2
 -------------

 ------------------------------------------------------
 Input file generated by CHIRIPA (05-May-2021 14:57:21)
 ------------------------------------------------------
 Symbolic Z-matrix:
 Charge =  0 Multiplicity = 1

                         Standard orientation:
 ---------------------------------------------------------------------
 Center     Atomic      Atomic             Coordinates (Angstroms)
 Number     Number       Type             X           Y           Z
 ---------------------------------------------------------------------
      1          6           0       -4.772578   -1.684401    0.636862
      2          6           0       -5.051429   -0.928585   -0.506600
      3          6           0       -4.268723    0.183498   -0.830931
      4          6           0       -3.210181    0.512774    0.014265
      5          6           0       -2.907146   -0.220407    1.160522
      6          6           0       -3.703212   -1.328528    1.465313
      7          1           0       -5.385791   -2.546755    0.881221
      8          1           0       -5.881275   -1.202623   -1.151816
      9          1           0       -4.462357    0.786146   -1.709987
     10          1           0       -2.073195    0.077413    1.784419
     11          1           0       -3.484320   -1.913668    2.353988
     12          7           0       -2.374494    1.687989   -0.318747
     13          8           0       -1.447590    1.957274    0.442155
     14          8           0       -2.662211    2.317585   -1.334357
     15          6           0        5.608348    0.669238    0.459599
     16          6           0        5.516960   -0.505538   -0.294104
     17          6           0        4.269796   -1.062077   -0.593092
     18          6           0        3.129382   -0.414632   -0.120267
     19          6           0        3.187688    0.756925    0.632956
     20          6           0        4.445471    1.295616    0.919913
     21          1           0        6.581300    1.094638    0.687187
     22          1           0        6.418383   -0.994153   -0.652903
     23          1           0        4.170152   -1.970580   -1.174565
     24          1           0        2.271378    1.221226    0.976782
     25          1           0        4.513415    2.208064    1.505461
     26          7           0        1.803445   -0.994367   -0.430424
     27          8           0        0.813706   -0.404739   -0.002178
     28          8           0        1.779020   -2.027414   -1.095896
 ---------------------------------------------------------------------

 SCF Done:  E(RHF) =  -868.338760248     A.U. after   16 cycles
 E2 =    -0.2599610552D+01 EUMP2 =    -0.87093837080010D+03

 The electronic state is 1-A.
 Alpha  occ. eigenvalues --  -20.60417 -20.60382 -20.59802 -20.59740 -15.85442
 Alpha  occ. eigenvalues --  -15.84815 -11.30763 -11.30118 -11.27383 -11.27257
 Alpha  occ. eigenvalues --  -11.27116 -11.26761 -11.26673 -11.26530 -11.26391
 Alpha  occ. eigenvalues --  -11.26320 -11.25787 -11.25732  -1.59482  -1.58820
 Alpha  occ. eigenvalues --   -1.39029  -1.38379  -1.18947  -1.18311  -1.08362
 Alpha  occ. eigenvalues --   -1.07731  -1.04339  -1.03729  -0.95198  -0.94575
 Alpha  occ. eigenvalues --   -0.85741  -0.85134  -0.82027  -0.81423  -0.77068
 Alpha  occ. eigenvalues --   -0.76447  -0.71708  -0.71059  -0.70804  -0.70102
 Alpha  occ. eigenvalues --   -0.70018  -0.69470  -0.64601  -0.64347  -0.63993
 Alpha  occ. eigenvalues --   -0.63770  -0.61671  -0.61087  -0.54866  -0.54285
 Alpha  occ. eigenvalues --   -0.52683  -0.52428  -0.52035  -0.51850  -0.48454
 Alpha  occ. eigenvalues --   -0.48416  -0.47820  -0.47794  -0.44475  -0.43749
 Alpha  occ. eigenvalues --   -0.36948  -0.36300  -0.35943  -0.35308
 Alpha virt. eigenvalues --    0.05451   0.06110   0.11710   0.12341   0.16931
 Alpha virt. eigenvalues --    0.17573   0.21820   0.22335   0.27752   0.28188
 Alpha virt. eigenvalues --    0.28657   0.29298   0.31317   0.31830   0.32905

 Mulliken charges:
               1
     1  C   -0.170399
     2  C   -0.219016
     3  C   -0.170757
     4  C    0.161511
     5  C   -0.158765
     6  C   -0.218950
     7  H    0.221967
     8  H    0.219653
     9  H    0.272659
    10  H    0.276879
    11  H    0.220250
    12  N    0.490922
    13  O   -0.459289
    14  O   -0.466244
    15  C   -0.170764
    16  C   -0.219118
    17  C   -0.171388
    18  C    0.156740
    19  C   -0.171843
    20  C   -0.219313
    21  H    0.224340
    22  H    0.221663
    23  H    0.273769
    24  H    0.285937
    25  H    0.224231
    26  N    0.488912
    27  O   -0.458799
    28  O   -0.464787
 Sum of Mulliken charges =  -0.00000

 Dipole moment (field-independent basis, Debye):
    X=              1.8500    Y=             -2.0041    Z=              2.3483  Tot=              3.5991
 Quadrupole moment (field-independent basis, Debye-Ang):
   XX=            -56.7581   YY=           -109.3146   ZZ=           -101.5444
   XY=             14.4407   XZ=              0.4610   YZ=              1.3145

 Normal termination of Gaussian 16 at Thu May  6 08:05:06 2021.
