 Gaussian 16, Revision A.03,
 Gaussian 16:  EM64L-G16RevA.03 25-Dec-2016

 -------------
 #p 6-31g* mp2
 -------------

 ------------------------------------------------------
 Input file generated by CHIRIPA (05-May-2021 14:55:22)
 ------------------------------------------------------
 Symbolic Z-matrix:
 Charge =  0 Multiplicity = 1

                         Standard orientation:
 ---------------------------------------------------------------------
 Center     Atomic      Atomic             Coordinates (Angstroms)
 Number     Number       Type             X           Y           Z
 ---------------------------------------------------------------------
      1          6           0       -3.029626   -2.277880   -0.169347
      2          6           0       -4.372617   -1.886864   -0.167507
      3          6           0       -4.718147   -0.534091   -0.095665
      4          6           0       -3.690459    0.405249   -0.026481
      5          6           0       -2.343220    0.047145   -0.026381
      6          6           0       -2.020992   -1.311331   -0.098902
      7          1           0       -2.770260   -3.330962   -0.225419
      8          1           0       -5.158040   -2.635311   -0.222122
      9          1           0       -5.749743   -0.203608   -0.092534
     10          1           0       -1.582454    0.816288    0.029039
     11          1           0       -0.977158   -1.612088   -0.100152
     12          7           0       -4.043922    1.840388    0.049934
     13          8           0       -3.119798    2.648483    0.110060
     14          8           0       -5.238397    2.129980    0.048254
     15          6           0        5.294655   -0.000136   -0.296777
     16          6           0        5.915647    1.259707    0.307498
     17          6           0        7.206287    1.678910   -0.396997
     18          1           0        6.023864   -0.820381   -0.247813
     19          1           0        5.091705    0.174468   -1.362479
     20          1           0        6.116089    1.083252    1.372064
     21          1           0        5.184806    2.076999    0.257263
     22          1           0        7.018492    1.881995   -1.456284
     23          1           0        7.955066    0.882603   -0.335150
     24          1           0        7.633238    2.581607    0.051012
     25          6           0        4.003786   -0.431788    0.396811
     26          6           0        3.382794   -1.691632   -0.207465
     27          6           0        2.092154   -2.110834    0.497030
     28          1           0        4.206736   -0.606392    1.462512
     29          1           0        3.274577    0.388457    0.347847
     30          1           0        4.113634   -2.508923   -0.157230
     31          1           0        3.182352   -1.515176   -1.272031
     32          1           0        1.343375   -1.314527    0.435183
     33          1           0        2.279949   -2.313920    1.556318
     34          1           0        1.665204   -3.013531    0.049022
 ---------------------------------------------------------------------

 SCF Done:  E(RHF) =  -669.535534294     A.U. after   15 cycles
 E2 =    -0.2090844425D+01 EUMP2 =    -0.67162637871909D+03

 The electronic state is 1-A.
 Alpha  occ. eigenvalues --  -20.60721 -20.60716 -15.85773 -11.31124 -11.27688
 Alpha  occ. eigenvalues --  -11.27678 -11.27416 -11.26706 -11.26633 -11.22347
 Alpha  occ. eigenvalues --  -11.22172 -11.21921 -11.21867 -11.21751 -11.21269
 Alpha  occ. eigenvalues --   -1.59797  -1.39351  -1.19288  -1.08935  -1.08686
 Alpha  occ. eigenvalues --   -1.04690  -1.04081  -0.96557  -0.95526  -0.87588
 Alpha  occ. eigenvalues --   -0.86084  -0.82360  -0.80157  -0.78698  -0.77409
 Alpha  occ. eigenvalues --   -0.71992  -0.71119  -0.70401  -0.65576  -0.64940
 Alpha  occ. eigenvalues --   -0.64701  -0.62096  -0.61434  -0.59952  -0.58133
 Alpha  occ. eigenvalues --   -0.55872  -0.55180  -0.53319  -0.53033  -0.53005
 Alpha  occ. eigenvalues --   -0.52692  -0.50474  -0.48750  -0.48748  -0.48458
 Alpha  occ. eigenvalues --   -0.47162  -0.46253  -0.46144  -0.44760  -0.44317
 Alpha  occ. eigenvalues --   -0.37269  -0.36291
 Alpha virt. eigenvalues --    0.05121   0.11359   0.16616   0.20229   0.22583
 Alpha virt. eigenvalues --    0.23816   0.25560   0.26394   0.27038   0.28078
 Alpha virt. eigenvalues --    0.28894   0.30462   0.30866   0.31285   0.32199

 Mulliken charges:
               1
     1  C   -0.172529
     2  C   -0.218332
     3  C   -0.171456
     4  C    0.158762
     5  C   -0.173405
     6  C   -0.225921
     7  H    0.225797
     8  H    0.223044
     9  H    0.275304
    10  H    0.274407
    11  H    0.235319
    12  N    0.488122
    13  O   -0.460736
    14  O   -0.460659
    15  C   -0.298877
    16  C   -0.300336
    17  C   -0.476066
    18  H    0.150207
    19  H    0.150417
    20  H    0.152504
    21  H    0.153668
    22  H    0.155819
    23  H    0.155170
    24  H    0.161808
    25  C   -0.299309
    26  C   -0.299518
    27  C   -0.480953
    28  H    0.151102
    29  H    0.150442
    30  H    0.155079
    31  H    0.153284
    32  H    0.149184
    33  H    0.161242
    34  H    0.157416
 Sum of Mulliken charges =  -0.00000

 Dipole moment (field-independent basis, Debye):
    X=              1.4816    Y=             -5.0683    Z=             -0.2511  Tot=              5.2864
 Quadrupole moment (field-independent basis, Debye-Ang):
   XX=            -99.0515   YY=            -98.9965   ZZ=            -95.3679
   XY=             19.9699   XZ=              1.9202   YZ=             -0.1807

 Normal termination of Gaussian 16 at Thu May  6 12:34:57 2021.
