 Gaussian 16, Revision A.03,
 Gaussian 16:  EM64L-G16RevA.03 25-Dec-2016

 -------------
 #p 6-31g* mp2
 -------------

 ------------------------------------------------------
 Input file generated by CHIRIPA (05-May-2021 14:53:17)
 ------------------------------------------------------
 Symbolic Z-matrix:
 Charge =  0 Multiplicity = 1

                         Standard orientation:
 ---------------------------------------------------------------------
 Center     Atomic      Atomic             Coordinates (Angstroms)
 Number     Number       Type             X           Y           Z
 ---------------------------------------------------------------------
      1          6           0        3.784248   -0.246052   -0.197216
      2          6           0        3.350791   -1.684226    0.088710
      3          6           0        4.442532   -2.705529   -0.231969
      4          1           0        4.070339   -0.159356   -1.254373
      5          1           0        4.684647   -0.018237    0.389961
      6          1           0        2.450675   -1.908809   -0.497780
      7          1           0        3.065516   -1.767462    1.145264
      8          1           0        5.340261   -2.509504    0.363227
      9          1           0        4.721927   -2.651654   -1.289152
     10          1           0        4.111431   -3.726991   -0.020194
     11          6           0        2.703526    0.786505    0.118371
     12          6           0        3.136983    2.224680   -0.167555
     13          6           0        2.045242    3.245983    0.153124
     14          1           0        1.803127    0.558690   -0.468805
     15          1           0        2.417435    0.699810    1.175528
     16          1           0        3.422258    2.307916   -1.224109
     17          1           0        4.037099    2.449262    0.418935
     18          1           0        1.765847    3.192108    1.210308
     19          1           0        1.147513    3.049958   -0.442071
     20          1           0        2.376343    4.267445   -0.058650
     21          6           0       -2.206409   -0.299709    2.530912
     22          6           0       -1.098677   -0.339960    1.677783
     23          6           0       -1.268471   -0.291513    0.290927
     24          6           0       -2.565985   -0.202550   -0.210904
     25          6           0       -3.689624   -0.160567    0.613089
     26          6           0       -3.496073   -0.210299    1.996785
     27          1           0       -2.065281   -0.337842    3.607029
     28          1           0       -0.095942   -0.409386    2.089788
     29          1           0       -0.428529   -0.321017   -0.392482
     30          1           0       -4.676930   -0.091246    0.172819
     31          1           0       -4.358200   -0.178866    2.656932
     32          7           0       -2.758313   -0.150582   -1.677432
     33          8           0       -3.911783   -0.072302   -2.094585
     34          8           0       -1.751949   -0.189114   -2.381977
 ---------------------------------------------------------------------

 SCF Done:  E(RHF) =  -669.535654066     A.U. after   15 cycles
 E2 =    -0.2092106941D+01 EUMP2 =    -0.67162776100637D+03

 The electronic state is 1-A.
 Alpha  occ. eigenvalues --  -20.60745 -20.60738 -15.85794 -11.31117 -11.27692
 Alpha  occ. eigenvalues --  -11.27652 -11.27427 -11.26708 -11.26666 -11.22135
 Alpha  occ. eigenvalues --  -11.22095 -11.21980 -11.21848 -11.21418 -11.21355
 Alpha  occ. eigenvalues --   -1.59819  -1.39374  -1.19289  -1.08947  -1.08695
 Alpha  occ. eigenvalues --   -1.04683  -1.03946  -0.96395  -0.95536  -0.87407
 Alpha  occ. eigenvalues --   -0.86089  -0.82369  -0.80024  -0.78837  -0.77398
 Alpha  occ. eigenvalues --   -0.72015  -0.71140  -0.70413  -0.65598  -0.64941
 Alpha  occ. eigenvalues --   -0.64665  -0.62050  -0.61326  -0.59765  -0.58014
 Alpha  occ. eigenvalues --   -0.55679  -0.55199  -0.53055  -0.53022  -0.52840
 Alpha  occ. eigenvalues --   -0.52764  -0.50322  -0.48774  -0.48769  -0.48334
 Alpha  occ. eigenvalues --   -0.47051  -0.46312  -0.46232  -0.44788  -0.44239
 Alpha  occ. eigenvalues --   -0.37277  -0.36277
 Alpha virt. eigenvalues --    0.05096   0.11339   0.16584   0.19481   0.22966
 Alpha virt. eigenvalues --    0.23894   0.23982   0.24852   0.27591   0.28466
 Alpha virt. eigenvalues --    0.30737   0.30945   0.31047   0.31584   0.31706

 Mulliken charges:
               1
     1  C   -0.297634
     2  C   -0.301958
     3  C   -0.475846
     4  H    0.155255
     5  H    0.151081
     6  H    0.153100
     7  H    0.146109
     8  H    0.155717
     9  H    0.158821
    10  H    0.161598
    11  C   -0.306452
    12  C   -0.299200
    13  C   -0.477386
    14  H    0.151714
    15  H    0.142571
    16  H    0.157151
    17  H    0.152760
    18  H    0.151767
    19  H    0.159763
    20  H    0.162977
    21  C   -0.171032
    22  C   -0.222222
    23  C   -0.178470
    24  C    0.159703
    25  C   -0.170604
    26  C   -0.218658
    27  H    0.225285
    28  H    0.226557
    29  H    0.283360
    30  H    0.275279
    31  H    0.223114
    32  N    0.487554
    33  O   -0.460371
    34  O   -0.461401
 Sum of Mulliken charges =  -0.00000

 Dipole moment (field-independent basis, Debye):
    X=              0.8475    Y=             -0.1375    Z=              5.0638  Tot=              5.1360
 Quadrupole moment (field-independent basis, Debye-Ang):
   XX=            -93.0378   YY=            -95.9444   ZZ=            -96.6278
   XY=              0.6579   XZ=            -14.2293   YZ=             -1.1173

 Normal termination of Gaussian 16 at Wed May  5 22:00:00 2021.
