 Gaussian 16, Revision A.03,
 Gaussian 16:  EM64L-G16RevA.03 25-Dec-2016

 -------------
 #p 6-31g* mp2
 -------------

 ------------------------------------------------------
 Input file generated by CHIRIPA (05-May-2021 14:55:22)
 ------------------------------------------------------
 Symbolic Z-matrix:
 Charge =  0 Multiplicity = 1

                         Standard orientation:
 ---------------------------------------------------------------------
 Center     Atomic      Atomic             Coordinates (Angstroms)
 Number     Number       Type             X           Y           Z
 ---------------------------------------------------------------------
      1          6           0       -4.633459    1.068239    0.283940
      2          6           0       -4.476186    0.248555   -0.838516
      3          6           0       -3.322702   -0.525444   -0.996461
      4          6           0       -2.342134   -0.455188   -0.008108
      5          6           0       -2.469550    0.351731    1.121466
      6          6           0       -3.631405    1.117124    1.258630
      7          1           0       -5.532764    1.666157    0.398563
      8          1           0       -5.252748    0.208597   -1.597068
      9          1           0       -3.175113   -1.168620   -1.855507
     10          1           0       -1.678086    0.370561    1.860822
     11          1           0       -3.750837    1.752799    2.131383
     12          7           0       -1.116561   -1.270031   -0.164317
     13          8           0       -0.267327   -1.190403    0.720611
     14          8           0       -1.028397   -1.972904   -1.168725
     15          6           0        2.982274   -0.283205    0.140772
     16          6           0        4.051132   -1.376504    0.125786
     17          6           0        3.487149   -2.759146    0.454449
     18          1           0        2.504213   -0.260190    1.129648
     19          1           0        2.194781   -0.540101   -0.581207
     20          1           0        4.837065   -1.116930    0.846581
     21          1           0        4.526835   -1.396790   -0.863108
     22          1           0        2.717514   -3.043519   -0.270391
     23          1           0        3.029506   -2.762069    1.449012
     24          1           0        4.268272   -3.525595    0.438171
     25          6           0        3.530682    1.104688   -0.185923
     26          6           0        2.461824    2.197987   -0.170937
     27          6           0        3.025806    3.580629   -0.499599
     28          1           0        4.318174    1.361584    0.536057
     29          1           0        4.008742    1.081673   -1.174798
     30          1           0        1.986121    2.218273    0.817957
     31          1           0        1.675890    1.938413   -0.891731
     32          1           0        3.483449    3.583553   -1.494161
     33          1           0        3.795443    3.865003    0.225241
     34          1           0        2.244684    4.347077   -0.483321
 ---------------------------------------------------------------------

 SCF Done:  E(RHF) =  -669.535666823     A.U. after   15 cycles
 E2 =    -0.2092163378D+01 EUMP2 =    -0.67162783020057D+03

 The electronic state is 1-A.
 Alpha  occ. eigenvalues --  -20.60969 -20.60937 -15.85973 -11.31298 -11.27861
 Alpha  occ. eigenvalues --  -11.27857 -11.27597 -11.26866 -11.26856 -11.20906
 Alpha  occ. eigenvalues --  -11.20573 -11.20351 -11.20233 -11.19732 -11.19482
 Alpha  occ. eigenvalues --   -1.60014  -1.39570  -1.19465  -1.08871  -1.07266
 Alpha  occ. eigenvalues --   -1.04861  -1.02436  -0.95715  -0.94861  -0.86262
 Alpha  occ. eigenvalues --   -0.85877  -0.82553  -0.78569  -0.77613  -0.76951
 Alpha  occ. eigenvalues --   -0.72186  -0.71324  -0.70575  -0.65121  -0.64865
 Alpha  occ. eigenvalues --   -0.63917  -0.62209  -0.59850  -0.58300  -0.56452
 Alpha  occ. eigenvalues --   -0.55366  -0.54146  -0.53194  -0.52953  -0.51642
 Alpha  occ. eigenvalues --   -0.51259  -0.49020  -0.48964  -0.48776  -0.46843
 Alpha  occ. eigenvalues --   -0.45627  -0.45196  -0.44406  -0.44169  -0.42649
 Alpha  occ. eigenvalues --   -0.37441  -0.36461
 Alpha virt. eigenvalues --    0.04911   0.11192   0.16406   0.21298   0.23839
 Alpha virt. eigenvalues --    0.25441   0.27133   0.27645   0.27988   0.28833
 Alpha virt. eigenvalues --    0.29086   0.31004   0.32374   0.32468   0.32596

 Mulliken charges:
               1
     1  C   -0.170561
     2  C   -0.218572
     3  C   -0.170814
     4  C    0.158349
     5  C   -0.170231
     6  C   -0.218521
     7  H    0.226022
     8  H    0.223804
     9  H    0.275735
    10  H    0.275535
    11  H    0.223849
    12  N    0.489089
    13  O   -0.458168
    14  O   -0.461119
    15  C   -0.295251
    16  C   -0.300275
    17  C   -0.473832
    18  H    0.155228
    19  H    0.161365
    20  H    0.144535
    21  H    0.146510
    22  H    0.167013
    23  H    0.156521
    24  H    0.150828
    25  C   -0.298557
    26  C   -0.296577
    27  C   -0.474668
    28  H    0.144727
    29  H    0.146149
    30  H    0.148530
    31  H    0.149602
    32  H    0.154568
    33  H    0.153891
    34  H    0.155298
 Sum of Mulliken charges =  -0.00000

 Dipole moment (field-independent basis, Debye):
    X=             -4.6525    Y=              2.7073    Z=              0.5732  Tot=              5.4133
 Quadrupole moment (field-independent basis, Debye-Ang):
   XX=            -75.9201   YY=            -99.1846   ZZ=            -90.3008
   XY=             -4.6580   XZ=              0.6971   YZ=              2.0832

 Normal termination of Gaussian 16 at Thu May  6 17:33:01 2021.
