 Gaussian 16, Revision A.03,
 Gaussian 16:  EM64L-G16RevA.03 25-Dec-2016

 -------------
 #p 6-31g* mp2
 -------------

 ------------------------------------------------------
 Input file generated by CHIRIPA (05-May-2021 14:51:10)
 ------------------------------------------------------
 Symbolic Z-matrix:
 Charge =  0 Multiplicity = 1

                         Standard orientation:
 ---------------------------------------------------------------------
 Center     Atomic      Atomic             Coordinates (Angstroms)
 Number     Number       Type             X           Y           Z
 ---------------------------------------------------------------------
      1          6           0        3.940163   -0.242195   -0.425732
      2          6           0        5.357118   -0.135987    0.139019
      3          6           0        6.355193    0.430696   -0.871184
      4          1           0        3.956345   -0.876421   -1.322638
      5          1           0        3.607630    0.752822   -0.752473
      6          1           0        5.686353   -1.130667    0.465870
      7          1           0        5.337529    0.497904    1.034795
      8          1           0        6.053471    1.433754   -1.189680
      9          1           0        6.404278   -0.204071   -1.761837
     10          1           0        7.361719    0.497973   -0.446638
     11          6           0        2.930956   -0.807031    0.572361
     12          6           0        1.514002   -0.913238    0.007609
     13          6           0        0.515927   -1.479921    1.017813
     14          1           0        3.263489   -1.802047    0.899101
     15          1           0        2.914775   -0.172804    1.469267
     16          1           0        1.533591   -1.547130   -0.888166
     17          1           0        1.184766    0.081442   -0.319241
     18          1           0        0.466842   -0.845154    1.908466
     19          1           0        0.817648   -2.482979    1.336308
     20          1           0       -0.490599   -1.547198    0.593266
     21          6           0       -3.856574    0.062130   -0.511822
     22          6           0       -5.156032   -0.389313    0.155707
     23          6           0       -5.987394   -1.314037   -0.733965
     24          1           0       -4.094577    0.574164   -1.454224
     25          1           0       -3.262697   -0.823105   -0.778401
     26          1           0       -5.746654    0.496556    0.422195
     27          1           0       -4.914917   -0.900164    1.096723
     28          1           0       -5.420274   -2.214948   -0.989573
     29          1           0       -6.256736   -0.810293   -1.667933
     30          1           0       -6.911849   -1.624644   -0.237210
     31          6           0       -3.014546    0.987095    0.365194
     32          6           0       -1.715088    1.438538   -0.302335
     33          6           0       -0.883726    2.363263    0.587335
     34          1           0       -3.608423    1.872330    0.631772
     35          1           0       -2.776543    0.475061    1.307595
     36          1           0       -1.956202    1.949388   -1.243352
     37          1           0       -1.124466    0.552668   -0.568824
     38          1           0       -0.614384    1.859518    1.521304
     39          1           0       -1.450846    3.264174    0.842943
     40          1           0        0.040730    2.673869    0.090581
 ---------------------------------------------------------------------

 SCF Done:  E(RHF) =  -470.732446554     A.U. after   11 cycles
 E2 =    -0.1584327615D+01 EUMP2 =    -0.47231677416943D+03

 The electronic state is 1-A.
 Alpha  occ. eigenvalues --  -11.21608 -11.21603 -11.21594 -11.21521 -11.21418
 Alpha  occ. eigenvalues --  -11.21395 -11.21359 -11.21326 -11.21141 -11.21090
 Alpha  occ. eigenvalues --  -11.21076 -11.21064  -1.08479  -1.08388  -1.03636
 Alpha  occ. eigenvalues --   -1.03447  -0.96044  -0.95950  -0.87042  -0.86979
 Alpha  occ. eigenvalues --   -0.79667  -0.79548  -0.78318  -0.78174  -0.65280
 Alpha  occ. eigenvalues --   -0.64922  -0.61338  -0.60628  -0.59444  -0.59229
 Alpha  occ. eigenvalues --   -0.57693  -0.57497  -0.55449  -0.55082  -0.52735
 Alpha  occ. eigenvalues --   -0.52649  -0.52460  -0.52394  -0.49965  -0.49889
 Alpha  occ. eigenvalues --   -0.47953  -0.47877  -0.46843  -0.46458  -0.45871
 Alpha  occ. eigenvalues --   -0.45789  -0.45734  -0.45478  -0.43810  -0.43773
 Alpha virt. eigenvalues --    0.20101   0.22617   0.23676   0.25227   0.25842
 Alpha virt. eigenvalues --    0.26180   0.26321   0.27609   0.28041   0.29401
 Alpha virt. eigenvalues --    0.30697   0.31152   0.31963   0.32325   0.32612

 Mulliken charges:
               1
     1  C   -0.298343
     2  C   -0.299695
     3  C   -0.475725
     4  H    0.149663
     5  H    0.149441
     6  H    0.151938
     7  H    0.152075
     8  H    0.155213
     9  H    0.155172
    10  H    0.160299
    11  C   -0.297771
    12  C   -0.306459
    13  C   -0.479465
    14  H    0.149397
    15  H    0.149894
    16  H    0.151720
    17  H    0.159561
    18  H    0.155929
    19  H    0.156021
    20  H    0.161515
    21  C   -0.299309
    22  C   -0.299624
    23  C   -0.475715
    24  H    0.149845
    25  H    0.149222
    26  H    0.151991
    27  H    0.152161
    28  H    0.155151
    29  H    0.155145
    30  H    0.160275
    31  C   -0.298771
    32  C   -0.307060
    33  C   -0.477542
    34  H    0.149402
    35  H    0.150726
    36  H    0.151519
    37  H    0.161103
    38  H    0.156516
    39  H    0.155658
    40  H    0.158925
 Sum of Mulliken charges =  -0.00000

 Dipole moment (field-independent basis, Debye):
    X=              0.0148    Y=             -0.0048    Z=              0.0032  Tot=              0.0159
 Quadrupole moment (field-independent basis, Debye-Ang):
   XX=            -85.7638   YY=            -83.8984   ZZ=            -85.1873
   XY=             -1.3828   XZ=              0.2534   YZ=             -0.1031

 Normal termination of Gaussian 16 at Wed May  5 15:10:25 2021.
