 Gaussian 16, Revision A.03,
 Gaussian 16:  EM64L-G16RevA.03 25-Dec-2016

 -------------
 #p 6-31g* mp2
 -------------

 ------------------------------------------------------
 Input file generated by CHIRIPA (05-May-2021 14:53:14)
 ------------------------------------------------------
 Symbolic Z-matrix:
 Charge =  0 Multiplicity = 1

                         Standard orientation:
 ---------------------------------------------------------------------
 Center     Atomic      Atomic             Coordinates (Angstroms)
 Number     Number       Type             X           Y           Z
 ---------------------------------------------------------------------
      1          6           0        3.450521   -0.549743   -0.444671
      2          6           0        3.496581   -1.894410    0.281781
      3          6           0        3.077990   -3.063149   -0.610757
      4          1           0        2.433016   -0.378709   -0.821998
      5          1           0        4.106983   -0.593664   -1.324741
      6          1           0        2.841296   -1.847508    1.160996
      7          1           0        4.514049   -2.062175    0.657589
      8          1           0        3.737473   -3.138439   -1.481397
      9          1           0        2.055217   -2.922553   -0.975130
     10          1           0        3.118197   -4.014647   -0.071409
     11          6           0        3.866292    0.628353    0.434506
     12          6           0        3.820233    1.973020   -0.291946
     13          6           0        4.238824    3.141760    0.600592
     14          1           0        3.209831    0.672274    1.314577
     15          1           0        4.883797    0.457319    0.811833
     16          1           0        2.802765    2.140785   -0.667754
     17          1           0        4.475517    1.926119   -1.171161
     18          1           0        5.261597    3.001163    0.964965
     19          1           0        3.579341    3.217049    1.471232
     20          1           0        4.198616    4.093257    0.061244
     21          6           0       -0.527245   -0.993672    0.078777
     22          6           0       -0.748317    0.260325   -0.500137
     23          6           0       -2.035609    0.803668   -0.547116
     24          6           0       -3.083472    0.062388   -0.003262
     25          6           0       -2.895256   -1.189556    0.580263
     26          6           0       -1.599529   -1.713341    0.616181
     27          1           0        0.476030   -1.408158    0.110975
     28          1           0        0.082539    0.821472   -0.918272
     29          1           0       -2.235030    1.772215   -0.989344
     30          1           0       -3.743453   -1.725297    0.988871
     31          1           0       -1.430806   -2.687448    1.066396
     32          7           0       -4.450735    0.627250   -0.047141
     33          8           0       -5.357052   -0.045775    0.438928
     34          8           0       -4.590187    1.732317   -0.566772
 ---------------------------------------------------------------------

 SCF Done:  E(RHF) =  -669.534643591     A.U. after   15 cycles
 E2 =    -0.2093177377D+01 EUMP2 =    -0.67162782096870D+03

 The electronic state is 1-A.
 Alpha  occ. eigenvalues --  -20.60739 -20.60734 -15.85793 -11.31157 -11.27727
 Alpha  occ. eigenvalues --  -11.27720 -11.27403 -11.26734 -11.26723 -11.22918
 Alpha  occ. eigenvalues --  -11.22724 -11.22585 -11.22432 -11.22346 -11.21804
 Alpha  occ. eigenvalues --   -1.59815  -1.39368  -1.19326  -1.09632  -1.08716
 Alpha  occ. eigenvalues --   -1.04730  -1.04651  -0.97076  -0.95560  -0.88084
 Alpha  occ. eigenvalues --   -0.86131  -0.82396  -0.80713  -0.79413  -0.77440
 Alpha  occ. eigenvalues --   -0.72011  -0.71138  -0.70556  -0.66308  -0.64973
 Alpha  occ. eigenvalues --   -0.64679  -0.62103  -0.62057  -0.60450  -0.58671
 Alpha  occ. eigenvalues --   -0.56414  -0.55140  -0.53735  -0.53476  -0.53057
 Alpha  occ. eigenvalues --   -0.52824  -0.51033  -0.48999  -0.48767  -0.48765
 Alpha  occ. eigenvalues --   -0.47789  -0.46931  -0.46850  -0.44899  -0.44774
 Alpha  occ. eigenvalues --   -0.37298  -0.36337
 Alpha virt. eigenvalues --    0.05074   0.11300   0.16494   0.18186   0.21785
 Alpha virt. eigenvalues --    0.23308   0.24821   0.25810   0.26750   0.28246
 Alpha virt. eigenvalues --    0.29420   0.30611   0.30704   0.31092   0.32071

 Mulliken charges:
               1
     1  C   -0.303202
     2  C   -0.307210
     3  C   -0.479480
     4  H    0.140465
     5  H    0.156361
     6  H    0.148242
     7  H    0.160880
     8  H    0.162128
     9  H    0.149318
    10  H    0.164852
    11  C   -0.299373
    12  C   -0.300523
    13  C   -0.476591
    14  H    0.150829
    15  H    0.154463
    16  H    0.146236
    17  H    0.155073
    18  H    0.157637
    19  H    0.157167
    20  H    0.163293
    21  C   -0.180170
    22  C   -0.226331
    23  C   -0.170709
    24  C    0.158349
    25  C   -0.170553
    26  C   -0.221607
    27  H    0.241563
    28  H    0.227052
    29  H    0.275633
    30  H    0.275477
    31  H    0.223736
    32  N    0.487936
    33  O   -0.460458
    34  O   -0.460483
 Sum of Mulliken charges =  -0.00000

 Dipole moment (field-independent basis, Debye):
    X=              5.1438    Y=             -1.9808    Z=              0.1829  Tot=              5.5150
 Quadrupole moment (field-independent basis, Debye-Ang):
   XX=           -122.0546   YY=            -92.3141   ZZ=            -94.5456
   XY=              7.6952   XZ=             -1.8450   YZ=             -2.5439

 Normal termination of Gaussian 16 at Wed May  5 17:04:28 2021.
