 Gaussian 16, Revision A.03,
 Gaussian 16:  EM64L-G16RevA.03 25-Dec-2016

 -------------
 #p 6-31g* mp2
 -------------

 ------------------------------------------------------
 Input file generated by CHIRIPA (05-May-2021 14:53:15)
 ------------------------------------------------------
 Symbolic Z-matrix:
 Charge =  0 Multiplicity = 1

                         Standard orientation:
 ---------------------------------------------------------------------
 Center     Atomic      Atomic             Coordinates (Angstroms)
 Number     Number       Type             X           Y           Z
 ---------------------------------------------------------------------
      1          6           0        4.081050    0.966147   -0.241681
      2          6           0        2.815445    1.722352    0.163759
      3          6           0        2.741558    3.121816   -0.447661
      4          1           0        4.961678    1.547974    0.063142
      5          1           0        4.119878    0.891160   -1.337247
      6          1           0        2.778314    1.794683    1.258293
      7          1           0        1.937728    1.138567   -0.141895
      8          1           0        2.753524    3.065679   -1.540962
      9          1           0        3.598886    3.725523   -0.132819
     10          1           0        1.828967    3.644589   -0.144765
     11          6           0        4.169336   -0.434534    0.361665
     12          6           0        5.434942   -1.190738   -0.043775
     13          6           0        5.508829   -2.590203    0.567645
     14          1           0        4.130508   -0.359546    1.457231
     15          1           0        3.288708   -1.016360    0.056841
     16          1           0        6.312658   -0.606953    0.261878
     17          1           0        5.472072   -1.263070   -1.138310
     18          1           0        4.651500   -3.193910    0.252802
     19          1           0        5.496862   -2.534065    1.660946
     20          1           0        6.421420   -3.112976    0.264749
     21          6           0       -5.711420   -0.227593    0.368264
     22          6           0       -5.094268   -1.326034   -0.239248
     23          6           0       -3.716091   -1.325930   -0.474145
     24          6           0       -2.982217   -0.205735   -0.087002
     25          6           0       -3.568066    0.903891    0.520289
     26          6           0       -4.947695    0.881908    0.745428
     27          1           0       -6.782585   -0.236172    0.546948
     28          1           0       -5.684886   -2.189054   -0.533210
     29          1           0       -3.212694   -2.162876   -0.942687
     30          1           0       -2.952953    1.749795    0.802249
     31          1           0       -5.424297    1.736380    1.217416
     32          7           0       -1.522434   -0.194043   -0.330513
     33          8           0       -0.898142    0.805005    0.019913
     34          8           0       -1.030191   -1.184149   -0.867191
 ---------------------------------------------------------------------

 SCF Done:  E(RHF) =  -669.536479816     A.U. after   15 cycles
 E2 =    -0.2091079540D+01 EUMP2 =    -0.67162755935642D+03

 The electronic state is 1-A.
 Alpha  occ. eigenvalues --  -20.61059 -20.61031 -15.86061 -11.31350 -11.27907
 Alpha  occ. eigenvalues --  -11.27903 -11.27638 -11.26906 -11.26896 -11.20621
 Alpha  occ. eigenvalues --  -11.20235 -11.20139 -11.20030 -11.19807 -11.19705
 Alpha  occ. eigenvalues --   -1.60098  -1.39655  -1.19513  -1.08925  -1.07143
 Alpha  occ. eigenvalues --   -1.04904  -1.02267  -0.95772  -0.94778  -0.86306
 Alpha  occ. eigenvalues --   -0.85805  -0.82607  -0.78344  -0.77664  -0.76901
 Alpha  occ. eigenvalues --   -0.72279  -0.71405  -0.70622  -0.65169  -0.64907
 Alpha  occ. eigenvalues --   -0.63773  -0.62251  -0.59664  -0.58158  -0.56358
 Alpha  occ. eigenvalues --   -0.55410  -0.54084  -0.53238  -0.52995  -0.51501
 Alpha  occ. eigenvalues --   -0.51200  -0.49133  -0.49040  -0.48708  -0.46645
 Alpha  occ. eigenvalues --   -0.45341  -0.45074  -0.44476  -0.44257  -0.42527
 Alpha  occ. eigenvalues --   -0.37491  -0.36503
 Alpha virt. eigenvalues --    0.04869   0.11153   0.16378   0.21290   0.24104
 Alpha virt. eigenvalues --    0.25510   0.27212   0.27920   0.28173   0.28877
 Alpha virt. eigenvalues --    0.29157   0.30864   0.32372   0.32583   0.33028

 Mulliken charges:
               1
     1  C   -0.297133
     2  C   -0.310288
     3  C   -0.473633
     4  H    0.142874
     5  H    0.147249
     6  H    0.144900
     7  H    0.184518
     8  H    0.152096
     9  H    0.147323
    10  H    0.159267
    11  C   -0.299496
    12  C   -0.298546
    13  C   -0.475203
    14  H    0.146082
    15  H    0.158789
    16  H    0.148652
    17  H    0.150828
    18  H    0.156340
    19  H    0.153160
    20  H    0.156600
    21  C   -0.170457
    22  C   -0.218602
    23  C   -0.170542
    24  C    0.157685
    25  C   -0.170706
    26  C   -0.218553
    27  H    0.226204
    28  H    0.223997
    29  H    0.275899
    30  H    0.276001
    31  H    0.224056
    32  N    0.489490
    33  O   -0.459197
    34  O   -0.459653
 Sum of Mulliken charges =  -0.00000

 Dipole moment (field-independent basis, Debye):
    X=             -5.6059    Y=             -0.1468    Z=              0.8217  Tot=              5.6677
 Quadrupole moment (field-independent basis, Debye-Ang):
   XX=            -66.1209   YY=            -92.3274   ZZ=            -94.4461
   XY=              1.5707   XZ=             -1.8912   YZ=              2.7975

 Normal termination of Gaussian 16 at Thu May  6 10:35:14 2021.
