 Gaussian 16, Revision A.03,
 Gaussian 16:  EM64L-G16RevA.03 25-Dec-2016

 -------------
 #p 6-31g* mp2
 -------------

 ------------------------------------------------------
 Input file generated by CHIRIPA (05-May-2021 14:53:13)
 ------------------------------------------------------
 Symbolic Z-matrix:
 Charge =  0 Multiplicity = 1

                         Standard orientation:
 ---------------------------------------------------------------------
 Center     Atomic      Atomic             Coordinates (Angstroms)
 Number     Number       Type             X           Y           Z
 ---------------------------------------------------------------------
      1          6           0       -2.782849    1.120576    0.125863
      2          6           0       -2.001903    1.896627   -0.935199
      3          6           0       -1.070794    2.948864   -0.332183
      4          1           0       -3.368081    1.826633    0.730786
      5          1           0       -2.074005    0.634958    0.810778
      6          1           0       -2.711997    2.379505   -1.618728
      7          1           0       -1.418611    1.188623   -1.537790
      8          1           0       -0.340064    2.479875    0.334663
      9          1           0       -1.640799    3.677524    0.253265
     10          1           0       -0.522379    3.491733   -1.108325
     11          6           0       -3.718017    0.064998   -0.461457
     12          6           0       -4.498963   -0.711053    0.599605
     13          6           0       -5.430072   -1.763290   -0.003411
     14          1           0       -4.426861    0.550617   -1.146372
     15          1           0       -3.132785   -0.641059   -1.066381
     16          1           0       -5.082255   -0.003048    1.202195
     17          1           0       -3.788869   -1.193930    1.283133
     18          1           0       -4.860067   -2.491949   -0.588859
     19          1           0       -6.160802   -1.294301   -0.670257
     20          1           0       -5.978487   -2.306158    0.772731
     21          6           0        3.222000    1.948928    0.417495
     22          6           0        2.126542    1.442733    1.124784
     23          6           0        1.739345    0.107871    0.973889
     24          6           0        2.473409   -0.696303    0.103403
     25          6           0        3.569460   -0.221359   -0.615201
     26          6           0        3.938699    1.116735   -0.448713
     27          1           0        3.515809    2.987137    0.540771
     28          1           0        1.568095    2.086717    1.798183
     29          1           0        0.895352   -0.309942    1.509170
     30          1           0        4.106656   -0.887641   -1.279208
     31          1           0        4.789874    1.507134   -0.999291
     32          7           0        2.073007   -2.111171   -0.064597
     33          8           0        2.736174   -2.799111   -0.837634
     34          8           0        1.103586   -2.505415    0.579943
 ---------------------------------------------------------------------

 SCF Done:  E(RHF) =  -669.534798488     A.U. after   15 cycles
 E2 =    -0.2092635713D+01 EUMP2 =    -0.67162743420074D+03

 The electronic state is 1-A.
 Alpha  occ. eigenvalues --  -20.60841 -20.60834 -15.85894 -11.31265 -11.27834
 Alpha  occ. eigenvalues --  -11.27819 -11.27552 -11.26842 -11.26829 -11.21781
 Alpha  occ. eigenvalues --  -11.21525 -11.21431 -11.21413 -11.21279 -11.20827
 Alpha  occ. eigenvalues --   -1.59915  -1.39469  -1.19438  -1.08828  -1.08454
 Alpha  occ. eigenvalues --   -1.04852  -1.03556  -0.96029  -0.95660  -0.87062
 Alpha  occ. eigenvalues --   -0.86232  -0.82502  -0.79644  -0.78256  -0.77545
 Alpha  occ. eigenvalues --   -0.72111  -0.71239  -0.70531  -0.65125  -0.65063
 Alpha  occ. eigenvalues --   -0.64856  -0.62223  -0.60937  -0.59408  -0.57635
 Alpha  occ. eigenvalues --   -0.55408  -0.55300  -0.53189  -0.52977  -0.52708
 Alpha  occ. eigenvalues --   -0.52383  -0.49943  -0.48870  -0.48866  -0.47953
 Alpha  occ. eigenvalues --   -0.46664  -0.45803  -0.45696  -0.44872  -0.43814
 Alpha  occ. eigenvalues --   -0.37394  -0.36378
 Alpha virt. eigenvalues --    0.04964   0.11147   0.16350   0.20424   0.22890
 Alpha virt. eigenvalues --    0.24312   0.25542   0.26874   0.27215   0.28479
 Alpha virt. eigenvalues --    0.29149   0.30523   0.31587   0.31806   0.32075

 Mulliken charges:
               1
     1  C   -0.297808
     2  C   -0.299372
     3  C   -0.479118
     4  H    0.148538
     5  H    0.145194
     6  H    0.153037
     7  H    0.155245
     8  H    0.151216
     9  H    0.153333
    10  H    0.159325
    11  C   -0.299033
    12  C   -0.300249
    13  C   -0.476232
    14  H    0.148880
    15  H    0.155038
    16  H    0.149656
    17  H    0.155098
    18  H    0.158957
    19  H    0.153719
    20  H    0.160388
    21  C   -0.171373
    22  C   -0.216967
    23  C   -0.171726
    24  C    0.158633
    25  C   -0.170808
    26  C   -0.218520
    27  H    0.226461
    28  H    0.225140
    29  H    0.276490
    30  H    0.275821
    31  H    0.223845
    32  N    0.488004
    33  O   -0.460027
    34  O   -0.460788
 Sum of Mulliken charges =  -0.00000

 Dipole moment (field-independent basis, Debye):
    X=              1.4541    Y=              4.8981    Z=              0.5375  Tot=              5.1376
 Quadrupole moment (field-independent basis, Debye-Ang):
   XX=            -85.0070   YY=           -102.6219   ZZ=            -93.0950
   XY=             10.2229   XZ=             -1.2626   YZ=              0.3639

 Normal termination of Gaussian 16 at Wed May  5 15:32:33 2021.
