 Gaussian 16, Revision A.03,
 Gaussian 16:  EM64L-G16RevA.03 25-Dec-2016

 -------------
 #p 6-31g* mp2
 -------------

 ------------------------------------------------------
 Input file generated by CHIRIPA (05-May-2021 14:51:08)
 ------------------------------------------------------
 Symbolic Z-matrix:
 Charge =  0 Multiplicity = 1

                         Standard orientation:
 ---------------------------------------------------------------------
 Center     Atomic      Atomic             Coordinates (Angstroms)
 Number     Number       Type             X           Y           Z
 ---------------------------------------------------------------------
      1          6           0       -2.535068   -0.931849    0.793147
      2          6           0       -1.091916   -1.397839    0.597828
      3          6           0       -0.610847   -2.318119    1.720081
      4          1           0       -2.618342   -0.411439    1.757089
      5          1           0       -3.191669   -1.810758    0.854691
      6          1           0       -0.438408   -0.518275    0.535285
      7          1           0       -1.012025   -1.917033   -0.365848
      8          1           0       -1.238710   -3.212975    1.780270
      9          1           0       -0.661834   -1.806270    2.686524
     10          1           0        0.423178   -2.639302    1.560419
     11          6           0       -3.030392   -0.011134   -0.320705
     12          6           0       -4.473544    0.454856   -0.125386
     13          6           0       -4.954613    1.375136   -1.247639
     14          1           0       -2.373791    0.867775   -0.382249
     15          1           0       -2.947118   -0.531545   -1.284647
     16          1           0       -4.553435    0.974050    0.838290
     17          1           0       -5.127052   -0.424708   -0.062843
     18          1           0       -4.903626    0.863286   -2.214082
     19          1           0       -4.326750    2.269991   -1.307828
     20          1           0       -5.988639    1.696319   -1.087977
     21          6           0        2.397940    1.131039   -0.255342
     22          6           0        2.992599    2.206583    0.654367
     23          6           0        2.211809    3.520259    0.605217
     24          1           0        2.372788    1.505883   -1.287721
     25          1           0        1.354339    0.949537    0.036803
     26          1           0        4.035192    2.385012    0.361485
     27          1           0        3.016515    1.829062    1.684669
     28          1           0        1.174347    3.363711    0.917894
     29          1           0        2.198811    3.922820   -0.412809
     30          1           0        2.654141    4.275032    1.262880
     31          6           0        3.167520   -0.188056   -0.217099
     32          6           0        2.572861   -1.263599   -1.126809
     33          6           0        3.353651   -2.577275   -1.077659
     34          1           0        4.211122   -0.006554   -0.509245
     35          1           0        3.192672   -0.562900    0.815278
     36          1           0        2.548945   -0.886079   -2.157111
     37          1           0        1.530269   -1.442029   -0.833926
     38          1           0        3.366649   -2.979837   -0.059634
     39          1           0        4.391113   -2.420729   -1.390336
     40          1           0        2.911320   -3.332048   -1.735322
 ---------------------------------------------------------------------

 SCF Done:  E(RHF) =  -470.732619541     A.U. after   11 cycles
 E2 =    -0.1584366443D+01 EUMP2 =    -0.47231698598414D+03

 The electronic state is 1-A.
 Alpha  occ. eigenvalues --  -11.21671 -11.21627 -11.21609 -11.21488 -11.21453
 Alpha  occ. eigenvalues --  -11.21391 -11.21386 -11.21324 -11.21160 -11.21097
 Alpha  occ. eigenvalues --  -11.21085 -11.21042  -1.08504  -1.08397  -1.03607
 Alpha  occ. eigenvalues --   -1.03495  -0.96034  -0.95969  -0.87047  -0.86984
 Alpha  occ. eigenvalues --   -0.79725  -0.79541  -0.78423  -0.78095  -0.65231
 Alpha  occ. eigenvalues --   -0.64970  -0.61008  -0.60941  -0.59421  -0.59288
 Alpha  occ. eigenvalues --   -0.57641  -0.57570  -0.55355  -0.55228  -0.52729
 Alpha  occ. eigenvalues --   -0.52658  -0.52461  -0.52389  -0.50012  -0.49882
 Alpha  occ. eigenvalues --   -0.48103  -0.47871  -0.46828  -0.46565  -0.46162
 Alpha  occ. eigenvalues --   -0.45754  -0.45739  -0.45132  -0.43828  -0.43760
 Alpha virt. eigenvalues --    0.20299   0.22724   0.23566   0.24682   0.25602
 Alpha virt. eigenvalues --    0.26573   0.26748   0.27761   0.28135   0.29629
 Alpha virt. eigenvalues --    0.30463   0.30709   0.31764   0.31857   0.32286

 Mulliken charges:
               1
     1  C   -0.296924
     2  C   -0.310635
     3  C   -0.477594
     4  H    0.149477
     5  H    0.149790
     6  H    0.160015
     7  H    0.152944
     8  H    0.156046
     9  H    0.155294
    10  H    0.161535
    11  C   -0.298552
    12  C   -0.299704
    13  C   -0.475761
    14  H    0.149402
    15  H    0.149973
    16  H    0.151940
    17  H    0.152025
    18  H    0.155264
    19  H    0.155410
    20  H    0.160334
    21  C   -0.305844
    22  C   -0.299177
    23  C   -0.475556
    24  H    0.149924
    25  H    0.155505
    26  H    0.152157
    27  H    0.151841
    28  H    0.154256
    29  H    0.155360
    30  H    0.160390
    31  C   -0.297697
    32  C   -0.310172
    33  C   -0.475662
    34  H    0.149451
    35  H    0.149219
    36  H    0.151349
    37  H    0.164854
    38  H    0.154562
    39  H    0.155043
    40  H    0.159917
 Sum of Mulliken charges =  -0.00000

 Dipole moment (field-independent basis, Debye):
    X=             -0.0438    Y=             -0.0042    Z=             -0.0030  Tot=              0.0441
 Quadrupole moment (field-independent basis, Debye-Ang):
   XX=            -84.8772   YY=            -85.5234   ZZ=            -84.4697
   XY=              1.3352   XZ=             -0.5793   YZ=              0.5861

 Normal termination of Gaussian 16 at Thu May  6 00:32:17 2021.
