 Gaussian 16, Revision A.03,
 Gaussian 16:  EM64L-G16RevA.03 25-Dec-2016

 -------------
 #p 6-31g* mp2
 -------------

 ------------------------------------------------------
 Input file generated by CHIRIPA (05-May-2021 14:55:21)
 ------------------------------------------------------
 Symbolic Z-matrix:
 Charge =  0 Multiplicity = 1

                         Standard orientation:
 ---------------------------------------------------------------------
 Center     Atomic      Atomic             Coordinates (Angstroms)
 Number     Number       Type             X           Y           Z
 ---------------------------------------------------------------------
      1          6           0        1.378832    2.153781    0.897055
      2          6           0        1.208842    0.817389    1.273461
      3          6           0        2.074136   -0.170733    0.794474
      4          6           0        3.103362    0.214624   -0.063130
      5          6           0        3.298681    1.537671   -0.456431
      6          6           0        2.421371    2.509030    0.034830
      7          1           0        0.701984    2.914867    1.273911
      8          1           0        0.400069    0.538592    1.942942
      9          1           0        1.965435   -1.212763    1.069747
     10          1           0        4.114146    1.784976   -1.125217
     11          1           0        2.555788    3.546110   -0.259182
     12          7           0        4.025770   -0.822584   -0.576710
     13          8           0        4.924718   -0.457238   -1.331065
     14          8           0        3.832340   -1.981252   -0.215173
     15          6           0       -3.208787   -0.977023   -0.188744
     16          6           0       -2.189950   -1.113513    0.943213
     17          6           0       -1.057842   -2.084198    0.605724
     18          1           0       -3.628107   -1.966391   -0.417357
     19          1           0       -2.693064   -0.638414   -1.098012
     20          1           0       -2.707671   -1.450435    1.850442
     21          1           0       -1.773146   -0.123675    1.169289
     22          1           0       -0.515610   -1.749124   -0.284394
     23          1           0       -1.455445   -3.083422    0.400630
     24          1           0       -0.341000   -2.166633    1.428646
     25          6           0       -4.346639   -0.010032    0.133668
     26          6           0       -5.365475    0.126460   -0.998289
     27          6           0       -6.497583    1.097144   -0.660799
     28          1           0       -4.862362   -0.348641    1.042936
     29          1           0       -3.927318    0.979337    0.362282
     30          1           0       -5.782280   -0.863379   -1.224364
     31          1           0       -4.847754    0.463381   -1.905518
     32          1           0       -6.099981    2.096368   -0.455705
     33          1           0       -7.039816    0.762069    0.229319
     34          1           0       -7.214426    1.179578   -1.483721
 ---------------------------------------------------------------------

 SCF Done:  E(RHF) =  -669.534433289     A.U. after   15 cycles
 E2 =    -0.2092933360D+01 EUMP2 =    -0.67162736664949D+03

 The electronic state is 1-A.
 Alpha  occ. eigenvalues --  -20.60734 -20.60728 -15.85786 -11.31143 -11.27730
 Alpha  occ. eigenvalues --  -11.27678 -11.27475 -11.26743 -11.26689 -11.22365
 Alpha  occ. eigenvalues --  -11.22023 -11.21951 -11.21884 -11.21759 -11.21456
 Alpha  occ. eigenvalues --   -1.59809  -1.39362  -1.19329  -1.08998  -1.08723
 Alpha  occ. eigenvalues --   -1.04750  -1.04089  -0.96545  -0.95556  -0.87562
 Alpha  occ. eigenvalues --   -0.86130  -0.82389  -0.80183  -0.78801  -0.77440
 Alpha  occ. eigenvalues --   -0.72005  -0.71134  -0.70446  -0.65666  -0.64980
 Alpha  occ. eigenvalues --   -0.64729  -0.62293  -0.61368  -0.59873  -0.58142
 Alpha  occ. eigenvalues --   -0.55822  -0.55217  -0.53311  -0.53020  -0.52946
 Alpha  occ. eigenvalues --   -0.52808  -0.50437  -0.48774  -0.48758  -0.48478
 Alpha  occ. eigenvalues --   -0.47184  -0.46339  -0.46242  -0.44768  -0.44355
 Alpha  occ. eigenvalues --   -0.37315  -0.36292
 Alpha virt. eigenvalues --    0.05084   0.11233   0.16499   0.20142   0.22612
 Alpha virt. eigenvalues --    0.23961   0.25721   0.25984   0.26640   0.28181
 Alpha virt. eigenvalues --    0.28835   0.29977   0.30842   0.31409   0.32132

 Mulliken charges:
               1
     1  C   -0.172503
     2  C   -0.219389
     3  C   -0.172398
     4  C    0.157600
     5  C   -0.170889
     6  C   -0.218846
     7  H    0.225190
     8  H    0.227492
     9  H    0.278931
    10  H    0.275428
    11  H    0.223180
    12  N    0.488227
    13  O   -0.460727
    14  O   -0.460229
    15  C   -0.298786
    16  C   -0.302748
    17  C   -0.479278
    18  H    0.152985
    19  H    0.152360
    20  H    0.153704
    21  H    0.143391
    22  H    0.163077
    23  H    0.162379
    24  H    0.151106
    25  C   -0.298189
    26  C   -0.300185
    27  C   -0.475866
    28  H    0.150200
    29  H    0.146492
    30  H    0.153728
    31  H    0.152859
    32  H    0.154116
    33  H    0.155694
    34  H    0.161893
 Sum of Mulliken charges =  -0.00000

 Dipole moment (field-independent basis, Debye):
    X=             -3.3818    Y=              3.5678    Z=              1.7134  Tot=              5.2059
 Quadrupole moment (field-independent basis, Debye-Ang):
   XX=           -114.3908   YY=            -90.7367   ZZ=            -94.2575
   XY=             13.9232   XZ=              4.4394   YZ=             -2.1755

 Normal termination of Gaussian 16 at Wed May  5 15:56:26 2021.
