 Gaussian 16, Revision A.03,
 Gaussian 16:  EM64L-G16RevA.03 25-Dec-2016

 -------------
 #p 6-31g* mp2
 -------------

 ------------------------------------------------------
 Input file generated by CHIRIPA (05-May-2021 14:53:14)
 ------------------------------------------------------
 Symbolic Z-matrix:
 Charge =  0 Multiplicity = 1

                         Standard orientation:
 ---------------------------------------------------------------------
 Center     Atomic      Atomic             Coordinates (Angstroms)
 Number     Number       Type             X           Y           Z
 ---------------------------------------------------------------------
      1          6           0       -3.365140    1.296426    0.048972
      2          6           0       -2.225112    1.906965   -0.766849
      3          6           0       -2.044320    3.402158   -0.503209
      4          1           0       -4.298784    1.826717   -0.183501
      5          1           0       -3.170427    1.460300    1.117910
      6          1           0       -2.421226    1.740775   -1.833871
      7          1           0       -1.294109    1.375033   -0.532549
      8          1           0       -1.824113    3.583088    0.553850
      9          1           0       -2.957635    3.950908   -0.754866
     10          1           0       -1.224177    3.818165   -1.096642
     11          6           0       -3.558280   -0.197759   -0.203689
     12          6           0       -4.698307   -0.808298    0.612132
     13          6           0       -4.879099   -2.303491    0.348492
     14          1           0       -3.752992   -0.361632   -1.272627
     15          1           0       -2.624635   -0.728050    0.028784
     16          1           0       -5.629311   -0.276366    0.377832
     17          1           0       -4.502193   -0.642107    1.679154
     18          1           0       -3.965785   -2.852241    0.600148
     19          1           0       -5.099307   -2.484421   -0.708567
     20          1           0       -5.699243   -2.719498    0.941925
     21          6           0        4.831470    0.896206    0.352232
     22          6           0        4.849765   -0.309769   -0.356154
     23          6           0        3.677250   -1.052444   -0.524051
     24          6           0        2.498829   -0.557299    0.032227
     25          6           0        2.448372    0.640698    0.743246
     26          6           0        3.632944    1.366760    0.898708
     27          1           0        5.746991    1.466681    0.477830
     28          1           0        5.779103   -0.677643   -0.781647
     29          1           0        3.662975   -1.989198   -1.067841
     30          1           0        1.506660    0.981761    1.155887
     31          1           0        3.615755    2.303007    1.449335
     32          7           0        1.251158   -1.334742   -0.138937
     33          8           0        0.225886   -0.876862    0.360863
     34          8           0        1.322130   -2.387262   -0.769653
 ---------------------------------------------------------------------

 SCF Done:  E(RHF) =  -669.536559340     A.U. after   15 cycles
 E2 =    -0.2092081010D+01 EUMP2 =    -0.67162864034987D+03

 The electronic state is 1-A.
 Alpha  occ. eigenvalues --  -20.61126 -20.61121 -15.86131 -11.31379 -11.27932
 Alpha  occ. eigenvalues --  -11.27928 -11.27656 -11.26924 -11.26914 -11.20642
 Alpha  occ. eigenvalues --  -11.20556 -11.20492 -11.20361 -11.19994 -11.19910
 Alpha  occ. eigenvalues --   -1.60167  -1.39729  -1.19539  -1.08958  -1.07321
 Alpha  occ. eigenvalues --   -1.04924  -1.02569  -0.95814  -0.95027  -0.86329
 Alpha  occ. eigenvalues --   -0.86047  -0.82655  -0.78630  -0.77723  -0.77076
 Alpha  occ. eigenvalues --   -0.72366  -0.71466  -0.70649  -0.65204  -0.64927
 Alpha  occ. eigenvalues --   -0.63927  -0.62274  -0.59973  -0.58421  -0.56633
 Alpha  occ. eigenvalues --   -0.55433  -0.54320  -0.53259  -0.53015  -0.51782
 Alpha  occ. eigenvalues --   -0.51457  -0.49237  -0.49113  -0.48861  -0.46958
 Alpha  occ. eigenvalues --   -0.45739  -0.45167  -0.44662  -0.44288  -0.42766
 Alpha  occ. eigenvalues --   -0.37513  -0.36521
 Alpha virt. eigenvalues --    0.04771   0.11121   0.16253   0.21049   0.23723
 Alpha virt. eigenvalues --    0.25006   0.27014   0.27492   0.28094   0.28830
 Alpha virt. eigenvalues --    0.29196   0.30821   0.31769   0.32424   0.32542

 Mulliken charges:
               1
     1  C   -0.294789
     2  C   -0.307768
     3  C   -0.475178
     4  H    0.143893
     5  H    0.145743
     6  H    0.149488
     7  H    0.166437
     8  H    0.149798
     9  H    0.154022
    10  H    0.154535
    11  C   -0.311511
    12  C   -0.298184
    13  C   -0.475881
    14  H    0.144725
    15  H    0.181553
    16  H    0.146182
    17  H    0.149193
    18  H    0.161492
    19  H    0.153264
    20  H    0.155047
    21  C   -0.170324
    22  C   -0.218623
    23  C   -0.170303
    24  C    0.157546
    25  C   -0.171037
    26  C   -0.218594
    27  H    0.226385
    28  H    0.224131
    29  H    0.276016
    30  H    0.276471
    31  H    0.224463
    32  N    0.492547
    33  O   -0.463618
    34  O   -0.457123
 Sum of Mulliken charges =  -0.00000

 Dipole moment (field-independent basis, Debye):
    X=              4.7924    Y=              2.4868    Z=              0.6076  Tot=              5.4333
 Quadrupole moment (field-independent basis, Debye-Ang):
   XX=            -72.7992   YY=            -97.5677   ZZ=            -93.6112
   XY=              2.4942   XZ=              0.6617   YZ=              1.7912

 Normal termination of Gaussian 16 at Thu May  6 20:20:20 2021.
