 Gaussian 16, Revision A.03,
 Gaussian 16:  EM64L-G16RevA.03 25-Dec-2016

 -------------
 #p 6-31g* mp2
 -------------

 ------------------------------------------------------
 Input file generated by CHIRIPA (05-May-2021 14:57:21)
 ------------------------------------------------------
 Symbolic Z-matrix:
 Charge =  0 Multiplicity = 1

                         Standard orientation:
 ---------------------------------------------------------------------
 Center     Atomic      Atomic             Coordinates (Angstroms)
 Number     Number       Type             X           Y           Z
 ---------------------------------------------------------------------
      1          6           0       -3.253242   -1.938524    1.005407
      2          6           0       -2.085668   -1.926266    0.235251
      3          6           0       -1.690371   -0.765656   -0.436517
      4          6           0       -2.489961    0.369834   -0.315643
      5          6           0       -3.658640    0.389102    0.444033
      6          6           0       -4.034624   -0.782839    1.107161
      7          1           0       -3.552817   -2.844515    1.523897
      8          1           0       -1.476887   -2.822312    0.154424
      9          1           0       -0.791236   -0.728387   -1.039497
     10          1           0       -4.244960    1.297868    0.505607
     11          1           0       -4.941877   -0.789447    1.704568
     12          7           0       -2.081700    1.604517   -1.022240
     13          8           0       -2.803484    2.591762   -0.899710
     14          8           0       -1.047653    1.561639   -1.685221
     15          6           0        2.798906    1.868830    1.670783
     16          6           0        3.388594    1.848014    0.402573
     17          6           0        3.261201    0.725743   -0.421338
     18          6           0        2.533884   -0.363096    0.056919
     19          6           0        1.934721   -0.372673    1.315569
     20          6           0        2.075129    0.760375    2.122437
     21          1           0        2.902923    2.744823    2.304197
     22          1           0        3.951263    2.707417    0.049198
     23          1           0        3.707442    0.682876   -1.407466
     24          1           0        1.379864   -1.244517    1.640287
     25          1           0        1.616092    0.773737    3.106893
     26          7           0        2.392130   -1.556898   -0.806297
     27          8           0        1.746263   -2.503378   -0.361699
     28          8           0        2.929575   -1.523516   -1.911140
 ---------------------------------------------------------------------

 SCF Done:  E(RHF) =  -868.339997297     A.U. after   16 cycles
 E2 =    -0.2600494924D+01 EUMP2 =    -0.87094049222135D+03

 The electronic state is 1-A.
 Alpha  occ. eigenvalues --  -20.61233 -20.61151 -20.60666 -20.60651 -15.86205
 Alpha  occ. eigenvalues --  -15.85705 -11.31206 -11.30956 -11.27803 -11.27693
 Alpha  occ. eigenvalues --  -11.27547 -11.27419 -11.27413 -11.27213 -11.26715
 Alpha  occ. eigenvalues --  -11.26625 -11.26557 -11.26330  -1.60259  -1.59738
 Alpha  occ. eigenvalues --   -1.39822  -1.39294  -1.19347  -1.19111  -1.08816
 Alpha  occ. eigenvalues --   -1.08531  -1.04702  -1.04464  -0.95710  -0.95385
 Alpha  occ. eigenvalues --   -0.86127  -0.85875  -0.82565  -0.82191  -0.77660
 Alpha  occ. eigenvalues --   -0.77251  -0.72438  -0.71937  -0.71585  -0.71059
 Alpha  occ. eigenvalues --   -0.70470  -0.70200  -0.65016  -0.64752  -0.64706
 Alpha  occ. eigenvalues --   -0.64429  -0.62076  -0.61774  -0.55225  -0.54993
 Alpha  occ. eigenvalues --   -0.53070  -0.52863  -0.52755  -0.52509  -0.49217
 Alpha  occ. eigenvalues --   -0.49148  -0.48689  -0.48675  -0.45290  -0.44722
 Alpha  occ. eigenvalues --   -0.37311  -0.37116  -0.36371  -0.35950
 Alpha virt. eigenvalues --    0.04807   0.05245   0.11190   0.11727   0.16384
 Alpha virt. eigenvalues --    0.16721   0.21336   0.21868   0.27048   0.27541
 Alpha virt. eigenvalues --    0.28402   0.28537   0.30941   0.31505   0.32317

 Mulliken charges:
               1
     1  C   -0.172535
     2  C   -0.225919
     3  C   -0.174072
     4  C    0.158133
     5  C   -0.172874
     6  C   -0.219237
     7  H    0.225303
     8  H    0.240292
     9  H    0.278149
    10  H    0.273544
    11  H    0.221654
    12  N    0.487965
    13  O   -0.462997
    14  O   -0.460502
    15  C   -0.167925
    16  C   -0.215672
    17  C   -0.164316
    18  C    0.156251
    19  C   -0.172030
    20  C   -0.218213
    21  H    0.227046
    22  H    0.225937
    23  H    0.277349
    24  H    0.270145
    25  H    0.222553
    26  N    0.487736
    27  O   -0.473072
    28  O   -0.452691
 Sum of Mulliken charges =  -0.00000

 Dipole moment (field-independent basis, Debye):
    X=             -0.6494    Y=             -0.0422    Z=              5.4268  Tot=              5.4657
 Quadrupole moment (field-independent basis, Debye-Ang):
   XX=            -91.0440   YY=           -109.8473   ZZ=           -103.8347
   XY=             21.0247   XZ=             -2.0667   YZ=              0.7994

 Normal termination of Gaussian 16 at Wed May  5 17:47:20 2021.
