 Gaussian 16, Revision A.03,
 Gaussian 16:  EM64L-G16RevA.03 25-Dec-2016

 -------------
 #p 6-31g* mp2
 -------------

 ------------------------------------------------------
 Input file generated by CHIRIPA (05-May-2021 14:51:09)
 ------------------------------------------------------
 Symbolic Z-matrix:
 Charge =  0 Multiplicity = 1

                         Standard orientation:
 ---------------------------------------------------------------------
 Center     Atomic      Atomic             Coordinates (Angstroms)
 Number     Number       Type             X           Y           Z
 ---------------------------------------------------------------------
      1          6           0        3.193336    0.781146   -0.032363
      2          6           0        2.738968    1.794052   -1.083817
      3          6           0        2.347910    3.141591   -0.476357
      4          1           0        2.386941    0.634963    0.699281
      5          1           0        4.046679    1.196093    0.521730
      6          1           0        1.887612    1.376748   -1.636689
      7          1           0        3.546467    1.937697   -1.813150
      8          1           0        3.194605    3.582947    0.059287
      9          1           0        1.526325    3.018811    0.236751
     10          1           0        2.026332    3.850575   -1.245635
     11          6           0        3.587576   -0.570895   -0.624214
     12          6           0        4.041944   -1.583801    0.427240
     13          6           0        4.433001   -2.931340   -0.180220
     14          1           0        2.734233   -0.985842   -1.178308
     15          1           0        4.393971   -0.424711   -1.355858
     16          1           0        3.234445   -1.727446    1.156573
     17          1           0        4.893299   -1.166497    0.980112
     18          1           0        5.254586   -2.808560   -0.893328
     19          1           0        3.586307   -3.372696   -0.715864
     20          1           0        4.754580   -3.640324    0.589058
     21          6           0       -2.670592   -0.280195    0.514242
     22          6           0       -2.006819    0.761219    1.415823
     23          6           0       -0.567007    0.396914    1.779166
     24          1           0       -2.653850   -1.256237    1.018235
     25          1           0       -2.076936   -0.392134   -0.403602
     26          1           0       -2.602304    0.872166    2.331085
     27          1           0       -2.025315    1.734933    0.909706
     28          1           0        0.046662    0.305763    0.877111
     29          1           0       -0.533607   -0.561905    2.306566
     30          1           0       -0.111644    1.154906    2.424111
     31          6           0       -4.110320    0.069944    0.142335
     32          6           0       -4.774092   -0.971470   -0.759246
     33          6           0       -6.213904   -0.607165   -1.122589
     34          1           0       -4.703975    0.181883    1.060179
     35          1           0       -4.127061    1.045985   -0.361658
     36          1           0       -4.755597   -1.945184   -0.253129
     37          1           0       -4.178607   -1.082418   -1.674508
     38          1           0       -6.247305    0.351654   -1.649988
     39          1           0       -6.827574   -0.516015   -0.220534
     40          1           0       -6.669267   -1.365156   -1.767532
 ---------------------------------------------------------------------

 SCF Done:  E(RHF) =  -470.733165256     A.U. after   11 cycles
 E2 =    -0.1583006999D+01 EUMP2 =    -0.47231617225517D+03

 The electronic state is 1-A.
 Alpha  occ. eigenvalues --  -11.21678 -11.21638 -11.21579 -11.21552 -11.21463
 Alpha  occ. eigenvalues --  -11.21399 -11.21342 -11.21254 -11.21175 -11.21098
 Alpha  occ. eigenvalues --  -11.21043 -11.21035  -1.08490  -1.08381  -1.03598
 Alpha  occ. eigenvalues --   -1.03488  -0.96051  -0.95935  -0.87077  -0.86949
 Alpha  occ. eigenvalues --   -0.79675  -0.79543  -0.78310  -0.78178  -0.65191
 Alpha  occ. eigenvalues --   -0.64973  -0.61084  -0.60803  -0.59419  -0.59299
 Alpha  occ. eigenvalues --   -0.57670  -0.57537  -0.55377  -0.55195  -0.52753
 Alpha  occ. eigenvalues --   -0.52636  -0.52503  -0.52333  -0.50076  -0.49819
 Alpha  occ. eigenvalues --   -0.47991  -0.47862  -0.46764  -0.46545  -0.45909
 Alpha  occ. eigenvalues --   -0.45787  -0.45704  -0.45477  -0.43834  -0.43738
 Alpha virt. eigenvalues --    0.20523   0.23021   0.23782   0.25059   0.25949
 Alpha virt. eigenvalues --    0.26545   0.26907   0.27545   0.28036   0.29270
 Alpha virt. eigenvalues --    0.30958   0.31241   0.31743   0.31984   0.32263

 Mulliken charges:
               1
     1  C   -0.306374
     2  C   -0.299367
     3  C   -0.477293
     4  H    0.158863
     5  H    0.149316
     6  H    0.150528
     7  H    0.151992
     8  H    0.155222
     9  H    0.156871
    10  H    0.159789
    11  C   -0.298022
    12  C   -0.299789
    13  C   -0.475675
    14  H    0.148711
    15  H    0.149446
    16  H    0.152607
    17  H    0.151817
    18  H    0.155013
    19  H    0.155089
    20  H    0.160101
    21  C   -0.298547
    22  C   -0.300104
    23  C   -0.480742
    24  H    0.149775
    25  H    0.149364
    26  H    0.152390
    27  H    0.152480
    28  H    0.159278
    29  H    0.155569
    30  H    0.161088
    31  C   -0.298382
    32  C   -0.299706
    33  C   -0.475750
    34  H    0.149713
    35  H    0.149882
    36  H    0.151989
    37  H    0.151941
    38  H    0.155282
    39  H    0.155257
    40  H    0.160380
 Sum of Mulliken charges =  -0.00000

 Dipole moment (field-independent basis, Debye):
    X=             -0.0409    Y=             -0.0037    Z=              0.0340  Tot=              0.0533
 Quadrupole moment (field-independent basis, Debye-Ang):
   XX=            -84.9789   YY=            -85.5555   ZZ=            -84.2922
   XY=              0.9459   XZ=             -0.6048   YZ=             -0.6935

 Normal termination of Gaussian 16 at Thu May  6 02:10:12 2021.
