 Gaussian 16, Revision A.03,
 Gaussian 16:  EM64L-G16RevA.03 25-Dec-2016

 -------------
 #p 6-31g* mp2
 -------------

 ------------------------------------------------------
 Input file generated by CHIRIPA (05-May-2021 14:55:21)
 ------------------------------------------------------
 Symbolic Z-matrix:
 Charge =  0 Multiplicity = 1

                         Standard orientation:
 ---------------------------------------------------------------------
 Center     Atomic      Atomic             Coordinates (Angstroms)
 Number     Number       Type             X           Y           Z
 ---------------------------------------------------------------------
      1          6           0       -4.557665    1.267610   -1.141401
      2          6           0       -3.187428    1.547334   -1.114459
      3          6           0       -2.292276    0.655219   -0.516644
      4          6           0       -2.804103   -0.512431    0.047195
      5          6           0       -4.163877   -0.819332    0.036281
      6          6           0       -5.040665    0.087251   -0.566958
      7          1           0       -5.245908    1.966246   -1.607905
      8          1           0       -2.809494    2.463242   -1.559793
      9          1           0       -1.226695    0.846885   -0.481730
     10          1           0       -4.510795   -1.740512    0.488490
     11          1           0       -6.104307   -0.132594   -0.586409
     12          7           0       -1.866167   -1.464532    0.682946
     13          8           0       -2.342267   -2.486346    1.172702
     14          8           0       -0.672671   -1.170946    0.679454
     15          6           0        4.064673   -0.253152    0.004178
     16          6           0        5.193436   -0.364087   -1.021284
     17          6           0        5.738314   -1.786964   -1.149046
     18          1           0        4.430746   -0.596264    0.981526
     19          1           0        3.250971   -0.934106   -0.281452
     20          1           0        6.004181    0.317894   -0.734559
     21          1           0        4.824689   -0.020491   -1.996262
     22          1           0        4.946104   -2.476553   -1.458033
     23          1           0        6.132297   -2.136246   -0.189161
     24          1           0        6.544278   -1.843438   -1.887349
     25          6           0        3.509565    1.163267    0.143237
     26          6           0        2.380802    1.274203    1.168699
     27          6           0        1.835925    2.697079    1.296462
     28          1           0        4.323267    1.844222    0.428867
     29          1           0        3.143491    1.506379   -0.834111
     30          1           0        2.749549    0.930606    2.143677
     31          1           0        1.570056    0.592221    0.881975
     32          1           0        1.441940    3.046361    0.336577
     33          1           0        2.628134    3.386668    1.605448
     34          1           0        1.029960    2.753553    2.034765
 ---------------------------------------------------------------------

 SCF Done:  E(RHF) =  -669.536106006     A.U. after   15 cycles
 E2 =    -0.2091255076D+01 EUMP2 =    -0.67162736108259D+03

 The electronic state is 1-A.
 Alpha  occ. eigenvalues --  -20.60928 -20.60918 -15.85970 -11.31279 -11.27843
 Alpha  occ. eigenvalues --  -11.27839 -11.27579 -11.26849 -11.26839 -11.21088
 Alpha  occ. eigenvalues --  -11.20867 -11.20819 -11.20771 -11.20686 -11.20570
 Alpha  occ. eigenvalues --   -1.59991  -1.39548  -1.19448  -1.08853  -1.07839
 Alpha  occ. eigenvalues --   -1.04843  -1.03002  -0.95698  -0.95491  -0.86507
 Alpha  occ. eigenvalues --   -0.86244  -0.82535  -0.79039  -0.77676  -0.77529
 Alpha  occ. eigenvalues --   -0.72196  -0.71306  -0.70557  -0.65108  -0.64850
 Alpha  occ. eigenvalues --   -0.64467  -0.62194  -0.60404  -0.58844  -0.57079
 Alpha  occ. eigenvalues --   -0.55349  -0.54802  -0.53176  -0.52934  -0.52198
 Alpha  occ. eigenvalues --   -0.51907  -0.49449  -0.48953  -0.48938  -0.47355
 Alpha  occ. eigenvalues --   -0.46046  -0.45198  -0.45085  -0.44909  -0.43242
 Alpha  occ. eigenvalues --   -0.37427  -0.36444
 Alpha virt. eigenvalues --    0.04940   0.11208   0.16439   0.20544   0.23026
 Alpha virt. eigenvalues --    0.24290   0.26737   0.27483   0.27807   0.28420
 Alpha virt. eigenvalues --    0.29013   0.30667   0.31611   0.32109   0.32265

 Mulliken charges:
               1
     1  C   -0.170500
     2  C   -0.219099
     3  C   -0.171224
     4  C    0.157562
     5  C   -0.170810
     6  C   -0.218642
     7  H    0.225994
     8  H    0.224163
     9  H    0.277797
    10  H    0.275754
    11  H    0.223765
    12  N    0.494631
    13  O   -0.459063
    14  O   -0.467742
    15  C   -0.299876
    16  C   -0.299101
    17  C   -0.475511
    18  H    0.150267
    19  H    0.158509
    20  H    0.149684
    21  H    0.149300
    22  H    0.157013
    23  H    0.155407
    24  H    0.157746
    25  C   -0.296812
    26  C   -0.313223
    27  C   -0.475523
    28  H    0.146264
    29  H    0.143740
    30  H    0.153155
    31  H    0.177411
    32  H    0.145036
    33  H    0.154340
    34  H    0.159586
 Sum of Mulliken charges =  -0.00000

 Dipole moment (field-independent basis, Debye):
    X=             -3.4807    Y=              3.1741    Z=             -2.1816  Tot=              5.1913
 Quadrupole moment (field-independent basis, Debye-Ang):
   XX=            -73.7406   YY=            -98.1956   ZZ=            -95.0679
   XY=             -4.9856   XZ=              6.1505   YZ=              0.2705

 Normal termination of Gaussian 16 at Thu May  6 20:44:38 2021.
