 Gaussian 16, Revision A.03,
 Gaussian 16:  EM64L-G16RevA.03 25-Dec-2016

 -------------
 #p 6-31g* mp2
 -------------

 ------------------------------------------------------
 Input file generated by CHIRIPA (05-May-2021 14:57:26)
 ------------------------------------------------------
 Symbolic Z-matrix:
 Charge =  0 Multiplicity = 1

                         Standard orientation:
 ---------------------------------------------------------------------
 Center     Atomic      Atomic             Coordinates (Angstroms)
 Number     Number       Type             X           Y           Z
 ---------------------------------------------------------------------
      1          6           0        5.178346    1.473357    0.611330
      2          6           0        5.364833    0.107941    0.371782
      3          6           0        4.289698   -0.698798   -0.012673
      4          6           0        3.036093   -0.104436   -0.148677
      5          6           0        2.818387    1.252878    0.082825
      6          6           0        3.907958    2.040468    0.466343
      7          1           0        6.019144    2.092614    0.909619
      8          1           0        6.350312   -0.335198    0.483599
      9          1           0        4.405918   -1.758578   -0.204446
     10          1           0        1.824207    1.666031   -0.036875
     11          1           0        3.760180    3.100582    0.651716
     12          7           0        1.890254   -0.948358   -0.555185
     13          8           0        0.795794   -0.400587   -0.668052
     14          8           0        2.108304   -2.141616   -0.753243
     15          6           0       -4.156559    2.252959   -0.432952
     16          6           0       -3.453336    1.546532   -1.414258
     17          6           0       -2.932734    0.278289   -1.140247
     18          6           0       -3.134875   -0.255811    0.131432
     19          6           0       -3.831058    0.423220    1.130199
     20          6           0       -4.342847    1.690041    0.833912
     21          1           0       -4.557551    3.237608   -0.654462
     22          1           0       -3.307133    1.981227   -2.398995
     23          1           0       -2.384392   -0.290486   -1.881350
     24          1           0       -3.960684   -0.036174    2.102604
     25          1           0       -4.888567    2.236368    1.597955
     26          7           0       -2.588402   -1.597690    0.433307
     27          8           0       -2.780097   -2.046223    1.561450
     28          8           0       -1.978730   -2.175512   -0.463944
 ---------------------------------------------------------------------

 SCF Done:  E(RHF) =  -868.336336788     A.U. after   16 cycles
 E2 =    -0.2600686319D+01 EUMP2 =    -0.87093702310702D+03

 The electronic state is 1-A.
 Alpha  occ. eigenvalues --  -20.60367 -20.60304 -20.59457 -20.59284 -15.85415
 Alpha  occ. eigenvalues --  -15.84421 -11.30960 -11.30112 -11.27577 -11.27527
 Alpha  occ. eigenvalues --  -11.27328 -11.26809 -11.26663 -11.26636 -11.26626
 Alpha  occ. eigenvalues --  -11.26588 -11.25907 -11.25836  -1.59394  -1.58431
 Alpha  occ. eigenvalues --   -1.38956  -1.37972  -1.19148  -1.18346  -1.08505
 Alpha  occ. eigenvalues --   -1.07694  -1.04583  -1.03805  -0.95311  -0.94466
 Alpha  occ. eigenvalues --   -0.85972  -0.85187  -0.82152  -0.81303  -0.77167
 Alpha  occ. eigenvalues --   -0.76270  -0.71649  -0.70747  -0.70654  -0.70260
 Alpha  occ. eigenvalues --   -0.69717  -0.69477  -0.64803  -0.64588  -0.64001
 Alpha  occ. eigenvalues --   -0.63833  -0.61931  -0.61138  -0.55075  -0.54343
 Alpha  occ. eigenvalues --   -0.52898  -0.52680  -0.52120  -0.51911  -0.48398
 Alpha  occ. eigenvalues --   -0.48342  -0.47457  -0.47354  -0.44349  -0.43237
 Alpha  occ. eigenvalues --   -0.37138  -0.36371  -0.36194  -0.35420
 Alpha virt. eigenvalues --    0.05376   0.06291   0.11457   0.12223   0.16831
 Alpha virt. eigenvalues --    0.17685   0.21561   0.22239   0.27452   0.28117
 Alpha virt. eigenvalues --    0.28468   0.29206   0.31092   0.31728   0.32694

 Mulliken charges:
               1
     1  C   -0.171367
     2  C   -0.218419
     3  C   -0.170678
     4  C    0.159317
     5  C   -0.171546
     6  C   -0.218389
     7  H    0.224522
     8  H    0.223192
     9  H    0.276913
    10  H    0.272829
    11  H    0.221389
    12  N    0.489267
    13  O   -0.464532
    14  O   -0.451934
    15  C   -0.172827
    16  C   -0.221559
    17  C   -0.162624
    18  C    0.160039
    19  C   -0.172758
    20  C   -0.220035
    21  H    0.220435
    22  H    0.219667
    23  H    0.283394
    24  H    0.272732
    25  H    0.218584
    26  N    0.488069
    27  O   -0.470702
    28  O   -0.442979
 Sum of Mulliken charges =  -0.00000

 Dipole moment (field-independent basis, Debye):
    X=              2.4025    Y=              7.3347    Z=              0.1773  Tot=              7.7202
 Quadrupole moment (field-independent basis, Debye-Ang):
   XX=            -68.4742   YY=           -105.7870   ZZ=           -102.4027
   XY=             -8.3832   XZ=              5.2574   YZ=              1.1531

 Normal termination of Gaussian 16 at Fri May  7 03:33:00 2021.
