 Gaussian 16, Revision A.03,
 Gaussian 16:  EM64L-G16RevA.03 25-Dec-2016

 -------------
 #p 6-31g* mp2
 -------------

 ------------------------------------------------------
 Input file generated by CHIRIPA (05-May-2021 14:51:10)
 ------------------------------------------------------
 Symbolic Z-matrix:
 Charge =  0 Multiplicity = 1

                         Standard orientation:
 ---------------------------------------------------------------------
 Center     Atomic      Atomic             Coordinates (Angstroms)
 Number     Number       Type             X           Y           Z
 ---------------------------------------------------------------------
      1          6           0       -4.111049   -0.350953    0.587445
      2          6           0       -2.849004    0.426387    0.211986
      3          6           0       -1.655239    0.081373    1.102876
      4          1           0       -4.362833   -0.144184    1.636634
      5          1           0       -3.902907   -1.427908    0.522344
      6          1           0       -3.059867    1.501561    0.276437
      7          1           0       -2.600305    0.217893   -0.836487
      8          1           0       -1.416682   -0.984740    1.031503
      9          1           0       -1.878855    0.306221    2.150750
     10          1           0       -0.763814    0.648372    0.816987
     11          6           0       -5.313068   -0.016910   -0.294198
     12          6           0       -6.575113   -0.794250    0.081261
     13          6           0       -7.768878   -0.449236   -0.809629
     14          1           0       -5.521210    1.060046   -0.229097
     15          1           0       -5.061284   -0.223679   -1.343387
     16          1           0       -6.823812   -0.585756    1.129734
     17          1           0       -6.364250   -1.869424    0.016810
     18          1           0       -7.545262   -0.674084   -1.857503
     19          1           0       -8.007435    0.616877   -0.738256
     20          1           0       -8.660303   -1.016235   -0.523740
     21          6           0        5.406886    0.018622    0.124152
     22          6           0        5.995891   -1.265494   -0.460747
     23          6           0        7.386237   -1.582823    0.090649
     24          1           0        6.086465    0.855589   -0.087044
     25          1           0        5.356138   -0.074479    1.217838
     26          1           0        6.044229   -1.170537   -1.553112
     27          1           0        5.314738   -2.099468   -0.248301
     28          1           0        7.350878   -1.704323    1.178118
     29          1           0        8.084514   -0.770114   -0.134107
     30          1           0        7.788437   -2.504737   -0.340826
     31          6           0        4.017231    0.349240   -0.417398
     32          6           0        3.428226    1.633356    0.167499
     33          6           0        2.037880    1.950686   -0.383896
     34          1           0        4.067979    0.442342   -1.511085
     35          1           0        3.337652   -0.487727   -0.206203
     36          1           0        4.109378    2.467330   -0.044946
     37          1           0        3.379888    1.538400    1.259865
     38          1           0        1.339603    1.137977   -0.159140
     39          1           0        2.073238    2.072186   -1.471364
     40          1           0        1.635680    2.872600    0.047579
 ---------------------------------------------------------------------

 SCF Done:  E(RHF) =  -470.733312149     A.U. after   11 cycles
 E2 =    -0.1582150868D+01 EUMP2 =    -0.47231546301670D+03

 The electronic state is 1-A.
 Alpha  occ. eigenvalues --  -11.21603 -11.21597 -11.21589 -11.21574 -11.21400
 Alpha  occ. eigenvalues --  -11.21386 -11.21341 -11.21327 -11.21076 -11.21067
 Alpha  occ. eigenvalues --  -11.21060 -11.21030  -1.08428  -1.08410  -1.03538
 Alpha  occ. eigenvalues --   -1.03503  -0.96008  -0.95938  -0.87044  -0.86939
 Alpha  occ. eigenvalues --   -0.79620  -0.79548  -0.78239  -0.78222  -0.65061
 Alpha  occ. eigenvalues --   -0.65040  -0.60960  -0.60903  -0.59350  -0.59342
 Alpha  occ. eigenvalues --   -0.57661  -0.57518  -0.55290  -0.55238  -0.52788
 Alpha  occ. eigenvalues --   -0.52634  -0.52442  -0.52273  -0.49921  -0.49882
 Alpha  occ. eigenvalues --   -0.47970  -0.47825  -0.46622  -0.46599  -0.45784
 Alpha  occ. eigenvalues --   -0.45762  -0.45704  -0.45690  -0.43796  -0.43725
 Alpha virt. eigenvalues --    0.22153   0.22998   0.23529   0.24804   0.26413
 Alpha virt. eigenvalues --    0.26676   0.27010   0.27533   0.27645   0.28754
 Alpha virt. eigenvalues --    0.30430   0.31430   0.31719   0.31892   0.32001

 Mulliken charges:
               1
     1  C   -0.298435
     2  C   -0.298764
     3  C   -0.483999
     4  H    0.149559
     5  H    0.149367
     6  H    0.152060
     7  H    0.152106
     8  H    0.154393
     9  H    0.155079
    10  H    0.168247
    11  C   -0.298235
    12  C   -0.299626
    13  C   -0.475693
    14  H    0.149537
    15  H    0.149666
    16  H    0.151897
    17  H    0.151876
    18  H    0.155176
    19  H    0.155179
    20  H    0.160197
    21  C   -0.298338
    22  C   -0.299669
    23  C   -0.475710
    24  H    0.149618
    25  H    0.149648
    26  H    0.151882
    27  H    0.151994
    28  H    0.155223
    29  H    0.155162
    30  H    0.160231
    31  C   -0.298604
    32  C   -0.299248
    33  C   -0.482508
    34  H    0.149451
    35  H    0.150088
    36  H    0.151967
    37  H    0.152248
    38  H    0.161245
    39  H    0.155499
    40  H    0.160233
 Sum of Mulliken charges =  -0.00000

 Dipole moment (field-independent basis, Debye):
    X=              0.0150    Y=              0.0085    Z=             -0.0046  Tot=              0.0178
 Quadrupole moment (field-independent basis, Debye-Ang):
   XX=            -86.5205   YY=            -84.0958   ZZ=            -84.1963
   XY=              0.5050   XZ=             -1.3229   YZ=              0.2771

 Normal termination of Gaussian 16 at Wed May  5 21:26:09 2021.
