 Gaussian 16, Revision A.03,
 Gaussian 16:  EM64L-G16RevA.03 25-Dec-2016

 -------------
 #p 6-31g* mp2
 -------------

 ------------------------------------------------------
 Input file generated by CHIRIPA (05-May-2021 14:53:16)
 ------------------------------------------------------
 Symbolic Z-matrix:
 Charge =  0 Multiplicity = 1

                         Standard orientation:
 ---------------------------------------------------------------------
 Center     Atomic      Atomic             Coordinates (Angstroms)
 Number     Number       Type             X           Y           Z
 ---------------------------------------------------------------------
      1          6           0       -4.532786    0.471258   -0.064229
      2          6           0       -6.020321    0.245108   -0.336406
      3          6           0       -6.786148    1.550094   -0.556212
      4          1           0       -4.421914    1.116225    0.818193
      5          1           0       -4.091693    1.018541   -0.908808
      6          1           0       -6.458176   -0.302798    0.507808
      7          1           0       -6.127661   -0.399553   -1.218170
      8          1           0       -6.376353    2.097983   -1.410897
      9          1           0       -6.708745    2.195287    0.324887
     10          1           0       -7.847492    1.365137   -0.749085
     11          6           0       -3.753735   -0.823971    0.157562
     12          6           0       -2.266200   -0.597822    0.429739
     13          6           0       -1.500373   -1.902808    0.649545
     14          1           0       -4.194828   -1.371254    1.002141
     15          1           0       -3.864607   -1.468939   -0.724860
     16          1           0       -2.158860    0.046839    1.311503
     17          1           0       -1.828345   -0.049915   -0.414475
     18          1           0       -1.577776   -2.548001   -0.231554
     19          1           0       -1.910169   -2.450697    1.504231
     20          1           0       -0.439029   -1.717851    0.842419
     21          6           0        3.650845    2.605052    0.290884
     22          6           0        4.068961    1.975213   -0.885978
     23          6           0        3.844893    0.608675   -1.078115
     24          6           0        3.196906   -0.100748   -0.068105
     25          6           0        2.768424    0.498235    1.115497
     26          6           0        3.003053    1.865857    1.286111
     27          1           0        3.829009    3.667032    0.431780
     28          1           0        4.572283    2.546779   -1.660589
     29          1           0        4.158081    0.095891   -1.979438
     30          1           0        2.269198   -0.097900    1.869695
     31          1           0        2.677239    2.352358    2.201100
     32          7           0        2.954104   -1.548014   -0.260119
     33          8           0        2.381107   -2.150756    0.644875
     34          8           0        3.341392   -2.052235   -1.311978
 ---------------------------------------------------------------------

 SCF Done:  E(RHF) =  -669.536174772     A.U. after   15 cycles
 E2 =    -0.2091055487D+01 EUMP2 =    -0.67162723025849D+03

 The electronic state is 1-A.
 Alpha  occ. eigenvalues --  -20.60931 -20.60925 -15.85948 -11.31268 -11.27832
 Alpha  occ. eigenvalues --  -11.27828 -11.27568 -11.26841 -11.26831 -11.21440
 Alpha  occ. eigenvalues --  -11.21189 -11.21178 -11.21033 -11.20974 -11.20206
 Alpha  occ. eigenvalues --   -1.59981  -1.39540  -1.19437  -1.08842  -1.08141
 Alpha  occ. eigenvalues --   -1.04833  -1.03182  -0.95690  -0.95593  -0.86604
 Alpha  occ. eigenvalues --   -0.86235  -0.82518  -0.79255  -0.77959  -0.77573
 Alpha  occ. eigenvalues --   -0.72174  -0.71292  -0.70547  -0.65094  -0.64838
 Alpha  occ. eigenvalues --   -0.64779  -0.62183  -0.60587  -0.58982  -0.57216
 Alpha  occ. eigenvalues --   -0.55338  -0.54893  -0.53164  -0.52927  -0.52249
 Alpha  occ. eigenvalues --   -0.52026  -0.49548  -0.48937  -0.48927  -0.47567
 Alpha  occ. eigenvalues --   -0.46315  -0.45492  -0.45431  -0.44948  -0.43363
 Alpha  occ. eigenvalues --   -0.37414  -0.36433
 Alpha virt. eigenvalues --    0.04919   0.11197   0.16389   0.21249   0.23117
 Alpha virt. eigenvalues --    0.24547   0.26897   0.27025   0.27687   0.27849
 Alpha virt. eigenvalues --    0.28752   0.30498   0.31733   0.31747   0.32095

 Mulliken charges:
               1
     1  C   -0.297589
     2  C   -0.299419
     3  C   -0.475438
     4  H    0.147446
     5  H    0.148286
     6  H    0.151908
     7  H    0.152447
     8  H    0.154482
     9  H    0.154108
    10  H    0.159959
    11  C   -0.297527
    12  C   -0.299975
    13  C   -0.482588
    14  H    0.149215
    15  H    0.150653
    16  H    0.145727
    17  H    0.149094
    18  H    0.157401
    19  H    0.152360
    20  H    0.174321
    21  C   -0.170589
    22  C   -0.218530
    23  C   -0.170920
    24  C    0.158584
    25  C   -0.171227
    26  C   -0.218337
    27  H    0.225947
    28  H    0.223731
    29  H    0.275730
    30  H    0.276098
    31  H    0.223904
    32  N    0.488407
    33  O   -0.459156
    34  O   -0.458514
 Sum of Mulliken charges =  -0.00000

 Dipole moment (field-independent basis, Debye):
    X=              1.0555    Y=              5.0386    Z=              0.6479  Tot=              5.1885
 Quadrupole moment (field-independent basis, Debye-Ang):
   XX=            -89.8110   YY=            -96.9639   ZZ=            -90.0176
   XY=             17.2681   XZ=             -0.4874   YZ=             -0.3703

 Normal termination of Gaussian 16 at Wed May  5 23:33:57 2021.
