 Gaussian 16, Revision A.03,
 Gaussian 16:  EM64L-G16RevA.03 25-Dec-2016

 -------------
 #p 6-31g* mp2
 -------------

 ------------------------------------------------------
 Input file generated by CHIRIPA (05-May-2021 14:51:10)
 ------------------------------------------------------
 Symbolic Z-matrix:
 Charge =  0 Multiplicity = 1

                         Standard orientation:
 ---------------------------------------------------------------------
 Center     Atomic      Atomic             Coordinates (Angstroms)
 Number     Number       Type             X           Y           Z
 ---------------------------------------------------------------------
      1          6           0        4.145153    0.776479   -0.300507
      2          6           0        3.138482    1.794416    0.236523
      3          6           0        3.437065    3.221165   -0.225029
      4          1           0        5.155225    1.063924    0.022099
      5          1           0        4.144893    0.815219   -1.398639
      6          1           0        3.139639    1.752793    1.333283
      7          1           0        2.130667    1.504408   -0.087238
      8          1           0        3.416098    3.284890   -1.317778
      9          1           0        4.430802    3.534686    0.110814
     10          1           0        2.705250    3.932467    0.170392
     11          6           0        3.859970   -0.654399    0.152250
     12          6           0        4.866641   -1.672337   -0.384780
     13          6           0        4.568059   -3.099085    0.076772
     14          1           0        3.860231   -0.693139    1.250382
     15          1           0        2.849898   -0.941844   -0.170356
     16          1           0        5.874456   -1.382329   -0.061019
     17          1           0        4.865484   -1.630714   -1.481540
     18          1           0        3.574321   -3.412607   -0.259071
     19          1           0        4.589026   -3.162810    1.169521
     20          1           0        5.299873   -3.810387   -0.318649
     21          6           0       -3.304391   -0.346944    0.193499
     22          6           0       -2.217830    0.724912    0.285659
     23          6           0       -0.826615    0.137366    0.524626
     24          1           0       -3.308169   -0.936826    1.120306
     25          1           0       -3.054858   -1.043189   -0.619131
     26          1           0       -2.470051    1.419726    1.096975
     27          1           0       -2.216766    1.312435   -0.641396
     28          1           0       -0.549761   -0.540598   -0.289203
     29          1           0       -0.804486   -0.432697    1.459045
     30          1           0       -0.065174    0.921044    0.587201
     31          6           0       -4.700732    0.224864   -0.045242
     32          6           0       -5.787293   -0.846992   -0.137402
     33          6           0       -7.178508   -0.259446   -0.376369
     34          1           0       -4.950265    0.921110    0.767389
     35          1           0       -4.696953    0.814747   -0.972048
     36          1           0       -5.788357   -1.434514    0.789654
     37          1           0       -5.535072   -1.541807   -0.948718
     38          1           0       -7.200637    0.310617   -1.310789
     39          1           0       -7.455361    0.418519    0.437461
     40          1           0       -7.939949   -1.043124   -0.438943
 ---------------------------------------------------------------------

 SCF Done:  E(RHF) =  -470.733275383     A.U. after   11 cycles
 E2 =    -0.1582504023D+01 EUMP2 =    -0.47231577940536D+03

 The electronic state is 1-A.
 Alpha  occ. eigenvalues --  -11.21611 -11.21607 -11.21564 -11.21553 -11.21411
 Alpha  occ. eigenvalues --  -11.21360 -11.21352 -11.21297 -11.21075 -11.21059
 Alpha  occ. eigenvalues --  -11.21055 -11.21039  -1.08438  -1.08390  -1.03543
 Alpha  occ. eigenvalues --   -1.03493  -0.95988  -0.95945  -0.87016  -0.86952
 Alpha  occ. eigenvalues --   -0.79642  -0.79527  -0.78258  -0.78191  -0.65073
 Alpha  occ. eigenvalues --   -0.65022  -0.60945  -0.60906  -0.59457  -0.59224
 Alpha  occ. eigenvalues --   -0.57646  -0.57508  -0.55273  -0.55232  -0.52765
 Alpha  occ. eigenvalues --   -0.52603  -0.52436  -0.52335  -0.49930  -0.49884
 Alpha  occ. eigenvalues --   -0.48012  -0.47784  -0.46644  -0.46577  -0.45798
 Alpha  occ. eigenvalues --   -0.45750  -0.45717  -0.45655  -0.43780  -0.43689
 Alpha virt. eigenvalues --    0.21972   0.23021   0.23731   0.24570   0.25896
 Alpha virt. eigenvalues --    0.26675   0.26997   0.27372   0.27940   0.29185
 Alpha virt. eigenvalues --    0.29951   0.31442   0.31570   0.31867   0.32027

 Mulliken charges:
               1
     1  C   -0.297645
     2  C   -0.307170
     3  C   -0.475267
     4  H    0.149447
     5  H    0.149157
     6  H    0.151651
     7  H    0.159332
     8  H    0.155012
     9  H    0.155199
    10  H    0.159841
    11  C   -0.299348
    12  C   -0.299648
    13  C   -0.475619
    14  H    0.149455
    15  H    0.151586
    16  H    0.151787
    17  H    0.151686
    18  H    0.155231
    19  H    0.155167
    20  H    0.160035
    21  C   -0.298519
    22  C   -0.299333
    23  C   -0.482366
    24  H    0.149753
    25  H    0.149371
    26  H    0.152027
    27  H    0.151726
    28  H    0.154062
    29  H    0.155737
    30  H    0.167554
    31  C   -0.298236
    32  C   -0.299634
    33  C   -0.475704
    34  H    0.149557
    35  H    0.149606
    36  H    0.151977
    37  H    0.151897
    38  H    0.155167
    39  H    0.155201
    40  H    0.160270
 Sum of Mulliken charges =  -0.00000

 Dipole moment (field-independent basis, Debye):
    X=             -0.0119    Y=             -0.0003    Z=              0.0103  Tot=              0.0157
 Quadrupole moment (field-independent basis, Debye-Ang):
   XX=            -85.6907   YY=            -86.0781   ZZ=            -83.1382
   XY=              0.2541   XZ=              0.1788   YZ=              0.5011

 Normal termination of Gaussian 16 at Wed May  5 19:48:07 2021.
