 Gaussian 16, Revision A.03,
 Gaussian 16:  EM64L-G16RevA.03 25-Dec-2016

 -------------
 #p 6-31g* mp2
 -------------

 ------------------------------------------------------
 Input file generated by CHIRIPA (05-May-2021 14:57:25)
 ------------------------------------------------------
 Symbolic Z-matrix:
 Charge =  0 Multiplicity = 1

                         Standard orientation:
 ---------------------------------------------------------------------
 Center     Atomic      Atomic             Coordinates (Angstroms)
 Number     Number       Type             X           Y           Z
 ---------------------------------------------------------------------
      1          6           0        4.127778   -2.201751    0.104385
      2          6           0        4.256239   -1.447992   -1.066882
      3          6           0        3.632649   -0.201963   -1.181316
      4          6           0        2.884849    0.261901   -0.100152
      5          6           0        2.738075   -0.465550    1.079917
      6          6           0        3.370442   -1.708993    1.172164
      7          1           0        4.615607   -3.168692    0.184663
      8          1           0        4.843772   -1.828170   -1.897734
      9          1           0        3.715523    0.402341   -2.076507
     10          1           0        2.145812   -0.060175    1.891283
     11          1           0        3.268941   -2.292195    2.082998
     12          7           0        2.220037    1.579647   -0.209554
     13          8           0        1.566780    1.966028    0.757195
     14          8           0        2.364802    2.201165   -1.259980
     15          6           0       -1.888401    2.123548    0.746398
     16          6           0       -1.652754    0.961476    1.488408
     17          6           0       -2.260205   -0.245484    1.129521
     18          6           0       -3.101344   -0.254340    0.017901
     19          6           0       -3.355956    0.886646   -0.741449
     20          6           0       -2.737754    2.082496   -0.364204
     21          1           0       -1.412343    3.056829    1.032321
     22          1           0       -0.993607    0.990393    2.351388
     23          1           0       -2.095274   -1.159959    1.686252
     24          1           0       -4.017989    0.826591   -1.596741
     25          1           0       -2.922595    2.983422   -0.942314
     26          7           0       -3.750117   -1.526214   -0.371754
     27          8           0       -4.486971   -1.507651   -1.355287
     28          8           0       -3.509486   -2.517589    0.313746
 ---------------------------------------------------------------------

 SCF Done:  E(RHF) =  -868.339778659     A.U. after   16 cycles
 E2 =    -0.2599949898D+01 EUMP2 =    -0.87093972855693D+03

 The electronic state is 1-A.
 Alpha  occ. eigenvalues --  -20.61557 -20.61543 -20.60270 -20.60260 -15.86568
 Alpha  occ. eigenvalues --  -15.85316 -11.31687 -11.30421 -11.28271 -11.28192
 Alpha  occ. eigenvalues --  -11.27890 -11.27187 -11.27150 -11.27003 -11.26979
 Alpha  occ. eigenvalues --  -11.26473 -11.25850 -11.25839  -1.60599  -1.59351
 Alpha  occ. eigenvalues --   -1.40169  -1.38913  -1.19826  -1.18559  -1.09262
 Alpha  occ. eigenvalues --   -1.07944  -1.05199  -1.03944  -0.96151  -0.94833
 Alpha  occ. eigenvalues --   -0.86607  -0.85318  -0.83002  -0.81703  -0.78085
 Alpha  occ. eigenvalues --   -0.76824  -0.72844  -0.71894  -0.71536  -0.70937
 Alpha  occ. eigenvalues --   -0.70675  -0.69545  -0.65492  -0.65201  -0.64186
 Alpha  occ. eigenvalues --   -0.63909  -0.62563  -0.61314  -0.55694  -0.54287
 Alpha  occ. eigenvalues --   -0.53526  -0.53293  -0.52268  -0.52021  -0.49590
 Alpha  occ. eigenvalues --   -0.49531  -0.48310  -0.48266  -0.45631  -0.44379
 Alpha  occ. eigenvalues --   -0.37777  -0.36788  -0.36368  -0.35557
 Alpha virt. eigenvalues --    0.04423   0.05741   0.10869   0.12119   0.16017
 Alpha virt. eigenvalues --    0.17321   0.20637   0.22312   0.26123   0.27354
 Alpha virt. eigenvalues --    0.28746   0.29313   0.30525   0.31395   0.32775

 Mulliken charges:
               1
     1  C   -0.169292
     2  C   -0.217946
     3  C   -0.169982
     4  C    0.159689
     5  C   -0.169597
     6  C   -0.217643
     7  H    0.228378
     8  H    0.225802
     9  H    0.276447
    10  H    0.268842
    11  H    0.224800
    12  N    0.491258
    13  O   -0.471029
    14  O   -0.457456
    15  C   -0.158736
    16  C   -0.214379
    17  C   -0.176423
    18  C    0.156573
    19  C   -0.172151
    20  C   -0.221065
    21  H    0.236802
    22  H    0.221772
    23  H    0.268565
    24  H    0.272695
    25  H    0.223267
    26  N    0.488403
    27  O   -0.462447
    28  O   -0.465146
 Sum of Mulliken charges =  -0.00000

 Dipole moment (field-independent basis, Debye):
    X=              5.0252    Y=              0.0294    Z=              1.6832  Tot=              5.2996
 Quadrupole moment (field-independent basis, Debye-Ang):
   XX=           -105.3987   YY=           -109.0398   ZZ=            -98.1337
   XY=            -29.5093   XZ=             -3.6539   YZ=             -2.2167

 Normal termination of Gaussian 16 at Wed May  5 22:46:36 2021.
