 Gaussian 16, Revision A.03,
 Gaussian 16:  EM64L-G16RevA.03 25-Dec-2016

 -------------
 #p 6-31g* mp2
 -------------

 ------------------------------------------------------
 Input file generated by CHIRIPA (05-May-2021 14:53:15)
 ------------------------------------------------------
 Symbolic Z-matrix:
 Charge =  0 Multiplicity = 1

                         Standard orientation:
 ---------------------------------------------------------------------
 Center     Atomic      Atomic             Coordinates (Angstroms)
 Number     Number       Type             X           Y           Z
 ---------------------------------------------------------------------
      1          6           0       -3.170607   -0.170313   -0.157644
      2          6           0       -2.861826   -1.532209   -0.780443
      3          6           0       -3.765972   -2.644366   -0.248070
      4          1           0       -3.064108   -0.240610    0.933530
      5          1           0       -4.221317    0.084834   -0.353356
      6          1           0       -1.811635   -1.784081   -0.584804
      7          1           0       -2.968886   -1.458612   -1.870277
      8          1           0       -4.816922   -2.419469   -0.456702
      9          1           0       -3.653095   -2.746787    0.836074
     10          1           0       -3.528008   -3.609243   -0.706596
     11          6           0       -2.275000    0.951711   -0.679832
     12          6           0       -2.583781    2.313607   -0.057033
     13          6           0       -1.679635    3.425764   -0.589405
     14          1           0       -1.224290    0.696564   -0.484120
     15          1           0       -2.381499    1.022008   -1.771006
     16          1           0       -2.476721    2.240010    1.032801
     17          1           0       -3.633972    2.565479   -0.252672
     18          1           0       -1.792512    3.528185   -1.673550
     19          1           0       -0.628686    3.200867   -0.380773
     20          1           0       -1.917599    4.390641   -0.130880
     21          6           0        3.969732   -0.135306   -1.388113
     22          6           0        3.795402    0.882723   -0.444848
     23          6           0        2.777815    0.799123    0.510179
     24          6           0        1.949060   -0.321661    0.492963
     25          6           0        2.097413   -1.352333   -0.433859
     26          6           0        3.121676   -1.247623   -1.379622
     27          1           0        4.762811   -0.062164   -2.126403
     28          1           0        4.452516    1.747725   -0.449068
     29          1           0        2.620499    1.572789    1.251872
     30          1           0        1.426598   -2.202374   -0.404631
     31          1           0        3.254720   -2.039753   -2.110973
     32          7           0        0.868253   -0.421339    1.499104
     33          8           0        0.151434   -1.419082    1.462812
     34          8           0        0.758399    0.500164    2.304958
 ---------------------------------------------------------------------

 SCF Done:  E(RHF) =  -669.536396187     A.U. after   15 cycles
 E2 =    -0.2093153730D+01 EUMP2 =    -0.67162954991688D+03

 The electronic state is 1-A.
 Alpha  occ. eigenvalues --  -20.61064 -20.61059 -15.86071 -11.31347 -11.27900
 Alpha  occ. eigenvalues --  -11.27896 -11.27622 -11.26892 -11.26882 -11.20881
 Alpha  occ. eigenvalues --  -11.20691 -11.20613 -11.20594 -11.20380 -11.20190
 Alpha  occ. eigenvalues --   -1.60117  -1.39673  -1.19506  -1.08922  -1.07592
 Alpha  occ. eigenvalues --   -1.04891  -1.02734  -0.95773  -0.95221  -0.86296
 Alpha  occ. eigenvalues --   -0.86239  -0.82607  -0.78820  -0.77684  -0.77404
 Alpha  occ. eigenvalues --   -0.72304  -0.71453  -0.70612  -0.65165  -0.64893
 Alpha  occ. eigenvalues --   -0.64160  -0.62241  -0.60102  -0.58605  -0.56841
 Alpha  occ. eigenvalues --   -0.55398  -0.54500  -0.53223  -0.52983  -0.51939
 Alpha  occ. eigenvalues --   -0.51662  -0.49155  -0.49073  -0.49052  -0.47159
 Alpha  occ. eigenvalues --   -0.45842  -0.45293  -0.44899  -0.44617  -0.42995
 Alpha  occ. eigenvalues --   -0.37474  -0.36485
 Alpha virt. eigenvalues --    0.04809   0.11128   0.16270   0.21122   0.23469
 Alpha virt. eigenvalues --    0.24900   0.26363   0.27272   0.28057   0.28467
 Alpha virt. eigenvalues --    0.28746   0.30744   0.31272   0.32317   0.32710

 Mulliken charges:
               1
     1  C   -0.298387
     2  C   -0.303503
     3  C   -0.475665
     4  H    0.163320
     5  H    0.144464
     6  H    0.162402
     7  H    0.142955
     8  H    0.150930
     9  H    0.162361
    10  H    0.154632
    11  C   -0.295234
    12  C   -0.300890
    13  C   -0.474354
    14  H    0.142607
    15  H    0.144432
    16  H    0.161946
    17  H    0.149458
    18  H    0.151440
    19  H    0.151982
    20  H    0.158893
    21  C   -0.170210
    22  C   -0.218332
    23  C   -0.171393
    24  C    0.155982
    25  C   -0.171026
    26  C   -0.218385
    27  H    0.226327
    28  H    0.224199
    29  H    0.276042
    30  H    0.276627
    31  H    0.224279
    32  N    0.490312
    33  O   -0.459679
    34  O   -0.458529
 Sum of Mulliken charges =  -0.00000

 Dipole moment (field-independent basis, Debye):
    X=              3.9955    Y=              0.3020    Z=             -3.3081  Tot=              5.1960
 Quadrupole moment (field-independent basis, Debye-Ang):
   XX=            -80.2380   YY=            -92.4997   ZZ=            -97.7800
   XY=              0.1608   XZ=             -4.7068   YZ=              3.4778

 Normal termination of Gaussian 16 at Thu May  6 17:09:29 2021.
