 Gaussian 16, Revision A.03,
 Gaussian 16:  EM64L-G16RevA.03 25-Dec-2016

 -------------
 #p 6-31g* mp2
 -------------

 ------------------------------------------------------
 Input file generated by CHIRIPA (05-May-2021 14:57:24)
 ------------------------------------------------------
 Symbolic Z-matrix:
 Charge =  0 Multiplicity = 1

                         Standard orientation:
 ---------------------------------------------------------------------
 Center     Atomic      Atomic             Coordinates (Angstroms)
 Number     Number       Type             X           Y           Z
 ---------------------------------------------------------------------
      1          6           0        1.818204    1.369532    0.614110
      2          6           0        2.038087    0.099889    1.158332
      3          6           0        3.226580   -0.588452    0.897141
      4          6           0        4.177929    0.025361    0.083841
      5          6           0        3.988219    1.289156   -0.473044
      6          6           0        2.792254    1.959074   -0.198409
      7          1           0        0.892052    1.897096    0.822232
      8          1           0        1.283395   -0.360403    1.789693
      9          1           0        3.422718   -1.572411    1.305521
     10          1           0        4.759168    1.722232   -1.098745
     11          1           0        2.624205    2.944987   -0.622415
     12          7           0        5.440089   -0.693604   -0.199787
     13          8           0        6.262497   -0.131081   -0.919405
     14          8           0        5.583062   -1.806037    0.302894
     15          6           0       -1.459639   -0.228913   -0.369800
     16          6           0       -2.210849   -1.406021   -0.451170
     17          6           0       -3.602296   -1.370790   -0.320089
     18          6           0       -4.212595   -0.135631   -0.107460
     19          6           0       -3.491684    1.054419   -0.021687
     20          6           0       -2.101322    0.995392   -0.155696
     21          1           0       -0.379151   -0.265525   -0.472764
     22          1           0       -1.715194   -2.358252   -0.617383
     23          1           0       -4.208157   -2.266829   -0.378933
     24          1           0       -4.014066    1.988688    0.144673
     25          1           0       -1.520470    1.911146   -0.092067
     26          7           0       -5.685082   -0.085737    0.032860
     27          8           0       -6.198873    1.015070    0.219619
     28          8           0       -6.297546   -1.148382   -0.046575
 ---------------------------------------------------------------------

 SCF Done:  E(RHF) =  -868.336346918     A.U. after   16 cycles
 E2 =    -0.2601687159D+01 EUMP2 =    -0.87093803407718D+03

 The electronic state is 1-A.
 Alpha  occ. eigenvalues --  -20.61585 -20.61579 -20.61278 -20.61270 -15.86644
 Alpha  occ. eigenvalues --  -15.86338 -11.32239 -11.31824 -11.28823 -11.28788
 Alpha  occ. eigenvalues --  -11.28680 -11.28468 -11.28391 -11.28102 -11.27916
 Alpha  occ. eigenvalues --  -11.27882 -11.27566 -11.27396  -1.60655  -1.60351
 Alpha  occ. eigenvalues --   -1.40201  -1.39901  -1.20448  -1.20022  -1.09838
 Alpha  occ. eigenvalues --   -1.09386  -1.05861  -1.05455  -0.96628  -0.96187
 Alpha  occ. eigenvalues --   -0.87259  -0.86859  -0.83416  -0.83038  -0.78406
 Alpha  occ. eigenvalues --   -0.78070  -0.72859  -0.72556  -0.71982  -0.71703
 Alpha  occ. eigenvalues --   -0.71677  -0.71033  -0.66093  -0.65880  -0.65669
 Alpha  occ. eigenvalues --   -0.65454  -0.63172  -0.62809  -0.56427  -0.56037
 Alpha  occ. eigenvalues --   -0.54088  -0.53943  -0.53749  -0.53544  -0.49634
 Alpha  occ. eigenvalues --   -0.49598  -0.49322  -0.49298  -0.45555  -0.45279
 Alpha  occ. eigenvalues --   -0.38491  -0.38010  -0.37438  -0.37066
 Alpha virt. eigenvalues --    0.04071   0.04465   0.10061   0.10511   0.15408
 Alpha virt. eigenvalues --    0.15895   0.18860   0.21896   0.24650   0.26345
 Alpha virt. eigenvalues --    0.27871   0.29198   0.29525   0.31273   0.31761

 Mulliken charges:
               1
     1  C   -0.181281
     2  C   -0.227743
     3  C   -0.170755
     4  C    0.159798
     5  C   -0.169604
     6  C   -0.217873
     7  H    0.226415
     8  H    0.229030
     9  H    0.278768
    10  H    0.279445
    11  H    0.226630
    12  N    0.487846
    13  O   -0.457193
    14  O   -0.457957
    15  C   -0.180973
    16  C   -0.220818
    17  C   -0.169291
    18  C    0.158556
    19  C   -0.169304
    20  C   -0.225201
    21  H    0.235257
    22  H    0.226304
    23  H    0.277989
    24  H    0.276738
    25  H    0.215098
    26  N    0.487993
    27  O   -0.459524
    28  O   -0.458348
 Sum of Mulliken charges =  -0.00000

 Dipole moment (field-independent basis, Debye):
    X=              0.9498    Y=              2.2504    Z=              0.4719  Tot=              2.4878
 Quadrupole moment (field-independent basis, Debye-Ang):
   XX=           -184.4281   YY=            -96.8405   ZZ=           -104.2383
   XY=             12.4800   XZ=              4.3943   YZ=             -1.5194

 Normal termination of Gaussian 16 at Fri May  7 01:53:14 2021.
