 Gaussian 16, Revision A.03,
 Gaussian 16:  EM64L-G16RevA.03 25-Dec-2016

 -------------
 #p 6-31g* mp2
 -------------

 ------------------------------------------------------
 Input file generated by CHIRIPA (05-May-2021 14:57:25)
 ------------------------------------------------------
 Symbolic Z-matrix:
 Charge =  0 Multiplicity = 1

                         Standard orientation:
 ---------------------------------------------------------------------
 Center     Atomic      Atomic             Coordinates (Angstroms)
 Number     Number       Type             X           Y           Z
 ---------------------------------------------------------------------
      1          6           0        1.371027    1.713492    1.003144
      2          6           0        1.607108    0.574185    1.779524
      3          6           0        2.550431   -0.376071    1.377401
      4          6           0        3.242762   -0.154229    0.187966
      5          6           0        3.030005    0.970760   -0.607284
      6          6           0        2.081976    1.907801   -0.185686
      7          1           0        0.636403    2.446540    1.323087
      8          1           0        1.056456    0.420670    2.703245
      9          1           0        2.753010   -1.267023    1.959281
     10          1           0        3.594519    1.096264   -1.523248
     11          1           0        1.900709    2.791665   -0.790643
     12          7           0        4.243907   -1.153227   -0.248052
     13          8           0        4.840684   -0.934544   -1.300037
     14          8           0        4.412871   -2.136009    0.470438
     15          6           0       -1.578589    1.925385   -0.868985
     16          6           0       -1.603825    0.780028   -1.671508
     17          6           0       -2.430622   -0.298599   -1.343609
     18          6           0       -3.222696   -0.197564   -0.200937
     19          6           0       -3.219752    0.930036    0.618697
     20          6           0       -2.385211    1.996608    0.271545
     21          1           0       -0.933305    2.758607   -1.131182
     22          1           0       -0.978462    0.721934   -2.557843
     23          1           0       -2.469746   -1.197249   -1.947194
     24          1           0       -3.854433    0.958639    1.496068
     25          1           0       -2.367666    2.884854    0.896651
     26          7           0       -4.102089   -1.333077    0.156386
     27          8           0       -4.790375   -1.219321    1.168294
     28          8           0       -4.086417   -2.315347   -0.582218
 ---------------------------------------------------------------------

 SCF Done:  E(RHF) =  -868.335446494     A.U. after   16 cycles
 E2 =    -0.2602464259D+01 EUMP2 =    -0.87093791075284D+03

 The electronic state is 1-A.
 Alpha  occ. eigenvalues --  -20.61252 -20.61237 -20.61170 -20.61156 -15.86308
 Alpha  occ. eigenvalues --  -15.86227 -11.31805 -11.31690 -11.28460 -11.28367
 Alpha  occ. eigenvalues --  -11.28360 -11.28280 -11.28265 -11.28126 -11.27543
 Alpha  occ. eigenvalues --  -11.27439 -11.27396 -11.27263  -1.60322  -1.60241
 Alpha  occ. eigenvalues --   -1.39871  -1.39791  -1.20030  -1.19899  -1.09460
 Alpha  occ. eigenvalues --   -1.09248  -1.05444  -1.05334  -0.96266  -0.96058
 Alpha  occ. eigenvalues --   -0.86857  -0.86741  -0.83044  -0.82930  -0.78042
 Alpha  occ. eigenvalues --   -0.77951  -0.72525  -0.72446  -0.71650  -0.71569
 Alpha  occ. eigenvalues --   -0.71350  -0.70923  -0.65685  -0.65576  -0.65505
 Alpha  occ. eigenvalues --   -0.65319  -0.62783  -0.62683  -0.56032  -0.55913
 Alpha  occ. eigenvalues --   -0.54077  -0.53546  -0.53441  -0.53310  -0.49296
 Alpha  occ. eigenvalues --   -0.49269  -0.49211  -0.49189  -0.45247  -0.45175
 Alpha  occ. eigenvalues --   -0.38674  -0.37257  -0.37089  -0.36816
 Alpha virt. eigenvalues --    0.04235   0.04841   0.10288   0.10836   0.15735
 Alpha virt. eigenvalues --    0.16295   0.18633   0.22087   0.25003   0.25751
 Alpha virt. eigenvalues --    0.27801   0.29145   0.29792   0.31109   0.32656

 Mulliken charges:
               1
     1  C   -0.161147
     2  C   -0.218955
     3  C   -0.169053
     4  C    0.158248
     5  C   -0.171514
     6  C   -0.223402
     7  H    0.219143
     8  H    0.226072
     9  H    0.278720
    10  H    0.275570
    11  H    0.215561
    12  N    0.488005
    13  O   -0.460654
    14  O   -0.457773
    15  C   -0.166491
    16  C   -0.215329
    17  C   -0.169242
    18  C    0.158602
    19  C   -0.171012
    20  C   -0.224873
    21  H    0.218375
    22  H    0.225917
    23  H    0.279247
    24  H    0.276431
    25  H    0.219200
    26  N    0.487902
    27  O   -0.460181
    28  O   -0.457366
 Sum of Mulliken charges =  -0.00000

 Dipole moment (field-independent basis, Debye):
    X=             -0.4622    Y=              7.2140    Z=              0.2834  Tot=              7.2343
 Quadrupole moment (field-independent basis, Debye-Ang):
   XX=           -148.1333   YY=           -106.2564   ZZ=            -97.4973
   XY=             -1.8462   XZ=              5.7141   YZ=             -0.3672

 Normal termination of Gaussian 16 at Fri May  7 05:01:48 2021.
