 Gaussian 16, Revision A.03,
 Gaussian 16:  EM64L-G16RevA.03 25-Dec-2016

 -------------
 #p 6-31g* mp2
 -------------

 ------------------------------------------------------
 Input file generated by CHIRIPA (05-May-2021 14:51:08)
 ------------------------------------------------------
 Symbolic Z-matrix:
 Charge =  0 Multiplicity = 1

                         Standard orientation:
 ---------------------------------------------------------------------
 Center     Atomic      Atomic             Coordinates (Angstroms)
 Number     Number       Type             X           Y           Z
 ---------------------------------------------------------------------
      1          6           0       -2.329093   -0.786189    0.809656
      2          6           0       -1.224025   -0.349022    1.771785
      3          6           0       -0.636442   -1.515648    2.566470
      4          1           0       -3.126863   -1.282664    1.378885
      5          1           0       -1.925998   -1.537261    0.116259
      6          1           0       -1.628718    0.402019    2.462275
      7          1           0       -0.428882    0.146640    1.200223
      8          1           0       -0.206736   -2.263461    1.892134
      9          1           0       -1.413389   -2.006631    3.161357
     10          1           0        0.151705   -1.180625    3.247971
     11          6           0       -2.926398    0.368966    0.008049
     12          6           0       -4.031467   -0.068201   -0.954080
     13          6           0       -4.619049    1.098425   -1.748766
     14          1           0       -3.329494    1.120038    0.701446
     15          1           0       -2.128628    0.865441   -0.561180
     16          1           0       -4.826609   -0.563863   -0.382518
     17          1           0       -3.626774   -0.819242   -1.644571
     18          1           0       -3.842102    1.589408   -2.343652
     19          1           0       -5.048755    1.846238   -1.074429
     20          1           0       -5.407197    0.763402   -2.430266
     21          6           0        2.777362    0.945466   -0.543364
     22          6           0        2.376807    1.865909    0.610032
     23          6           0        2.682389    3.336870    0.325971
     24          1           0        3.850589    1.066236   -0.744714
     25          1           0        2.250905    1.260912   -1.454809
     26          1           0        2.902806    1.547963    1.519347
     27          1           0        1.304448    1.742792    0.808787
     28          1           0        2.145721    3.676586   -0.565758
     29          1           0        3.753161    3.480650    0.148839
     30          1           0        2.388100    3.977042    1.163487
     31          6           0        2.478130   -0.528242   -0.274341
     32          6           0        2.878684   -1.448686   -1.427737
     33          6           0        2.573102   -2.919646   -1.143676
     34          1           0        3.004586   -0.843689    0.637104
     35          1           0        1.404902   -0.649013   -0.072990
     36          1           0        3.951043   -1.325570   -1.626492
     37          1           0        2.352686   -1.130740   -2.337052
     38          1           0        1.502330   -3.063427   -0.966544
     39          1           0        3.109769   -3.259363   -0.251947
     40          1           0        2.867392   -3.559820   -1.981192
 ---------------------------------------------------------------------

 SCF Done:  E(RHF) =  -470.732692118     A.U. after   11 cycles
 E2 =    -0.1584302677D+01 EUMP2 =    -0.47231699479526D+03

 The electronic state is 1-A.
 Alpha  occ. eigenvalues --  -11.21639 -11.21636 -11.21607 -11.21571 -11.21445
 Alpha  occ. eigenvalues --  -11.21429 -11.21384 -11.21367 -11.21121 -11.21100
 Alpha  occ. eigenvalues --  -11.21081 -11.21045  -1.08504  -1.08426  -1.03560
 Alpha  occ. eigenvalues --   -1.03547  -0.96019  -0.95984  -0.87028  -0.87007
 Alpha  occ. eigenvalues --   -0.79679  -0.79575  -0.78397  -0.78167  -0.65353
 Alpha  occ. eigenvalues --   -0.64883  -0.60967  -0.60953  -0.59418  -0.59322
 Alpha  occ. eigenvalues --   -0.57643  -0.57578  -0.55343  -0.55245  -0.52712
 Alpha  occ. eigenvalues --   -0.52673  -0.52440  -0.52410  -0.49963  -0.49941
 Alpha  occ. eigenvalues --   -0.48054  -0.47907  -0.46889  -0.46607  -0.46131
 Alpha  occ. eigenvalues --   -0.45779  -0.45760  -0.45102  -0.43814  -0.43792
 Alpha virt. eigenvalues --    0.20086   0.23040   0.23579   0.24144   0.25765
 Alpha virt. eigenvalues --    0.26565   0.26825   0.27834   0.28368   0.29778
 Alpha virt. eigenvalues --    0.30392   0.31456   0.31735   0.31848   0.32493

 Mulliken charges:
               1
     1  C   -0.298187
     2  C   -0.311563
     3  C   -0.475813
     4  H    0.150185
     5  H    0.148574
     6  H    0.152213
     7  H    0.162392
     8  H    0.156061
     9  H    0.154970
    10  H    0.160749
    11  C   -0.298117
    12  C   -0.299647
    13  C   -0.475718
    14  H    0.149869
    15  H    0.148372
    16  H    0.152221
    17  H    0.151867
    18  H    0.155041
    19  H    0.155309
    20  H    0.160409
    21  C   -0.298145
    22  C   -0.306430
    23  C   -0.475157
    24  H    0.149922
    25  H    0.148739
    26  H    0.151914
    27  H    0.158490
    28  H    0.155021
    29  H    0.155186
    30  H    0.160465
    31  C   -0.305372
    32  C   -0.299286
    33  C   -0.476036
    34  H    0.150029
    35  H    0.156881
    36  H    0.152247
    37  H    0.151575
    38  H    0.154436
    39  H    0.155755
    40  H    0.160578
 Sum of Mulliken charges =  -0.00000

 Dipole moment (field-independent basis, Debye):
    X=              0.0118    Y=              0.0016    Z=              0.0164  Tot=              0.0203
 Quadrupole moment (field-independent basis, Debye-Ang):
   XX=            -83.6754   YY=            -86.5290   ZZ=            -84.4997
   XY=             -0.0363   XZ=             -0.4352   YZ=              0.6108

 Normal termination of Gaussian 16 at Wed May  5 22:55:55 2021.
