 Gaussian 16, Revision A.03,
 Gaussian 16:  EM64L-G16RevA.03 25-Dec-2016

 -------------
 #p 6-31g* mp2
 -------------

 ------------------------------------------------------
 Input file generated by CHIRIPA (05-May-2021 14:55:22)
 ------------------------------------------------------
 Symbolic Z-matrix:
 Charge =  0 Multiplicity = 1

                         Standard orientation:
 ---------------------------------------------------------------------
 Center     Atomic      Atomic             Coordinates (Angstroms)
 Number     Number       Type             X           Y           Z
 ---------------------------------------------------------------------
      1          6           0       -3.478714    1.381947   -1.664049
      2          6           0       -4.281056    0.386619   -1.096518
      3          6           0       -3.757809   -0.486551   -0.138220
      4          6           0       -2.422096   -0.335279    0.230940
      5          6           0       -1.597318    0.646368   -0.316235
      6          6           0       -2.141763    1.508422   -1.272786
      7          1           0       -3.893419    2.055929   -2.407800
      8          1           0       -5.319690    0.286061   -1.398466
      9          1           0       -4.356555   -1.265944    0.317266
     10          1           0       -0.565538    0.721990    0.004903
     11          1           0       -1.516306    2.280479   -1.711848
     12          7           0       -1.856938   -1.253781    1.244522
     13          8           0       -0.677149   -1.099725    1.552749
     14          8           0       -2.604456   -2.110366    1.711550
     15          6           0        2.727394    0.688711    0.286671
     16          6           0        3.290760    2.078179    0.586641
     17          6           0        2.294512    2.973452    1.324050
     18          1           0        1.812351    0.792524   -0.312382
     19          1           0        2.430770    0.209481    1.229935
     20          1           0        3.587514    2.554101   -0.356785
     21          1           0        4.204675    1.971041    1.184887
     22          1           0        2.006272    2.523552    2.279617
     23          1           0        1.385605    3.109925    0.729185
     24          1           0        2.717826    3.961838    1.528396
     25          6           0        3.711624   -0.217931   -0.450227
     26          6           0        3.148258   -1.607399   -0.750197
     27          6           0        4.144506   -2.502671   -1.487606
     28          1           0        4.008248    0.261300   -1.393491
     29          1           0        4.626667   -0.321742    0.148825
     30          1           0        2.234343   -1.500259   -1.348443
     31          1           0        2.851504   -2.083320    0.193229
     32          1           0        5.053413   -2.639144   -0.892741
     33          1           0        4.432746   -2.052771   -2.443173
     34          1           0        3.721192   -3.491057   -1.691953
 ---------------------------------------------------------------------

 SCF Done:  E(RHF) =  -669.535653392     A.U. after   15 cycles
 E2 =    -0.2092019223D+01 EUMP2 =    -0.67162767261475D+03

 The electronic state is 1-A.
 Alpha  occ. eigenvalues --  -20.60764 -20.60758 -15.85812 -11.31159 -11.27741
 Alpha  occ. eigenvalues --  -11.27693 -11.27488 -11.26757 -11.26745 -11.21612
 Alpha  occ. eigenvalues --  -11.21287 -11.21207 -11.21206 -11.21148 -11.20752
 Alpha  occ. eigenvalues --   -1.59835  -1.39388  -1.19338  -1.08739  -1.08278
 Alpha  occ. eigenvalues --   -1.04742  -1.03381  -0.95854  -0.95573  -0.86871
 Alpha  occ. eigenvalues --   -0.86141  -0.82407  -0.79441  -0.78103  -0.77414
 Alpha  occ. eigenvalues --   -0.72031  -0.71155  -0.70455  -0.65013  -0.64945
 Alpha  occ. eigenvalues --   -0.64710  -0.62097  -0.60776  -0.59222  -0.57444
 Alpha  occ. eigenvalues --   -0.55269  -0.55141  -0.53072  -0.52861  -0.52537
 Alpha  occ. eigenvalues --   -0.52261  -0.49808  -0.48793  -0.48788  -0.47748
 Alpha  occ. eigenvalues --   -0.46471  -0.45631  -0.45467  -0.44790  -0.43634
 Alpha  occ. eigenvalues --   -0.37324  -0.36343
 Alpha virt. eigenvalues --    0.05065   0.11289   0.16561   0.19997   0.23145
 Alpha virt. eigenvalues --    0.24062   0.25566   0.27232   0.27645   0.28170
 Alpha virt. eigenvalues --    0.29601   0.30846   0.31633   0.31975   0.32210

 Mulliken charges:
               1
     1  C   -0.170486
     2  C   -0.219099
     3  C   -0.169984
     4  C    0.157208
     5  C   -0.180809
     6  C   -0.222161
     7  H    0.225517
     8  H    0.223365
     9  H    0.275489
    10  H    0.291263
    11  H    0.222917
    12  N    0.487659
    13  O   -0.461229
    14  O   -0.460539
    15  C   -0.302166
    16  C   -0.299827
    17  C   -0.475222
    18  H    0.136948
    19  H    0.167401
    20  H    0.148892
    21  H    0.154556
    22  H    0.162365
    23  H    0.144257
    24  H    0.160743
    25  C   -0.298169
    26  C   -0.299802
    27  C   -0.475960
    28  H    0.145770
    29  H    0.150680
    30  H    0.148813
    31  H    0.163274
    32  H    0.154980
    33  H    0.152100
    34  H    0.161255
 Sum of Mulliken charges =  -0.00000

 Dipole moment (field-independent basis, Debye):
    X=             -1.9305    Y=              3.1109    Z=             -3.3941  Tot=              4.9925
 Quadrupole moment (field-independent basis, Debye-Ang):
   XX=            -81.4293   YY=            -97.1118   ZZ=            -96.5845
   XY=             -4.7609   XZ=              9.2085   YZ=              0.9689

 Normal termination of Gaussian 16 at Thu May  6 12:33:32 2021.
