 Gaussian 16, Revision A.03,
 Gaussian 16:  EM64L-G16RevA.03 25-Dec-2016

 -------------
 #p 6-31g* mp2
 -------------

 ------------------------------------------------------
 Input file generated by CHIRIPA (05-May-2021 14:51:10)
 ------------------------------------------------------
 Symbolic Z-matrix:
 Charge =  0 Multiplicity = 1

                         Standard orientation:
 ---------------------------------------------------------------------
 Center     Atomic      Atomic             Coordinates (Angstroms)
 Number     Number       Type             X           Y           Z
 ---------------------------------------------------------------------
      1          6           0       -2.425189    1.594821   -0.264830
      2          6           0       -1.017231    2.162844   -0.083200
      3          6           0       -0.856867    3.553377   -0.698420
      4          1           0       -2.661087    1.552410   -1.336977
      5          1           0       -3.152020    2.283244    0.188143
      6          1           0       -0.293156    1.472874   -0.535164
      7          1           0       -0.784584    2.203728    0.988631
      8          1           0       -1.556744    4.260101   -0.240912
      9          1           0       -1.062524    3.525095   -1.773364
     10          1           0        0.157072    3.940424   -0.557060
     11          6           0       -2.601146    0.205223    0.344913
     12          6           0       -4.009103   -0.362801    0.163282
     13          6           0       -4.169467   -1.753333    0.778502
     14          1           0       -1.874314   -0.483200   -0.108060
     15          1           0       -2.365247    0.247634    1.417059
     16          1           0       -4.241751   -0.403685   -0.908548
     17          1           0       -4.733179    0.327169    0.615247
     18          1           0       -3.963811   -1.725051    1.853447
     19          1           0       -3.469590   -2.460058    0.320994
     20          1           0       -5.183406   -2.140381    0.637142
     21          6           0        2.663533   -0.155307    0.038844
     22          6           0        4.107533    0.131295    0.452011
     23          6           0        4.392933    1.625515    0.605786
     24          1           0        2.450762    0.359439   -0.908103
     25          1           0        1.983250    0.273719    0.787540
     26          1           0        4.784923   -0.299345   -0.296527
     27          1           0        4.316951   -0.384350    1.397986
     28          1           0        3.740860    2.065922    1.366999
     29          1           0        4.211492    2.151410   -0.337143
     30          1           0        5.430820    1.807643    0.901556
     31          6           0        2.362801   -1.644736   -0.118926
     32          6           0        0.918801   -1.931339   -0.532093
     33          6           0        0.633402   -3.425559   -0.685869
     34          1           0        3.043085   -2.073763   -0.867622
     35          1           0        2.575572   -2.159483    0.828021
     36          1           0        0.709385   -1.415693   -1.478068
     37          1           0        0.241411   -1.500698    0.216444
     38          1           0        0.814842   -3.951454    0.257061
     39          1           0        1.285474   -3.865966   -1.447081
     40          1           0       -0.404485   -3.607687   -0.981638
 ---------------------------------------------------------------------

 SCF Done:  E(RHF) =  -470.733014005     A.U. after   11 cycles
 E2 =    -0.1584163307D+01 EUMP2 =    -0.47231717731181D+03

 The electronic state is 1-A.
 Alpha  occ. eigenvalues --  -11.21619 -11.21611 -11.21575 -11.21518 -11.21418
 Alpha  occ. eigenvalues --  -11.21356 -11.21345 -11.21281 -11.21123 -11.21079
 Alpha  occ. eigenvalues --  -11.21066 -11.21024  -1.08471  -1.08370  -1.03560
 Alpha  occ. eigenvalues --   -1.03488  -0.96008  -0.95939  -0.87026  -0.86953
 Alpha  occ. eigenvalues --   -0.79666  -0.79532  -0.78465  -0.78008  -0.65111
 Alpha  occ. eigenvalues --   -0.64997  -0.60972  -0.60877  -0.59396  -0.59296
 Alpha  occ. eigenvalues --   -0.57674  -0.57499  -0.55292  -0.55230  -0.52714
 Alpha  occ. eigenvalues --   -0.52630  -0.52462  -0.52340  -0.49970  -0.49870
 Alpha  occ. eigenvalues --   -0.48040  -0.47825  -0.46752  -0.46611  -0.46246
 Alpha  occ. eigenvalues --   -0.45792  -0.45646  -0.45008  -0.43802  -0.43732
 Alpha virt. eigenvalues --    0.21200   0.22594   0.23489   0.24391   0.25607
 Alpha virt. eigenvalues --    0.25967   0.26711   0.27349   0.28127   0.29711
 Alpha virt. eigenvalues --    0.30798   0.31211   0.31704   0.31824   0.32557

 Mulliken charges:
               1
     1  C   -0.297479
     2  C   -0.304915
     3  C   -0.475753
     4  H    0.149115
     5  H    0.149095
     6  H    0.158902
     7  H    0.150562
     8  H    0.154902
     9  H    0.154697
    10  H    0.160470
    11  C   -0.306766
    12  C   -0.298950
    13  C   -0.476054
    14  H    0.159711
    15  H    0.148064
    16  H    0.151687
    17  H    0.151783
    18  H    0.154993
    19  H    0.155001
    20  H    0.160297
    21  C   -0.300952
    22  C   -0.299674
    23  C   -0.475707
    24  H    0.149667
    25  H    0.152951
    26  H    0.151860
    27  H    0.151961
    28  H    0.155287
    29  H    0.155088
    30  H    0.160291
    31  C   -0.297532
    32  C   -0.306510
    33  C   -0.476230
    34  H    0.149321
    35  H    0.149712
    36  H    0.150774
    37  H    0.159296
    38  H    0.155785
    39  H    0.155520
    40  H    0.159728
 Sum of Mulliken charges =  -0.00000

 Dipole moment (field-independent basis, Debye):
    X=              0.0363    Y=             -0.0215    Z=              0.0056  Tot=              0.0425
 Quadrupole moment (field-independent basis, Debye-Ang):
   XX=            -84.9680   YY=            -86.7921   ZZ=            -83.1957
   XY=             -0.7294   XZ=             -0.4274   YZ=              0.5432

 Normal termination of Gaussian 16 at Thu May  6 00:39:24 2021.
