 Gaussian 16, Revision A.03,
 Gaussian 16:  EM64L-G16RevA.03 25-Dec-2016

 -------------
 #p 6-31g* mp2
 -------------

 ------------------------------------------------------
 Input file generated by CHIRIPA (05-May-2021 14:57:26)
 ------------------------------------------------------
 Symbolic Z-matrix:
 Charge =  0 Multiplicity = 1

                         Standard orientation:
 ---------------------------------------------------------------------
 Center     Atomic      Atomic             Coordinates (Angstroms)
 Number     Number       Type             X           Y           Z
 ---------------------------------------------------------------------
      1          6           0        3.390902   -2.427089   -0.155699
      2          6           0        2.228907   -1.705897   -0.449249
      3          6           0        2.251949   -0.308656   -0.490899
      4          6           0        3.459637    0.337984   -0.232761
      5          6           0        4.634089   -0.352445    0.062642
      6          6           0        4.587674   -1.749256    0.098861
      7          1           0        3.363924   -3.512332   -0.125453
      8          1           0        1.298062   -2.229656   -0.647361
      9          1           0        1.367131    0.274473   -0.715570
     10          1           0        5.547076    0.197636    0.255730
     11          1           0        5.491641   -2.306743    0.327107
     12          7           0        3.496402    1.816953   -0.273979
     13          8           0        4.572979    2.363027   -0.042844
     14          8           0        2.447946    2.402090   -0.536641
     15          6           0       -5.562235    0.484208   -1.032960
     16          6           0       -4.870096   -0.694241   -1.330824
     17          6           0       -3.700660   -1.024834   -0.639684
     18          6           0       -3.249721   -0.150154    0.347675
     19          6           0       -3.917013    1.031277    0.667421
     20          6           0       -5.084326    1.341693   -0.036545
     21          1           0       -6.469857    0.733184   -1.574836
     22          1           0       -5.238915   -1.362058   -2.104154
     23          1           0       -3.145150   -1.930698   -0.850008
     24          1           0       -3.524784    1.677160    1.443570
     25          1           0       -5.619787    2.257570    0.196905
     26          7           0       -2.012815   -0.489458    1.086143
     27          8           0       -1.636281    0.297877    1.951571
     28          8           0       -1.443281   -1.536314    0.785545
 ---------------------------------------------------------------------

 SCF Done:  E(RHF) =  -868.339346006     A.U. after   16 cycles
 E2 =    -0.2598785078D+01 EUMP2 =    -0.87093813108446D+03

 The electronic state is 1-A.
 Alpha  occ. eigenvalues --  -20.61394 -20.61301 -20.59968 -20.59958 -15.86383
 Alpha  occ. eigenvalues --  -15.85011 -11.31546 -11.30202 -11.28134 -11.28049
 Alpha  occ. eigenvalues --  -11.27791 -11.27081 -11.27026 -11.26786 -11.26675
 Alpha  occ. eigenvalues --  -11.26456 -11.25808 -11.25585  -1.60416  -1.59041
 Alpha  occ. eigenvalues --   -1.39975  -1.38600  -1.19699  -1.18345  -1.09131
 Alpha  occ. eigenvalues --   -1.07783  -1.05072  -1.03705  -0.95999  -0.94652
 Alpha  occ. eigenvalues --   -0.86480  -0.85125  -0.82840  -0.81476  -0.77913
 Alpha  occ. eigenvalues --   -0.76543  -0.72606  -0.71732  -0.71241  -0.70806
 Alpha  occ. eigenvalues --   -0.70354  -0.69486  -0.65356  -0.65071  -0.63999
 Alpha  occ. eigenvalues --   -0.63701  -0.62423  -0.61056  -0.55577  -0.54257
 Alpha  occ. eigenvalues --   -0.53410  -0.53161  -0.52059  -0.51794  -0.49374
 Alpha  occ. eigenvalues --   -0.49329  -0.48000  -0.47979  -0.45418  -0.44044
 Alpha  occ. eigenvalues --   -0.37665  -0.36663  -0.36336  -0.35279
 Alpha virt. eigenvalues --    0.04585   0.05970   0.10993   0.12357   0.16105
 Alpha virt. eigenvalues --    0.17509   0.21118   0.22443   0.27052   0.27756
 Alpha virt. eigenvalues --    0.28550   0.29184   0.30756   0.31827   0.32439

 Mulliken charges:
               1
     1  C   -0.172087
     2  C   -0.214057
     3  C   -0.166455
     4  C    0.157905
     5  C   -0.172792
     6  C   -0.218565
     7  H    0.222842
     8  H    0.233790
     9  H    0.272869
    10  H    0.272126
    11  H    0.219524
    12  N    0.488548
    13  O   -0.463786
    14  O   -0.462023
    15  C   -0.169873
    16  C   -0.218224
    17  C   -0.171444
    18  C    0.157509
    19  C   -0.169171
    20  C   -0.218205
    21  H    0.227281
    22  H    0.223852
    23  H    0.271660
    24  H    0.278669
    25  H    0.225998
    26  N    0.488584
    27  O   -0.452091
    28  O   -0.472383
 Sum of Mulliken charges =  -0.00000

 Dipole moment (field-independent basis, Debye):
    X=             -4.9265    Y=             -3.9475    Z=             -2.3758  Tot=              6.7452
 Quadrupole moment (field-independent basis, Debye-Ang):
   XX=            -73.6428   YY=           -106.2140   ZZ=           -106.2934
   XY=            -22.5988   XZ=              8.7646   YZ=              4.8051

 Normal termination of Gaussian 16 at Thu May  6 13:08:40 2021.
