 Gaussian 16, Revision A.03,
 Gaussian 16:  EM64L-G16RevA.03 25-Dec-2016

 -------------
 #p 6-31g* mp2
 -------------

 ------------------------------------------------------
 Input file generated by CHIRIPA (05-May-2021 14:57:24)
 ------------------------------------------------------
 Symbolic Z-matrix:
 Charge =  0 Multiplicity = 1

                         Standard orientation:
 ---------------------------------------------------------------------
 Center     Atomic      Atomic             Coordinates (Angstroms)
 Number     Number       Type             X           Y           Z
 ---------------------------------------------------------------------
      1          6           0        3.349468    2.194057   -0.823704
      2          6           0        4.720943    1.920113   -0.800661
      3          6           0        5.189022    0.674193   -0.372721
      4          6           0        4.253503   -0.278836    0.027068
      5          6           0        2.880832   -0.036081    0.015461
      6          6           0        2.435401    1.216808   -0.416288
      7          1           0        2.994649    3.164625   -1.157617
      8          1           0        5.433114    2.677149   -1.116498
      9          1           0        6.245270    0.435482   -0.344866
     10          1           0        2.195085   -0.810837    0.336277
     11          1           0        1.369718    1.426765   -0.433133
     12          7           0        4.737049   -1.601525    0.482124
     13          8           0        3.892441   -2.424171    0.829295
     14          8           0        5.951505   -1.790557    0.483010
     15          6           0       -2.400780    1.680754    0.821348
     16          6           0       -2.091264    0.708533   -0.135472
     17          6           0       -3.065731   -0.194218   -0.571367
     18          6           0       -4.345219   -0.095767   -0.026840
     19          6           0       -4.684461    0.861732    0.927834
     20          6           0       -3.694110    1.754121    1.349018
     21          1           0       -1.637621    2.378008    1.154248
     22          1           0       -1.087687    0.649210   -0.547006
     23          1           0       -2.853347   -0.956716   -1.310898
     24          1           0       -5.693734    0.896159    1.319751
     25          1           0       -3.937339    2.508130    2.092224
     26          7           0       -5.385251   -1.045984   -0.480515
     27          8           0       -6.505002   -0.938388    0.014680
     28          8           0       -5.060984   -1.880367   -1.322710
 ---------------------------------------------------------------------

 SCF Done:  E(RHF) =  -868.336276866     A.U. after   16 cycles
 E2 =    -0.2599563898D+01 EUMP2 =    -0.87093584076398D+03

 The electronic state is 1-A.
 Alpha  occ. eigenvalues --  -20.61266 -20.61261 -20.61113 -20.61108 -15.86329
 Alpha  occ. eigenvalues --  -15.86174 -11.31843 -11.31681 -11.28504 -11.28411
 Alpha  occ. eigenvalues --  -11.28314 -11.28258 -11.28248 -11.28128 -11.27637
 Alpha  occ. eigenvalues --  -11.27467 -11.27434 -11.27301  -1.60340  -1.60186
 Alpha  occ. eigenvalues --   -1.39889  -1.39735  -1.20051  -1.19892  -1.09418
 Alpha  occ. eigenvalues --   -1.09275  -1.05497  -1.05324  -0.96220  -0.96075
 Alpha  occ. eigenvalues --   -0.86897  -0.86725  -0.83068  -0.82906  -0.78096
 Alpha  occ. eigenvalues --   -0.77908  -0.72543  -0.72391  -0.71666  -0.71511
 Alpha  occ. eigenvalues --   -0.71152  -0.71024  -0.65716  -0.65683  -0.65549
 Alpha  occ. eigenvalues --   -0.65256  -0.62915  -0.62597  -0.55987  -0.55860
 Alpha  occ. eigenvalues --   -0.53794  -0.53697  -0.53634  -0.53349  -0.49316
 Alpha  occ. eigenvalues --   -0.49288  -0.49162  -0.49134  -0.45261  -0.45109
 Alpha  occ. eigenvalues --   -0.38032  -0.37896  -0.37098  -0.36921
 Alpha virt. eigenvalues --    0.04483   0.04638   0.10548   0.10718   0.15916
 Alpha virt. eigenvalues --    0.16078   0.17393   0.21955   0.24441   0.27176
 Alpha virt. eigenvalues --    0.27816   0.28513   0.29950   0.31247   0.31793

 Mulliken charges:
               1
     1  C   -0.170782
     2  C   -0.218295
     3  C   -0.169412
     4  C    0.159032
     5  C   -0.171170
     6  C   -0.221999
     7  H    0.226545
     8  H    0.225915
     9  H    0.278150
    10  H    0.275464
    11  H    0.215823
    12  N    0.488061
    13  O   -0.458978
    14  O   -0.458342
    15  C   -0.170892
    16  C   -0.222594
    17  C   -0.169700
    18  C    0.159365
    19  C   -0.169699
    20  C   -0.218195
    21  H    0.221901
    22  H    0.217894
    23  H    0.278379
    24  H    0.277784
    25  H    0.225289
    26  N    0.487904
    27  O   -0.458847
    28  O   -0.458599
 Sum of Mulliken charges =  -0.00000

 Dipole moment (field-independent basis, Debye):
    X=              1.9849    Y=              7.9436    Z=              0.0234  Tot=              8.1879
 Quadrupole moment (field-independent basis, Debye-Ang):
   XX=           -142.6610   YY=           -107.7860   ZZ=           -104.2692
   XY=              5.4966   XZ=            -17.3793   YZ=              1.6439

 Normal termination of Gaussian 16 at Thu May  6 05:04:52 2021.
