 Gaussian 16, Revision A.03,
 Gaussian 16:  EM64L-G16RevA.03 25-Dec-2016

 -------------
 #p 6-31g* mp2
 -------------

 ------------------------------------------------------
 Input file generated by CHIRIPA (05-May-2021 14:51:13)
 ------------------------------------------------------
 Symbolic Z-matrix:
 Charge =  0 Multiplicity = 1

                         Standard orientation:
 ---------------------------------------------------------------------
 Center     Atomic      Atomic             Coordinates (Angstroms)
 Number     Number       Type             X           Y           Z
 ---------------------------------------------------------------------
      1          6           0        3.805285   -0.294420   -0.392034
      2          6           0        5.244152   -0.152688    0.105519
      3          6           0        6.240196    0.092957   -1.028213
      4          1           0        3.753261   -1.121432   -1.113346
      5          1           0        3.522517    0.615660   -0.939018
      6          1           0        5.523655   -1.062198    0.652590
      7          1           0        5.292719    0.673959    0.825874
      8          1           0        5.988926    1.010729   -1.569655
      9          1           0        6.221174   -0.735292   -1.743923
     10          1           0        7.262577    0.191214   -0.650135
     11          6           0        2.797841   -0.540384    0.729699
     12          6           0        1.358974   -0.682116    0.232146
     13          6           0        0.362930   -0.927762    1.365878
     14          1           0        3.080610   -1.450465    1.276683
     15          1           0        2.849865    0.286628    1.451010
     16          1           0        1.310408   -1.508763   -0.488209
     17          1           0        1.079472    0.227394   -0.314925
     18          1           0        0.381953   -0.099512    2.081588
     19          1           0        0.614201   -1.845533    1.907319
     20          1           0       -0.659451   -1.026018    0.987800
     21          6           0       -3.330075   -0.338375   -0.061969
     22          6           0       -4.605168   -0.980513   -0.609494
     23          6           0       -4.647510   -2.492800   -0.388157
     24          1           0       -2.457804   -0.804904   -0.539922
     25          1           0       -3.250936   -0.555002    1.012370
     26          1           0       -4.682589   -0.761571   -1.682195
     27          1           0       -5.474511   -0.512269   -0.130322
     28          1           0       -4.595180   -2.727431    0.679930
     29          1           0       -3.798758   -2.978149   -0.880759
     30          1           0       -5.567474   -2.931338   -0.787167
     31          6           0       -3.273052    1.173179   -0.275696
     32          6           0       -1.997959    1.815317    0.271829
     33          6           0       -1.955617    3.327603    0.050493
     34          1           0       -3.352190    1.389805   -1.350035
     35          1           0       -4.145322    1.639708    0.202257
     36          1           0       -1.128616    1.347072   -0.207343
     37          1           0       -1.920538    1.596375    1.344529
     38          1           0       -2.804368    3.812954    0.543094
     39          1           0       -2.007946    3.562234   -1.017595
     40          1           0       -1.035652    3.766142    0.449502
 ---------------------------------------------------------------------

 SCF Done:  E(RHF) =  -470.731824907     A.U. after   11 cycles
 E2 =    -0.1584596354D+01 EUMP2 =    -0.47231642126090D+03

 The electronic state is 1-A.
 Alpha  occ. eigenvalues --  -11.21627 -11.21587 -11.21554 -11.21546 -11.21436
 Alpha  occ. eigenvalues --  -11.21378 -11.21372 -11.21317 -11.21091 -11.21069
 Alpha  occ. eigenvalues --  -11.21062 -11.20844  -1.08483  -1.08377  -1.03566
 Alpha  occ. eigenvalues --   -1.03459  -0.96011  -0.95917  -0.87015  -0.86945
 Alpha  occ. eigenvalues --   -0.79622  -0.79555  -0.78305  -0.78212  -0.65134
 Alpha  occ. eigenvalues --   -0.64998  -0.61033  -0.60817  -0.59435  -0.59251
 Alpha  occ. eigenvalues --   -0.57728  -0.57443  -0.55295  -0.55206  -0.52844
 Alpha  occ. eigenvalues --   -0.52551  -0.52431  -0.52273  -0.49966  -0.49854
 Alpha  occ. eigenvalues --   -0.48031  -0.47763  -0.46844  -0.46442  -0.45835
 Alpha  occ. eigenvalues --   -0.45762  -0.45728  -0.45491  -0.43821  -0.43631
 Alpha virt. eigenvalues --    0.21571   0.23115   0.23767   0.24368   0.25837
 Alpha virt. eigenvalues --    0.26415   0.26723   0.27681   0.27910   0.29581
 Alpha virt. eigenvalues --    0.30233   0.30930   0.31648   0.32016   0.32256

 Mulliken charges:
               1
     1  C   -0.298318
     2  C   -0.299608
     3  C   -0.475687
     4  H    0.149454
     5  H    0.149289
     6  H    0.151937
     7  H    0.151916
     8  H    0.155121
     9  H    0.155112
    10  H    0.160214
    11  C   -0.297702
    12  C   -0.303869
    13  C   -0.483913
    14  H    0.149620
    15  H    0.149636
    16  H    0.150964
    17  H    0.153879
    18  H    0.154692
    19  H    0.153479
    20  H    0.171997
    21  C   -0.303816
    22  C   -0.298395
    23  C   -0.476004
    24  H    0.151873
    25  H    0.151264
    26  H    0.151988
    27  H    0.152112
    28  H    0.155419
    29  H    0.155106
    30  H    0.160456
    31  C   -0.297236
    32  C   -0.307119
    33  C   -0.475398
    34  H    0.149222
    35  H    0.149590
    36  H    0.159553
    37  H    0.153676
    38  H    0.155075
    39  H    0.154806
    40  H    0.159615
 Sum of Mulliken charges =  -0.00000

 Dipole moment (field-independent basis, Debye):
    X=             -0.0553    Y=             -0.0011    Z=             -0.0022  Tot=              0.0554
 Quadrupole moment (field-independent basis, Debye-Ang):
   XX=            -85.3040   YY=            -85.0620   ZZ=            -84.5018
   XY=             -0.4845   XZ=              0.1337   YZ=              0.4947

 Normal termination of Gaussian 16 at Thu May  6 05:34:04 2021.
