 Gaussian 16, Revision A.03,
 Gaussian 16:  EM64L-G16RevA.03 25-Dec-2016

 -------------
 #p 6-31g* mp2
 -------------

 ------------------------------------------------------
 Input file generated by CHIRIPA (05-May-2021 14:51:08)
 ------------------------------------------------------
 Symbolic Z-matrix:
 Charge =  0 Multiplicity = 1

                         Standard orientation:
 ---------------------------------------------------------------------
 Center     Atomic      Atomic             Coordinates (Angstroms)
 Number     Number       Type             X           Y           Z
 ---------------------------------------------------------------------
      1          6           0       -2.545674   -0.647576   -0.434401
      2          6           0       -3.364966    0.580706   -0.036822
      3          6           0       -4.243510    1.099247   -1.175711
      4          1           0       -1.916713   -0.396592   -1.299479
      5          1           0       -3.227651   -1.443519   -0.764215
      6          1           0       -2.681723    1.373620    0.293456
      7          1           0       -3.991908    0.326824    0.827530
      8          1           0       -4.947947    0.326931   -1.501132
      9          1           0       -3.630317    1.379674   -2.038240
     10          1           0       -4.820484    1.977505   -0.869733
     11          6           0       -1.662336   -1.177655    0.693632
     12          6           0       -0.843045   -2.405937    0.296052
     13          6           0        0.035500   -2.924478    1.434942
     14          1           0       -0.980360   -0.381712    1.023446
     15          1           0       -2.291297   -1.428639    1.558709
     16          1           0       -0.216102   -2.152056   -0.568299
     17          1           0       -1.526288   -3.198851   -0.034226
     18          1           0       -0.577693   -3.204905    2.297471
     19          1           0        0.739936   -2.152162    1.760363
     20          1           0        0.612474   -3.802737    1.128963
     21          6           0        2.164483    1.667464   -0.029722
     22          6           0        0.918793    2.298399    0.593303
     23          6           0        1.055061    3.808948    0.786857
     24          1           0        3.033389    1.879934    0.608090
     25          1           0        2.363629    2.145740   -0.998736
     26          1           0        0.721256    1.818120    1.560219
     27          1           0        0.052718    2.084238   -0.045968
     28          1           0        1.228966    4.306175   -0.172894
     29          1           0        1.901302    4.038545    1.442419
     30          1           0        0.153359    4.239427    1.233493
     31          6           0        2.043527    0.157767   -0.229509
     32          6           0        3.289218   -0.473167   -0.852533
     33          6           0        3.152949   -1.983717   -1.046088
     34          1           0        1.844381   -0.320509    0.739506
     35          1           0        1.174621   -0.054703   -0.867320
     36          1           0        4.155291   -0.259007   -0.213262
     37          1           0        3.486755    0.007112   -1.819450
     38          1           0        2.306708   -2.213313   -1.701650
     39          1           0        2.979043   -2.480945   -0.086337
     40          1           0        4.054651   -2.414195   -1.492723
 ---------------------------------------------------------------------

 SCF Done:  E(RHF) =  -470.731805357     A.U. after   11 cycles
 E2 =    -0.1586654789D+01 EUMP2 =    -0.47231846014539D+03

 The electronic state is 1-A.
 Alpha  occ. eigenvalues --  -11.21716 -11.21658 -11.21564 -11.21485 -11.21464
 Alpha  occ. eigenvalues --  -11.21422 -11.21345 -11.21221 -11.21150 -11.21083
 Alpha  occ. eigenvalues --  -11.21057 -11.20988  -1.08568  -1.08317  -1.03636
 Alpha  occ. eigenvalues --   -1.03442  -0.96056  -0.95920  -0.87075  -0.86938
 Alpha  occ. eigenvalues --   -0.79687  -0.79536  -0.78423  -0.78135  -0.65203
 Alpha  occ. eigenvalues --   -0.64961  -0.61016  -0.60931  -0.59404  -0.59292
 Alpha  occ. eigenvalues --   -0.57729  -0.57467  -0.55376  -0.55190  -0.52743
 Alpha  occ. eigenvalues --   -0.52653  -0.52503  -0.52289  -0.50032  -0.49875
 Alpha  occ. eigenvalues --   -0.48076  -0.47808  -0.46861  -0.46590  -0.46270
 Alpha  occ. eigenvalues --   -0.45883  -0.45337  -0.45141  -0.43856  -0.43710
 Alpha virt. eigenvalues --    0.19904   0.21664   0.23391   0.23886   0.25289
 Alpha virt. eigenvalues --    0.26032   0.26323   0.27841   0.29001   0.29974
 Alpha virt. eigenvalues --    0.30684   0.30943   0.31756   0.31890   0.32477

 Mulliken charges:
               1
     1  C   -0.298415
     2  C   -0.302803
     3  C   -0.475482
     4  H    0.148127
     5  H    0.149521
     6  H    0.154703
     7  H    0.152041
     8  H    0.155217
     9  H    0.154540
    10  H    0.160150
    11  C   -0.304999
    12  C   -0.303068
    13  C   -0.478670
    14  H    0.157721
    15  H    0.148900
    16  H    0.156830
    17  H    0.151277
    18  H    0.154479
    19  H    0.156852
    20  H    0.160426
    21  C   -0.297298
    22  C   -0.304957
    23  C   -0.475658
    24  H    0.149971
    25  H    0.149673
    26  H    0.152827
    27  H    0.155140
    28  H    0.155492
    29  H    0.155605
    30  H    0.160679
    31  C   -0.306773
    32  C   -0.299568
    33  C   -0.479762
    34  H    0.154896
    35  H    0.152760
    36  H    0.151978
    37  H    0.151836
    38  H    0.155945
    39  H    0.159619
    40  H    0.160251
 Sum of Mulliken charges =  -0.00000

 Dipole moment (field-independent basis, Debye):
    X=              0.0633    Y=              0.0299    Z=              0.0096  Tot=              0.0706
 Quadrupole moment (field-independent basis, Debye-Ang):
   XX=            -84.5713   YY=            -85.8611   ZZ=            -84.4156
   XY=              0.7490   XZ=             -0.3444   YZ=             -0.1426

 Normal termination of Gaussian 16 at Wed May  5 21:18:23 2021.
