 Gaussian 16, Revision A.03,
 Gaussian 16:  EM64L-G16RevA.03 25-Dec-2016

 -------------
 #p 6-31g* mp2
 -------------

 ------------------------------------------------------
 Input file generated by CHIRIPA (05-May-2021 14:55:23)
 ------------------------------------------------------
 Symbolic Z-matrix:
 Charge =  0 Multiplicity = 1

                         Standard orientation:
 ---------------------------------------------------------------------
 Center     Atomic      Atomic             Coordinates (Angstroms)
 Number     Number       Type             X           Y           Z
 ---------------------------------------------------------------------
      1          6           0       -3.775468    2.469289   -0.294527
      2          6           0       -3.524218    1.634580   -1.388444
      3          6           0       -3.035768    0.338922   -1.195478
      4          6           0       -2.808833   -0.091484    0.110868
      5          6           0       -3.049320    0.716388    1.221183
      6          6           0       -3.537637    2.008342    1.004505
      7          1           0       -4.154856    3.474349   -0.453638
      8          1           0       -3.707994    1.989890   -2.398408
      9          1           0       -2.832576   -0.328256   -2.024336
     10          1           0       -2.856356    0.334083    2.216184
     11          1           0       -3.731852    2.654389    1.855944
     12          7           0       -2.291803   -1.461178    0.327704
     13          8           0       -2.100119   -1.816631    1.488543
     14          8           0       -2.088030   -2.153356   -0.667285
     15          6           0        3.277416   -0.740677    0.182349
     16          6           0        2.254770   -1.277836   -0.819468
     17          6           0        1.408192   -2.415406   -0.247600
     18          1           0        3.932872   -1.561770    0.503484
     19          1           0        2.751016   -0.391096    1.081289
     20          1           0        2.782827   -1.625026   -1.716814
     21          1           0        1.601793   -0.455328   -1.138400
     22          1           0        0.855792   -2.078191    0.635430
     23          1           0        2.043536   -3.254536    0.053729
     24          1           0        0.683857   -2.784369   -0.980448
     25          6           0        4.131340    0.396976   -0.374686
     26          6           0        5.153987    0.934135    0.627133
     27          6           0        6.000565    2.071705    0.055265
     28          1           0        4.657740    0.047395   -1.273624
     29          1           0        3.475884    1.218069   -0.695819
     30          1           0        5.806963    0.111626    0.946064
     31          1           0        4.625929    1.281325    1.524479
     32          1           0        5.365220    2.910835   -0.246065
     33          1           0        6.552965    1.734491   -0.827765
     34          1           0        6.724900    2.440667    0.788113
 ---------------------------------------------------------------------

 SCF Done:  E(RHF) =  -669.535980362     A.U. after   15 cycles
 E2 =    -0.2091807383D+01 EUMP2 =    -0.67162778774521D+03

 The electronic state is 1-A.
 Alpha  occ. eigenvalues --  -20.60943 -20.60934 -15.85950 -11.31294 -11.27856
 Alpha  occ. eigenvalues --  -11.27853 -11.27594 -11.26865 -11.26855 -11.21287
 Alpha  occ. eigenvalues --  -11.20961 -11.20856 -11.20776 -11.20716 -11.19585
 Alpha  occ. eigenvalues --   -1.59984  -1.39544  -1.19461  -1.08862  -1.07873
 Alpha  occ. eigenvalues --   -1.04859  -1.02871  -0.95708  -0.95273  -0.86286
 Alpha  occ. eigenvalues --   -0.86255  -0.82539  -0.78963  -0.77660  -0.77590
 Alpha  occ. eigenvalues --   -0.72185  -0.71306  -0.70569  -0.65117  -0.64861
 Alpha  occ. eigenvalues --   -0.64519  -0.62206  -0.60283  -0.58703  -0.56878
 Alpha  occ. eigenvalues --   -0.55365  -0.54582  -0.53192  -0.52951  -0.51921
 Alpha  occ. eigenvalues --   -0.51701  -0.49317  -0.48941  -0.48837  -0.47264
 Alpha  occ. eigenvalues --   -0.46025  -0.45209  -0.45129  -0.44901  -0.43058
 Alpha  occ. eigenvalues --   -0.37437  -0.36461
 Alpha virt. eigenvalues --    0.04909   0.11192   0.16381   0.21324   0.23346
 Alpha virt. eigenvalues --    0.25012   0.27136   0.27251   0.27987   0.28154
 Alpha virt. eigenvalues --    0.28875   0.30918   0.32040   0.32217   0.32388

 Mulliken charges:
               1
     1  C   -0.170641
     2  C   -0.218561
     3  C   -0.170871
     4  C    0.158821
     5  C   -0.171035
     6  C   -0.218572
     7  H    0.226013
     8  H    0.223886
     9  H    0.275788
    10  H    0.275786
    11  H    0.223820
    12  N    0.488793
    13  O   -0.459708
    14  O   -0.457936
    15  C   -0.297132
    16  C   -0.299946
    17  C   -0.482063
    18  H    0.149553
    19  H    0.148440
    20  H    0.148347
    21  H    0.144746
    22  H    0.161323
    23  H    0.149544
    24  H    0.177554
    25  C   -0.297229
    26  C   -0.299033
    27  C   -0.475204
    28  H    0.148602
    29  H    0.146516
    30  H    0.152221
    31  H    0.150831
    32  H    0.153361
    33  H    0.154876
    34  H    0.159111
 Sum of Mulliken charges =  -0.00000

 Dipole moment (field-independent basis, Debye):
    X=             -2.0940    Y=              4.7219    Z=             -0.7545  Tot=              5.2202
 Quadrupole moment (field-independent basis, Debye-Ang):
   XX=            -86.0151   YY=            -96.1611   ZZ=            -90.0322
   XY=            -14.8068   XZ=              1.9980   YZ=              1.9858

 Normal termination of Gaussian 16 at Wed May  5 20:42:37 2021.
