 Gaussian 16, Revision A.03,
 Gaussian 16:  EM64L-G16RevA.03 25-Dec-2016

 -------------
 #p 6-31g* mp2
 -------------

 ------------------------------------------------------
 Input file generated by CHIRIPA (05-May-2021 14:53:18)
 ------------------------------------------------------
 Symbolic Z-matrix:
 Charge =  0 Multiplicity = 1

                         Standard orientation:
 ---------------------------------------------------------------------
 Center     Atomic      Atomic             Coordinates (Angstroms)
 Number     Number       Type             X           Y           Z
 ---------------------------------------------------------------------
      1          6           0        3.240302    0.725972   -0.214489
      2          6           0        2.554625    1.557885    0.869833
      3          6           0        1.908130    2.829334    0.319147
      4          1           0        4.002748    1.340758   -0.712143
      5          1           0        2.502482    0.459595   -0.983943
      6          1           0        3.293212    1.821444    1.637715
      7          1           0        1.793855    0.940987    1.365092
      8          1           0        1.150954    2.582259   -0.432011
      9          1           0        2.658830    3.467718   -0.157840
     10          1           0        1.423779    3.408897    1.111214
     11          6           0        3.891292   -0.548277    0.320515
     12          6           0        4.576969   -1.380189   -0.763807
     13          6           0        5.223463   -2.651638   -0.213121
     14          1           0        4.629112   -0.281899    1.089969
     15          1           0        3.128846   -1.163063    0.818169
     16          1           0        5.337739   -0.763292   -1.259066
     17          1           0        3.838382   -1.643749   -1.531689
     18          1           0        4.472764   -3.290023    0.263866
     19          1           0        5.980640   -2.404563    0.538037
     20          1           0        5.707815   -3.231201   -1.005188
     21          6           0       -3.904439   -2.283728    0.418287
     22          6           0       -3.941259   -1.734475   -0.867593
     23          6           0       -3.324866   -0.508200   -1.133785
     24          6           0       -2.677631    0.144659   -0.085858
     25          6           0       -2.623627   -0.376742    1.205851
     26          6           0       -3.246899   -1.604307    1.449087
     27          1           0       -4.385940   -3.236829    0.616155
     28          1           0       -4.451183   -2.259897   -1.670060
     29          1           0       -3.338088   -0.060193   -2.119956
     30          1           0       -2.107622    0.170476    1.985407
     31          1           0       -3.216704   -2.028475    2.448694
     32          7           0       -2.021441    1.443544   -0.355514
     33          8           0       -1.457717    1.998915    0.584919
     34          8           0       -2.083271    1.881644   -1.502197
 ---------------------------------------------------------------------

 SCF Done:  E(RHF) =  -669.535882471     A.U. after   15 cycles
 E2 =    -0.2091566590D+01 EUMP2 =    -0.67162744906104D+03

 The electronic state is 1-A.
 Alpha  occ. eigenvalues --  -20.60979 -20.60966 -15.85994 -11.31321 -11.27882
 Alpha  occ. eigenvalues --  -11.27879 -11.27618 -11.26888 -11.26878 -11.21242
 Alpha  occ. eigenvalues --  -11.20896 -11.20834 -11.20639 -11.20549 -11.19428
 Alpha  occ. eigenvalues --   -1.60033  -1.39587  -1.19488  -1.08892  -1.07774
 Alpha  occ. eigenvalues --   -1.04883  -1.02751  -0.95738  -0.95165  -0.86286
 Alpha  occ. eigenvalues --   -0.86180  -0.82565  -0.78867  -0.77622  -0.77539
 Alpha  occ. eigenvalues --   -0.72213  -0.71356  -0.70595  -0.65143  -0.64885
 Alpha  occ. eigenvalues --   -0.64415  -0.62230  -0.60146  -0.58629  -0.56771
 Alpha  occ. eigenvalues --   -0.55390  -0.54465  -0.53213  -0.52974  -0.51834
 Alpha  occ. eigenvalues --   -0.51601  -0.49353  -0.48975  -0.48740  -0.47153
 Alpha  occ. eigenvalues --   -0.45917  -0.45109  -0.45002  -0.44886  -0.43010
 Alpha  occ. eigenvalues --   -0.37465  -0.36484
 Alpha virt. eigenvalues --    0.04878   0.11167   0.16368   0.21275   0.23426
 Alpha virt. eigenvalues --    0.25093   0.27039   0.27323   0.27966   0.28323
 Alpha virt. eigenvalues --    0.28943   0.30810   0.31914   0.32311   0.32699

 Mulliken charges:
               1
     1  C   -0.297733
     2  C   -0.300044
     3  C   -0.471085
     4  H    0.148773
     5  H    0.148839
     6  H    0.146237
     7  H    0.148809
     8  H    0.170398
     9  H    0.144752
    10  H    0.163705
    11  C   -0.296975
    12  C   -0.298945
    13  C   -0.475085
    14  H    0.148363
    15  H    0.145819
    16  H    0.152161
    17  H    0.150795
    18  H    0.152925
    19  H    0.154820
    20  H    0.158861
    21  C   -0.170574
    22  C   -0.218569
    23  C   -0.170868
    24  C    0.158553
    25  C   -0.171115
    26  C   -0.218543
    27  H    0.226136
    28  H    0.223941
    29  H    0.275918
    30  H    0.275914
    31  H    0.224001
    32  N    0.487701
    33  O   -0.457989
    34  O   -0.459898
 Sum of Mulliken charges =  -0.00000

 Dipole moment (field-independent basis, Debye):
    X=             -2.6108    Y=             -4.4915    Z=              0.9246  Tot=              5.2768
 Quadrupole moment (field-independent basis, Debye-Ang):
   XX=            -82.9906   YY=            -97.4002   ZZ=            -90.4917
   XY=             13.2732   XZ=             -0.8715   YZ=              1.0847

 Normal termination of Gaussian 16 at Wed May  5 23:41:00 2021.
