 Gaussian 16, Revision A.03,
 Gaussian 16:  EM64L-G16RevA.03 25-Dec-2016

 -------------
 #p 6-31g* mp2
 -------------

 ------------------------------------------------------
 Input file generated by CHIRIPA (05-May-2021 14:57:23)
 ------------------------------------------------------
 Symbolic Z-matrix:
 Charge =  0 Multiplicity = 1

                         Standard orientation:
 ---------------------------------------------------------------------
 Center     Atomic      Atomic             Coordinates (Angstroms)
 Number     Number       Type             X           Y           Z
 ---------------------------------------------------------------------
      1          6           0       -6.265770    0.676770    0.315299
      2          6           0       -5.726186    0.530388   -0.966865
      3          6           0       -4.384047    0.177555   -1.136334
      4          6           0       -3.606722   -0.022172    0.003475
      5          6           0       -4.115196    0.116078    1.294068
      6          6           0       -5.459973    0.469513    1.439691
      7          1           0       -7.309400    0.951093    0.437684
      8          1           0       -6.349619    0.690720   -1.841891
      9          1           0       -3.940619    0.057530   -2.117346
     10          1           0       -3.468866   -0.050344    2.147285
     11          1           0       -5.876327    0.582493    2.436651
     12          7           0       -2.184463   -0.396019   -0.163312
     13          8           0       -1.520628   -0.566411    0.856947
     14          8           0       -1.760462   -0.511569   -1.311139
     15          6           0        5.764466    1.573735    0.222720
     16          6           0        4.526307    2.028344   -0.242914
     17          6           0        3.453633    1.143447   -0.387393
     18          6           0        3.655186   -0.195398   -0.055489
     19          6           0        4.876695   -0.678768    0.410946
     20          6           0        5.935406    0.224009    0.547591
     21          1           0        6.592322    2.268089    0.331912
     22          1           0        4.390663    3.076011   -0.495974
     23          1           0        2.484416    1.468538   -0.745655
     24          1           0        4.981465   -1.728904    0.655189
     25          1           0        6.895857   -0.131862    0.909441
     26          7           0        2.526984   -1.141664   -0.204296
     27          8           0        2.730259   -2.316316    0.094882
     28          8           0        1.460790   -0.690776   -0.617290
 ---------------------------------------------------------------------

 SCF Done:  E(RHF) =  -868.334059714     A.U. after   16 cycles
 E2 =    -0.2601278548D+01 EUMP2 =    -0.87093533826136D+03

 The electronic state is 1-A.
 Alpha  occ. eigenvalues --  -20.59583 -20.59568 -20.59265 -20.59093 -15.84668
 Alpha  occ. eigenvalues --  -15.84232 -11.30481 -11.30131 -11.27102 -11.27098
 Alpha  occ. eigenvalues --  -11.26924 -11.26783 -11.26745 -11.26625 -11.26217
 Alpha  occ. eigenvalues --  -11.26207 -11.25915 -11.25900  -1.58630  -1.58255
 Alpha  occ. eigenvalues --   -1.38187  -1.37793  -1.18692  -1.18361  -1.07999
 Alpha  occ. eigenvalues --   -1.07661  -1.04162  -1.03842  -0.94762  -0.94394
 Alpha  occ. eigenvalues --   -0.85539  -0.85216  -0.81600  -0.81228  -0.76565
 Alpha  occ. eigenvalues --   -0.76188  -0.70860  -0.70440  -0.70004  -0.69794
 Alpha  occ. eigenvalues --   -0.69604  -0.69468  -0.64334  -0.64170  -0.63990
 Alpha  occ. eigenvalues --   -0.63856  -0.61506  -0.61184  -0.54644  -0.54339
 Alpha  occ. eigenvalues --   -0.52469  -0.52260  -0.52145  -0.51945  -0.47831
 Alpha  occ. eigenvalues --   -0.47559  -0.47209  -0.46943  -0.43519  -0.43046
 Alpha  occ. eigenvalues --   -0.36700  -0.36375  -0.35788  -0.35471
 Alpha virt. eigenvalues --    0.05969   0.06359   0.11859   0.12176   0.17388
 Alpha virt. eigenvalues --    0.17754   0.21943   0.22229   0.27823   0.28102
 Alpha virt. eigenvalues --    0.28870   0.29177   0.31461   0.31739   0.33125

 Mulliken charges:
               1
     1  C   -0.172359
     2  C   -0.218497
     3  C   -0.172002
     4  C    0.159506
     5  C   -0.171991
     6  C   -0.218492
     7  H    0.222867
     8  H    0.221091
     9  H    0.275153
    10  H    0.274848
    11  H    0.221002
    12  N    0.486520
    13  O   -0.454629
    14  O   -0.451873
    15  C   -0.172653
    16  C   -0.218788
    17  C   -0.171323
    18  C    0.159767
    19  C   -0.171999
    20  C   -0.218647
    21  H    0.221520
    22  H    0.219811
    23  H    0.277821
    24  H    0.274041
    25  H    0.219827
    26  N    0.486719
    27  O   -0.468533
    28  O   -0.438706
 Sum of Mulliken charges =  -0.00000

 Dipole moment (field-independent basis, Debye):
    X=             -1.1919    Y=              4.5419    Z=              1.0002  Tot=              4.8010
 Quadrupole moment (field-independent basis, Debye-Ang):
   XX=            -42.6993   YY=           -105.0168   ZZ=           -100.2524
   XY=              4.3702   XZ=              1.2901   YZ=             -1.8109

 Normal termination of Gaussian 16 at Wed May  5 19:22:21 2021.
