 Gaussian 16, Revision A.03,
 Gaussian 16:  EM64L-G16RevA.03 25-Dec-2016

 -------------
 #p 6-31g* mp2
 -------------

 ------------------------------------------------------
 Input file generated by CHIRIPA (05-May-2021 14:55:25)
 ------------------------------------------------------
 Symbolic Z-matrix:
 Charge =  0 Multiplicity = 1

                         Standard orientation:
 ---------------------------------------------------------------------
 Center     Atomic      Atomic             Coordinates (Angstroms)
 Number     Number       Type             X           Y           Z
 ---------------------------------------------------------------------
      1          6           0        0.449082    0.325717    1.570954
      2          6           0        0.450030   -0.765200    0.695500
      3          6           0        1.599632   -1.092719   -0.029547
      4          6           0        2.735767   -0.304257    0.146000
      5          6           0        2.766161    0.788832    1.010593
      6          6           0        1.605113    1.097890    1.725434
      7          1           0       -0.448402    0.572972    2.130225
      8          1           0       -0.446311   -1.366648    0.573528
      9          1           0        1.628018   -1.931815   -0.714040
     10          1           0        3.674927    1.369746    1.111096
     11          1           0        1.607275    1.945682    2.404617
     12          7           0        3.958858   -0.641215   -0.616173
     13          8           0        4.946919    0.069158   -0.443715
     14          8           0        3.906296   -1.609315   -1.371591
     15          6           0       -3.481598   -0.375951   -0.559304
     16          6           0       -4.292997   -1.093947    0.519631
     17          6           0       -4.761742   -2.481745    0.081352
     18          1           0       -4.090458   -0.288372   -1.469559
     19          1           0       -2.610705   -0.991557   -0.823817
     20          1           0       -5.161351   -0.476530    0.783020
     21          1           0       -3.682204   -1.179658    1.427486
     22          1           0       -3.905172   -3.118500   -0.162435
     23          1           0       -5.392723   -2.411378   -0.810563
     24          1           0       -5.339821   -2.977124    0.867663
     25          6           0       -3.005919    1.012680   -0.136032
     26          6           0       -2.194520    1.730677   -1.214966
     27          6           0       -1.725775    3.118475   -0.776687
     28          1           0       -3.876813    1.628287    0.128482
     29          1           0       -2.397060    0.925102    0.774224
     30          1           0       -2.805314    1.816387   -2.122820
     31          1           0       -1.326166    1.113260   -1.478355
     32          1           0       -1.094794    3.048107    0.115228
     33          1           0       -2.582345    3.755229   -0.532899
     34          1           0       -1.147696    3.613853   -1.562997
 ---------------------------------------------------------------------

 SCF Done:  E(RHF) =  -669.534937824     A.U. after   15 cycles
 E2 =    -0.2093909157D+01 EUMP2 =    -0.67162884698155D+03

 The electronic state is 1-A.
 Alpha  occ. eigenvalues --  -20.60816 -20.60811 -15.85871 -11.31265 -11.27844
 Alpha  occ. eigenvalues --  -11.27835 -11.27584 -11.26860 -11.26850 -11.22533
 Alpha  occ. eigenvalues --  -11.22339 -11.22278 -11.22177 -11.21847 -11.21628
 Alpha  occ. eigenvalues --   -1.59891  -1.39443  -1.19447  -1.09306  -1.08825
 Alpha  occ. eigenvalues --   -1.04852  -1.04280  -0.96742  -0.95667  -0.87753
 Alpha  occ. eigenvalues --   -0.86249  -0.82501  -0.80350  -0.79118  -0.77536
 Alpha  occ. eigenvalues --   -0.72089  -0.71214  -0.70592  -0.66084  -0.65093
 Alpha  occ. eigenvalues --   -0.64734  -0.62187  -0.61691  -0.60102  -0.58348
 Alpha  occ. eigenvalues --   -0.56052  -0.55379  -0.53389  -0.53177  -0.53138
 Alpha  occ. eigenvalues --   -0.52936  -0.50688  -0.48853  -0.48841  -0.48654
 Alpha  occ. eigenvalues --   -0.47398  -0.46637  -0.46561  -0.44843  -0.44568
 Alpha  occ. eigenvalues --   -0.37387  -0.36437
 Alpha virt. eigenvalues --    0.04965   0.11063   0.16336   0.18530   0.22734
 Alpha virt. eigenvalues --    0.23554   0.25091   0.25576   0.26877   0.28478
 Alpha virt. eigenvalues --    0.29908   0.30451   0.30919   0.31286   0.31681

 Mulliken charges:
               1
     1  C   -0.171365
     2  C   -0.220807
     3  C   -0.172462
     4  C    0.158834
     5  C   -0.170392
     6  C   -0.219499
     7  H    0.228024
     8  H    0.228475
     9  H    0.276067
    10  H    0.276094
    11  H    0.224243
    12  N    0.488073
    13  O   -0.460121
    14  O   -0.460187
    15  C   -0.301399
    16  C   -0.300242
    17  C   -0.475421
    18  H    0.155782
    19  H    0.144446
    20  H    0.155856
    21  H    0.144644
    22  H    0.153132
    23  H    0.158760
    24  H    0.162982
    25  C   -0.299312
    26  C   -0.301371
    27  C   -0.475962
    28  H    0.152876
    29  H    0.138809
    30  H    0.154479
    31  H    0.156846
    32  H    0.150686
    33  H    0.155062
    34  H    0.164369
 Sum of Mulliken charges =  -0.00000

 Dipole moment (field-independent basis, Debye):
    X=             -4.3730    Y=              1.2067    Z=              2.5926  Tot=              5.2251
 Quadrupole moment (field-independent basis, Debye-Ang):
   XX=           -116.4645   YY=            -93.6221   ZZ=            -93.4952
   XY=              6.0555   XZ=              8.5017   YZ=              0.8583

 Normal termination of Gaussian 16 at Wed May  5 17:40:48 2021.
