 Gaussian 16, Revision A.03,
 Gaussian 16:  EM64L-G16RevA.03 25-Dec-2016

 -------------
 #p 6-31g* mp2
 -------------

 ------------------------------------------------------
 Input file generated by CHIRIPA (05-May-2021 14:57:24)
 ------------------------------------------------------
 Symbolic Z-matrix:
 Charge =  0 Multiplicity = 1

                         Standard orientation:
 ---------------------------------------------------------------------
 Center     Atomic      Atomic             Coordinates (Angstroms)
 Number     Number       Type             X           Y           Z
 ---------------------------------------------------------------------
      1          6           0        2.428992    2.701778    0.236966
      2          6           0        3.365513    2.186888    1.139372
      3          6           0        3.817942    0.869577    1.018754
      4          6           0        3.310471    0.091630   -0.020746
      5          6           0        2.376755    0.575836   -0.935628
      6          6           0        1.938467    1.896029   -0.795834
      7          1           0        2.083027    3.726216    0.338113
      8          1           0        3.748196    2.810345    1.942429
      9          1           0        4.542404    0.445562    1.703433
     10          1           0        2.013550   -0.069866   -1.725925
     11          1           0        1.211094    2.293236   -1.498115
     12          7           0        3.781952   -1.304473   -0.158590
     13          8           0        3.319442   -1.969407   -1.083027
     14          8           0        4.605080   -1.707370    0.660416
     15          6           0       -1.030074   -1.536796   -0.196072
     16          6           0       -1.980358   -1.955628    0.740978
     17          6           0       -3.204198   -1.289865    0.857277
     18          6           0       -3.445712   -0.204256    0.016792
     19          6           0       -2.519131    0.236995   -0.926623
     20          6           0       -1.302014   -0.443750   -1.025419
     21          1           0       -0.081977   -2.059796   -0.279616
     22          1           0       -1.771887   -2.804185    1.386372
     23          1           0       -3.957709   -1.592968    1.574053
     24          1           0       -2.755621    1.086214   -1.556161
     25          1           0       -0.565880   -0.116265   -1.754052
     26          7           0       -4.737779    0.508487    0.130648
     27          8           0       -4.926344    1.462095   -0.621490
     28          8           0       -5.537470    0.100032    0.969872
 ---------------------------------------------------------------------

 SCF Done:  E(RHF) =  -868.337796455     A.U. after   16 cycles
 E2 =    -0.2600813217D+01 EUMP2 =    -0.87093860967245D+03

 The electronic state is 1-A.
 Alpha  occ. eigenvalues --  -20.61786 -20.61742 -20.60943 -20.60930 -15.86799
 Alpha  occ. eigenvalues --  -15.85995 -11.32075 -11.31330 -11.28717 -11.28557
 Alpha  occ. eigenvalues --  -11.28263 -11.27971 -11.27875 -11.27642 -11.27538
 Alpha  occ. eigenvalues --  -11.27529 -11.26987 -11.26818  -1.60832  -1.60017
 Alpha  occ. eigenvalues --   -1.40391  -1.39571  -1.20221  -1.19502  -1.09613
 Alpha  occ. eigenvalues --   -1.08880  -1.05628  -1.04919  -0.96475  -0.95717
 Alpha  occ. eigenvalues --   -0.87016  -0.86315  -0.83323  -0.82567  -0.78414
 Alpha  occ. eigenvalues --   -0.77638  -0.73012  -0.72214  -0.72158  -0.71342
 Alpha  occ. eigenvalues --   -0.71320  -0.70533  -0.65885  -0.65630  -0.65146
 Alpha  occ. eigenvalues --   -0.64971  -0.63015  -0.62227  -0.56065  -0.55320
 Alpha  occ. eigenvalues --   -0.53962  -0.53717  -0.53201  -0.53001  -0.49787
 Alpha  occ. eigenvalues --   -0.49756  -0.48971  -0.48965  -0.45809  -0.44985
 Alpha  occ. eigenvalues --   -0.38155  -0.37616  -0.37098  -0.36436
 Alpha virt. eigenvalues --    0.04106   0.04912   0.10383   0.11123   0.15601
 Alpha virt. eigenvalues --    0.16454   0.18756   0.22094   0.24963   0.26784
 Alpha virt. eigenvalues --    0.27847   0.29123   0.30351   0.31343   0.31907

 Mulliken charges:
               1
     1  C   -0.169535
     2  C   -0.217553
     3  C   -0.170276
     4  C    0.158660
     5  C   -0.176295
     6  C   -0.214411
     7  H    0.230332
     8  H    0.227322
     9  H    0.277711
    10  H    0.268513
    11  H    0.221906
    12  N    0.487708
    13  O   -0.466034
    14  O   -0.455180
    15  C   -0.173987
    16  C   -0.219169
    17  C   -0.170527
    18  C    0.158218
    19  C   -0.172852
    20  C   -0.216306
    21  H    0.237528
    22  H    0.226793
    23  H    0.276191
    24  H    0.272165
    25  H    0.212693
    26  N    0.488124
    27  O   -0.462214
    28  O   -0.459523
 Sum of Mulliken charges =  -0.00000

 Dipole moment (field-independent basis, Debye):
    X=              3.1053    Y=              2.4532    Z=              0.3473  Tot=              3.9726
 Quadrupole moment (field-independent basis, Debye-Ang):
   XX=           -145.7459   YY=           -101.2266   ZZ=            -99.8078
   XY=             25.9926   XZ=              4.9708   YZ=             -2.0538

 Normal termination of Gaussian 16 at Thu May  6 08:15:16 2021.
