 Gaussian 16, Revision A.03,
 Gaussian 16:  EM64L-G16RevA.03 25-Dec-2016

 -------------
 #p 6-31g* mp2
 -------------

 ------------------------------------------------------
 Input file generated by CHIRIPA (05-May-2021 14:53:14)
 ------------------------------------------------------
 Symbolic Z-matrix:
 Charge =  0 Multiplicity = 1

                         Standard orientation:
 ---------------------------------------------------------------------
 Center     Atomic      Atomic             Coordinates (Angstroms)
 Number     Number       Type             X           Y           Z
 ---------------------------------------------------------------------
      1          6           0       -4.004042   -0.596470   -0.265331
      2          6           0       -5.238473   -0.942724    0.567900
      3          6           0       -5.537582   -2.442051    0.586528
      4          1           0       -4.150895   -0.955315   -1.293246
      5          1           0       -3.136388   -1.139459    0.134335
      6          1           0       -6.103265   -0.398171    0.167635
      7          1           0       -5.088744   -0.582843    1.593904
      8          1           0       -4.692868   -2.998215    1.005742
      9          1           0       -5.713153   -2.812494   -0.428631
     10          1           0       -6.423923   -2.667165    1.187845
     11          6           0       -3.692127    0.898735   -0.293603
     12          6           0       -2.457696    1.244990   -1.126834
     13          6           0       -2.158587    2.744316   -1.145462
     14          1           0       -4.559782    1.441724   -0.693268
     15          1           0       -3.545274    1.257580    0.734313
     16          1           0       -2.607425    0.885109   -2.152837
     17          1           0       -1.592904    0.700437   -0.726568
     18          1           0       -1.983016    3.114760   -0.130303
     19          1           0       -3.003301    3.300481   -1.564676
     20          1           0       -1.272246    2.969431   -1.746779
     21          6           0        4.632735   -1.191245   -1.384472
     22          6           0        5.052968   -0.824392   -0.101762
     23          6           0        4.160430   -0.229078    0.794633
     24          6           0        2.849080   -0.014322    0.373286
     25          6           0        2.400228   -0.368675   -0.898034
     26          6           0        3.310038   -0.962619   -1.777820
     27          1           0        5.332790   -1.653168   -2.074361
     28          1           0        6.079593   -1.000741    0.206442
     29          1           0        4.459144    0.064769    1.793552
     30          1           0        1.370517   -0.180182   -1.176572
     31          1           0        2.980890   -1.246491   -2.773372
     32          7           0        1.895046    0.615185    1.313468
     33          8           0        0.745083    0.793664    0.918037
     34          8           0        2.315304    0.918194    2.428011
 ---------------------------------------------------------------------

 SCF Done:  E(RHF) =  -669.536165113     A.U. after   15 cycles
 E2 =    -0.2091166835D+01 EUMP2 =    -0.67162733194861D+03

 The electronic state is 1-A.
 Alpha  occ. eigenvalues --  -20.60933 -20.60924 -15.85975 -11.31283 -11.27847
 Alpha  occ. eigenvalues --  -11.27843 -11.27584 -11.26854 -11.26843 -11.21061
 Alpha  occ. eigenvalues --  -11.20751 -11.20689 -11.20649 -11.20567 -11.20181
 Alpha  occ. eigenvalues --   -1.59998  -1.39554  -1.19453  -1.08859  -1.07715
 Alpha  occ. eigenvalues --   -1.04848  -1.02822  -0.95704  -0.95287  -0.86308
 Alpha  occ. eigenvalues --   -0.86249  -0.82540  -0.78914  -0.77640  -0.77481
 Alpha  occ. eigenvalues --   -0.72206  -0.71312  -0.70562  -0.65115  -0.64851
 Alpha  occ. eigenvalues --   -0.64316  -0.62197  -0.60184  -0.58681  -0.56910
 Alpha  occ. eigenvalues --   -0.55353  -0.54556  -0.53180  -0.52940  -0.52004
 Alpha  occ. eigenvalues --   -0.51724  -0.49229  -0.48953  -0.48945  -0.47230
 Alpha  occ. eigenvalues --   -0.45910  -0.45082  -0.44992  -0.44914  -0.43089
 Alpha  occ. eigenvalues --   -0.37432  -0.36449
 Alpha virt. eigenvalues --    0.04940   0.11205   0.16441   0.20942   0.23478
 Alpha virt. eigenvalues --    0.24489   0.26294   0.27465   0.27754   0.28644
 Alpha virt. eigenvalues --    0.28963   0.30492   0.31612   0.32224   0.32611

 Mulliken charges:
               1
     1  C   -0.298531
     2  C   -0.299393
     3  C   -0.475378
     4  H    0.145099
     5  H    0.151901
     6  H    0.150340
     7  H    0.153993
     8  H    0.155028
     9  H    0.152957
    10  H    0.158962
    11  C   -0.297527
    12  C   -0.309240
    13  C   -0.472716
    14  H    0.145573
    15  H    0.155790
    16  H    0.141972
    17  H    0.170870
    18  H    0.164401
    19  H    0.149341
    20  H    0.154273
    21  C   -0.170453
    22  C   -0.218655
    23  C   -0.170788
    24  C    0.157459
    25  C   -0.171250
    26  C   -0.219258
    27  H    0.225988
    28  H    0.223772
    29  H    0.275746
    30  H    0.278123
    31  H    0.224181
    32  N    0.494526
    33  O   -0.467790
    34  O   -0.459317
 Sum of Mulliken charges =  -0.00000

 Dipole moment (field-independent basis, Debye):
    X=              3.5857    Y=             -2.2013    Z=             -3.1493  Tot=              5.2556
 Quadrupole moment (field-independent basis, Debye-Ang):
   XX=            -73.7244   YY=            -96.8449   ZZ=            -94.7810
   XY=             -6.8535   XZ=             -5.4545   YZ=             -0.1436

 Normal termination of Gaussian 16 at Thu May  6 17:04:28 2021.
