 Gaussian 16, Revision A.03,
 Gaussian 16:  EM64L-G16RevA.03 25-Dec-2016

 -------------
 #p 6-31g* mp2
 -------------

 ------------------------------------------------------
 Input file generated by CHIRIPA (05-May-2021 14:55:22)
 ------------------------------------------------------
 Symbolic Z-matrix:
 Charge =  0 Multiplicity = 1

                         Standard orientation:
 ---------------------------------------------------------------------
 Center     Atomic      Atomic             Coordinates (Angstroms)
 Number     Number       Type             X           Y           Z
 ---------------------------------------------------------------------
      1          6           0        3.487731    1.684519    0.766836
      2          6           0        4.192704    0.476431    0.759333
      3          6           0        3.579294   -0.700868    0.320877
      4          6           0        2.253685   -0.633464   -0.105160
      5          6           0        1.524807    0.554815   -0.109538
      6          6           0        2.158375    1.719793    0.333141
      7          1           0        3.972073    2.594287    1.109080
      8          1           0        5.225205    0.446052    1.095585
      9          1           0        4.101682   -1.649691    0.304609
     10          1           0        0.496670    0.553659   -0.450641
     11          1           0        1.608433    2.656589    0.337872
     12          7           0        1.593624   -1.873295   -0.571570
     13          8           0        0.424824   -1.787369   -0.941920
     14          8           0        2.257568   -2.907525   -0.557960
     15          6           0       -3.361620    0.103878    0.556824
     16          6           0       -3.881065   -1.214283   -0.018166
     17          6           0       -4.553971   -2.094467    1.035527
     18          1           0       -2.649954   -0.111388    1.365612
     19          1           0       -4.197679    0.651355    1.013628
     20          1           0       -3.044525   -1.758478   -0.474969
     21          1           0       -4.591431   -0.995854   -0.825807
     22          1           0       -5.406363   -1.574464    1.484556
     23          1           0       -3.850667   -2.341420    1.837387
     24          1           0       -4.917858   -3.031617    0.602866
     25          6           0       -2.686306    0.994681   -0.484401
     26          6           0       -2.166861    2.312842    0.090589
     27          6           0       -1.493955    3.193025   -0.963103
     28          1           0       -1.850246    0.447204   -0.941204
     29          1           0       -3.397971    1.209947   -1.293189
     30          1           0       -1.456494    2.094414    0.898230
     31          1           0       -3.003400    2.857037    0.547393
     32          1           0       -2.197259    3.439980   -1.764963
     33          1           0       -0.641563    2.673023   -1.412133
     34          1           0       -1.130068    4.130176   -0.530442
 ---------------------------------------------------------------------

 SCF Done:  E(RHF) =  -669.535675795     A.U. after   15 cycles
 E2 =    -0.2093406969D+01 EUMP2 =    -0.67162908276329D+03

 The electronic state is 1-A.
 Alpha  occ. eigenvalues --  -20.60890 -20.60884 -15.85931 -11.31228 -11.27796
 Alpha  occ. eigenvalues --  -11.27756 -11.27520 -11.26803 -11.26760 -11.22064
 Alpha  occ. eigenvalues --  -11.21796 -11.21413 -11.21159 -11.20998 -11.20561
 Alpha  occ. eigenvalues --   -1.59955  -1.39511  -1.19397  -1.08803  -1.08419
 Alpha  occ. eigenvalues --   -1.04794  -1.03535  -0.96009  -0.95651  -0.87039
 Alpha  occ. eigenvalues --   -0.86190  -0.82484  -0.79643  -0.78109  -0.77537
 Alpha  occ. eigenvalues --   -0.72156  -0.71270  -0.70533  -0.65216  -0.65043
 Alpha  occ. eigenvalues --   -0.64717  -0.62205  -0.60792  -0.59460  -0.57565
 Alpha  occ. eigenvalues --   -0.55348  -0.55260  -0.53126  -0.52900  -0.52715
 Alpha  occ. eigenvalues --   -0.52416  -0.49988  -0.48916  -0.48899  -0.47924
 Alpha  occ. eigenvalues --   -0.46675  -0.45657  -0.45475  -0.44922  -0.43754
 Alpha  occ. eigenvalues --   -0.37376  -0.36382
 Alpha virt. eigenvalues --    0.04955   0.11255   0.16419   0.19078   0.23290
 Alpha virt. eigenvalues --    0.23985   0.25871   0.26692   0.27419   0.28334
 Alpha virt. eigenvalues --    0.30462   0.30653   0.31282   0.31516   0.32216

 Mulliken charges:
               1
     1  C   -0.170352
     2  C   -0.219094
     3  C   -0.169565
     4  C    0.156110
     5  C   -0.179220
     6  C   -0.226219
     7  H    0.225994
     8  H    0.223630
     9  H    0.275636
    10  H    0.291039
    11  H    0.229037
    12  N    0.488722
    13  O   -0.465373
    14  O   -0.459175
    15  C   -0.296163
    16  C   -0.305422
    17  C   -0.475624
    18  H    0.149558
    19  H    0.147016
    20  H    0.170621
    21  H    0.149242
    22  H    0.151376
    23  H    0.155969
    24  H    0.161535
    25  C   -0.310816
    26  C   -0.305573
    27  C   -0.479884
    28  H    0.162673
    29  H    0.152301
    30  H    0.146619
    31  H    0.156553
    32  H    0.162784
    33  H    0.148799
    34  H    0.157265
 Sum of Mulliken charges =  -0.00000

 Dipole moment (field-independent basis, Debye):
    X=              2.2831    Y=              4.2309    Z=              1.5792  Tot=              5.0603
 Quadrupole moment (field-independent basis, Debye-Ang):
   XX=            -80.1519   YY=            -99.8034   ZZ=            -96.1963
   XY=              5.3346   XZ=              5.2695   YZ=             -1.5956

 Normal termination of Gaussian 16 at Thu May  6 07:51:13 2021.
