 Gaussian 16, Revision A.03,
 Gaussian 16:  EM64L-G16RevA.03 25-Dec-2016

 -------------
 #p 6-31g* mp2
 -------------

 ------------------------------------------------------
 Input file generated by CHIRIPA (05-May-2021 14:51:12)
 ------------------------------------------------------
 Symbolic Z-matrix:
 Charge =  0 Multiplicity = 1

                         Standard orientation:
 ---------------------------------------------------------------------
 Center     Atomic      Atomic             Coordinates (Angstroms)
 Number     Number       Type             X           Y           Z
 ---------------------------------------------------------------------
      1          6           0       -4.018794    0.779400    0.325018
      2          6           0       -3.895403    2.104216   -0.428389
      3          6           0       -4.498423    3.280057    0.340739
      4          1           0       -5.079229    0.579448    0.531032
      5          1           0       -3.523017    0.873156    1.301139
      6          1           0       -4.390065    2.007553   -1.403367
      7          1           0       -2.835153    2.300943   -0.632802
      8          1           0       -3.999126    3.405002    1.307016
      9          1           0       -5.562873    3.109945    0.532073
     10          1           0       -4.399317    4.217103   -0.216022
     11          6           0       -3.420503   -0.405527   -0.431106
     12          6           0       -3.543894   -1.730343    0.322301
     13          6           0       -2.940874   -2.906184   -0.446827
     14          1           0       -3.916280   -0.499282   -1.407227
     15          1           0       -2.360068   -0.205575   -0.637120
     16          1           0       -4.604144   -1.927069    0.526714
     17          1           0       -3.049232   -1.633679    1.297279
     18          1           0       -1.876424   -2.736071   -0.638161
     19          1           0       -3.440171   -3.031128   -1.413105
     20          1           0       -3.039980   -3.843230    0.109934
     21          6           0        4.150810    0.295722   -0.352632
     22          6           0        5.325513    0.871341    0.439024
     23          6           0        6.178747    1.835179   -0.386083
     24          1           0        4.534973   -0.221975   -1.242211
     25          1           0        3.524086    1.121178   -0.717646
     26          1           0        5.949074    0.044983    0.803609
     27          1           0        4.938520    1.387563    1.326925
     28          1           0        5.576031    2.678762   -0.737793
     29          1           0        6.592326    1.328554   -1.264083
     30          1           0        7.012763    2.234795    0.199225
     31          6           0        3.288487   -0.669595    0.458720
     32          6           0        2.113784   -1.245214   -0.332936
     33          6           0        1.260550   -2.209052    0.492171
     34          1           0        3.915211   -1.495051    0.823734
     35          1           0        2.904324   -0.151898    1.348299
     36          1           0        2.500776   -1.761437   -1.220836
     37          1           0        1.490223   -0.418856   -0.697520
     38          1           0        0.846971   -1.702428    1.370171
     39          1           0        1.863266   -3.052637    0.843881
     40          1           0        0.426534   -2.608668   -0.093137
 ---------------------------------------------------------------------

 SCF Done:  E(RHF) =  -470.733312605     A.U. after   11 cycles
 E2 =    -0.1582420096D+01 EUMP2 =    -0.47231573270030D+03

 The electronic state is 1-A.
 Alpha  occ. eigenvalues --  -11.21649 -11.21623 -11.21609 -11.21581 -11.21436
 Alpha  occ. eigenvalues --  -11.21401 -11.21376 -11.21341 -11.21110 -11.21087
 Alpha  occ. eigenvalues --  -11.21079 -11.21038  -1.08463  -1.08424  -1.03570
 Alpha  occ. eigenvalues --   -1.03516  -0.96031  -0.95957  -0.87059  -0.86963
 Alpha  occ. eigenvalues --   -0.79641  -0.79570  -0.78273  -0.78237  -0.65103
 Alpha  occ. eigenvalues --   -0.65047  -0.61001  -0.60912  -0.59407  -0.59322
 Alpha  occ. eigenvalues --   -0.57690  -0.57530  -0.55320  -0.55250  -0.52774
 Alpha  occ. eigenvalues --   -0.52660  -0.52478  -0.52305  -0.49958  -0.49890
 Alpha  occ. eigenvalues --   -0.47991  -0.47850  -0.46657  -0.46609  -0.45815
 Alpha  occ. eigenvalues --   -0.45780  -0.45744  -0.45698  -0.43789  -0.43778
 Alpha virt. eigenvalues --    0.21114   0.23126   0.23541   0.25052   0.26315
 Alpha virt. eigenvalues --    0.26573   0.27037   0.27330   0.27863   0.28793
 Alpha virt. eigenvalues --    0.30204   0.31281   0.31702   0.31762   0.32059

 Mulliken charges:
               1
     1  C   -0.298301
     2  C   -0.299586
     3  C   -0.475695
     4  H    0.149713
     5  H    0.149408
     6  H    0.152001
     7  H    0.151647
     8  H    0.155088
     9  H    0.155256
    10  H    0.160227
    11  C   -0.298591
    12  C   -0.299143
    13  C   -0.481729
    14  H    0.149483
    15  H    0.149692
    16  H    0.151840
    17  H    0.152304
    18  H    0.160635
    19  H    0.155006
    20  H    0.160437
    21  C   -0.298272
    22  C   -0.299673
    23  C   -0.475724
    24  H    0.149790
    25  H    0.149476
    26  H    0.152001
    27  H    0.151921
    28  H    0.155200
    29  H    0.155245
    30  H    0.160325
    31  C   -0.298499
    32  C   -0.299249
    33  C   -0.482552
    34  H    0.149763
    35  H    0.149540
    36  H    0.152299
    37  H    0.151378
    38  H    0.154857
    39  H    0.155861
    40  H    0.166622
 Sum of Mulliken charges =  -0.00000

 Dipole moment (field-independent basis, Debye):
    X=              0.0147    Y=             -0.0115    Z=              0.0011  Tot=              0.0187
 Quadrupole moment (field-independent basis, Debye-Ang):
   XX=            -84.2458   YY=            -85.5454   ZZ=            -84.9126
   XY=             -0.4782   XZ=              0.7130   YZ=              0.2419

 Normal termination of Gaussian 16 at Wed May  5 21:33:11 2021.
