 Gaussian 16, Revision A.03,
 Gaussian 16:  EM64L-G16RevA.03 25-Dec-2016

 -------------
 #p 6-31g* mp2
 -------------

 ------------------------------------------------------
 Input file generated by CHIRIPA (05-May-2021 14:51:11)
 ------------------------------------------------------
 Symbolic Z-matrix:
 Charge =  0 Multiplicity = 1

                         Standard orientation:
 ---------------------------------------------------------------------
 Center     Atomic      Atomic             Coordinates (Angstroms)
 Number     Number       Type             X           Y           Z
 ---------------------------------------------------------------------
      1          6           0       -2.605354   -0.603282    0.830810
      2          6           0       -1.685309    0.431598    1.479288
      3          6           0       -0.589639   -0.205132    2.334786
      4          1           0       -3.063321   -1.220455    1.615863
      5          1           0       -2.003022   -1.282006    0.211193
      6          1           0       -2.289377    1.109013    2.096400
      7          1           0       -1.229627    1.046503    0.692611
      8          1           0        0.037417   -0.866390    1.728041
      9          1           0       -1.028354   -0.803524    3.139806
     10          1           0        0.056478    0.552665    2.788809
     11          6           0       -3.705813    0.017874   -0.027610
     12          6           0       -4.625858   -1.017006   -0.676089
     13          6           0       -5.721528   -0.380276   -1.531586
     14          1           0       -4.308145    0.696598    0.592007
     15          1           0       -3.247846    0.635047   -0.812663
     16          1           0       -5.081540   -1.631911    0.110589
     17          1           0       -4.021790   -1.694422   -1.293200
     18          1           0       -5.282813    0.218116   -2.336606
     19          1           0       -6.348584    0.280982   -0.924841
     20          1           0       -6.367645   -1.138073   -1.985609
     21          6           0        3.237959   -0.444857   -0.582294
     22          6           0        4.551634   -1.048164   -0.084036
     23          6           0        4.701841   -2.524275   -0.453265
     24          1           0        2.397719   -1.016143   -0.164476
     25          1           0        3.181095   -0.558388   -1.673748
     26          1           0        4.606632   -0.932291    1.005994
     27          1           0        5.388841   -0.475256   -0.502936
     28          1           0        4.672947   -2.654438   -1.539923
     29          1           0        3.886293   -3.114068   -0.022419
     30          1           0        5.647872   -2.935377   -0.087372
     31          6           0        3.073208    1.030264   -0.220906
     32          6           0        1.759532    1.633573   -0.719164
     33          6           0        1.609327    3.109684   -0.349935
     34          1           0        3.130072    1.143796    0.870549
     35          1           0        3.913449    1.601552   -0.638724
     36          1           0        0.922325    1.060665   -0.300263
     37          1           0        1.704535    1.517698   -1.809193
     38          1           0        2.424873    3.699477   -0.780780
     39          1           0        1.638221    3.239846    0.736722
     40          1           0        0.663295    3.520786   -0.715828
 ---------------------------------------------------------------------

 SCF Done:  E(RHF) =  -470.733220023     A.U. after   11 cycles
 E2 =    -0.1583472538D+01 EUMP2 =    -0.47231669256112D+03

 The electronic state is 1-A.
 Alpha  occ. eigenvalues --  -11.21629 -11.21612 -11.21600 -11.21576 -11.21429
 Alpha  occ. eigenvalues --  -11.21408 -11.21369 -11.21345 -11.21160 -11.21082
 Alpha  occ. eigenvalues --  -11.21078 -11.21072  -1.08474  -1.08416  -1.03595
 Alpha  occ. eigenvalues --   -1.03504  -0.96020  -0.95980  -0.87034  -0.86995
 Alpha  occ. eigenvalues --   -0.79669  -0.79559  -0.78296  -0.78222  -0.65267
 Alpha  occ. eigenvalues --   -0.64920  -0.61200  -0.60719  -0.59398  -0.59321
 Alpha  occ. eigenvalues --   -0.57658  -0.57559  -0.55309  -0.55267  -0.52712
 Alpha  occ. eigenvalues --   -0.52674  -0.52448  -0.52400  -0.49971  -0.49911
 Alpha  occ. eigenvalues --   -0.48017  -0.47880  -0.46848  -0.46455  -0.45936
 Alpha  occ. eigenvalues --   -0.45753  -0.45739  -0.45510  -0.43815  -0.43783
 Alpha virt. eigenvalues --    0.19837   0.23086   0.23578   0.24613   0.26014
 Alpha virt. eigenvalues --    0.26379   0.26752   0.27677   0.28447   0.29219
 Alpha virt. eigenvalues --    0.30790   0.31332   0.31716   0.31987   0.32384

 Mulliken charges:
               1
     1  C   -0.298256
     2  C   -0.306026
     3  C   -0.478040
     4  H    0.149795
     5  H    0.149467
     6  H    0.152661
     7  H    0.157592
     8  H    0.155916
     9  H    0.156009
    10  H    0.160325
    11  C   -0.298387
    12  C   -0.299707
    13  C   -0.475740
    14  H    0.149598
    15  H    0.149901
    16  H    0.151933
    17  H    0.152074
    18  H    0.155251
    19  H    0.155186
    20  H    0.160307
    21  C   -0.300126
    22  C   -0.299652
    23  C   -0.475740
    24  H    0.150505
    25  H    0.149392
    26  H    0.152328
    27  H    0.151986
    28  H    0.155066
    29  H    0.155141
    30  H    0.160344
    31  C   -0.297314
    32  C   -0.308433
    33  C   -0.475566
    34  H    0.150017
    35  H    0.149539
    36  H    0.160631
    37  H    0.151385
    38  H    0.155370
    39  H    0.155292
    40  H    0.159977
 Sum of Mulliken charges =  -0.00000

 Dipole moment (field-independent basis, Debye):
    X=             -0.0148    Y=              0.0025    Z=              0.0108  Tot=              0.0185
 Quadrupole moment (field-independent basis, Debye-Ang):
   XX=            -84.9511   YY=            -85.9777   ZZ=            -83.7994
   XY=              0.6304   XZ=             -1.4023   YZ=             -0.2004

 Normal termination of Gaussian 16 at Thu May  6 00:42:07 2021.
