 Gaussian 16, Revision A.03,
 Gaussian 16:  EM64L-G16RevA.03 25-Dec-2016

 -------------
 #p 6-31g* mp2
 -------------

 ------------------------------------------------------
 Input file generated by CHIRIPA (05-May-2021 14:57:25)
 ------------------------------------------------------
 Symbolic Z-matrix:
 Charge =  0 Multiplicity = 1

                         Standard orientation:
 ---------------------------------------------------------------------
 Center     Atomic      Atomic             Coordinates (Angstroms)
 Number     Number       Type             X           Y           Z
 ---------------------------------------------------------------------
      1          6           0        3.721996    2.048340   -0.950203
      2          6           0        2.419251    1.669455   -1.290531
      3          6           0        1.890710    0.457511   -0.836234
      4          6           0        2.696340   -0.354900   -0.039843
      5          6           0        3.997932   -0.005210    0.316338
      6          6           0        4.505797    1.211274   -0.149267
      7          1           0        4.124549    2.991570   -1.307504
      8          1           0        1.808256    2.317535   -1.912400
      9          1           0        0.885376    0.139659   -1.084612
     10          1           0        4.582921   -0.672278    0.937809
     11          1           0        5.517862    1.502950    0.116618
     12          7           0        2.147741   -1.640334    0.447087
     13          8           0        2.877833   -2.338314    1.147391
     14          8           0        0.998046   -1.925536    0.119217
     15          6           0       -2.394517    1.435580    2.251157
     16          6           0       -2.928059    2.079620    1.129967
     17          6           0       -3.149600    1.373382   -0.056074
     18          6           0       -2.824675    0.018087   -0.085928
     19          6           0       -2.291745   -0.651770    1.014329
     20          6           0       -2.078620    0.074340    2.189868
     21          1           0       -2.225687    1.991922    3.168423
     22          1           0       -3.174331    3.136690    1.174679
     23          1           0       -3.561459    1.847109   -0.938896
     24          1           0       -2.056178   -1.706428    0.939342
     25          1           0       -1.664140   -0.428436    3.059043
     26          7           0       -3.054757   -0.740094   -1.335978
     27          8           0       -2.760114   -1.933334   -1.336601
     28          8           0       -3.525380   -0.126760   -2.291474
 ---------------------------------------------------------------------

 SCF Done:  E(RHF) =  -868.338550833     A.U. after   16 cycles
 E2 =    -0.2600052578D+01 EUMP2 =    -0.87093860341025D+03

 The electronic state is 1-A.
 Alpha  occ. eigenvalues --  -20.60970 -20.60962 -20.60415 -20.60341 -15.86006
 Alpha  occ. eigenvalues --  -15.85433 -11.31296 -11.30811 -11.27878 -11.27832
 Alpha  occ. eigenvalues --  -11.27606 -11.27496 -11.27250 -11.27200 -11.26877
 Alpha  occ. eigenvalues --  -11.26840 -11.26491 -11.26319  -1.60040  -1.59467
 Alpha  occ. eigenvalues --   -1.39593  -1.39009  -1.19469  -1.19012  -1.08882
 Alpha  occ. eigenvalues --   -1.08415  -1.04856  -1.04389  -0.95726  -0.95229
 Alpha  occ. eigenvalues --   -0.86260  -0.85791  -0.82556  -0.82044  -0.77613
 Alpha  occ. eigenvalues --   -0.77071  -0.72236  -0.71642  -0.71361  -0.70808
 Alpha  occ. eigenvalues --   -0.70577  -0.70095  -0.65123  -0.64859  -0.64649
 Alpha  occ. eigenvalues --   -0.64382  -0.62200  -0.61699  -0.55372  -0.54924
 Alpha  occ. eigenvalues --   -0.53198  -0.52969  -0.52739  -0.52461  -0.48985
 Alpha  occ. eigenvalues --   -0.48984  -0.48427  -0.48382  -0.45015  -0.44404
 Alpha  occ. eigenvalues --   -0.37457  -0.37043  -0.36457  -0.35981
 Alpha virt. eigenvalues --    0.04865   0.05459   0.11196   0.11646   0.16392
 Alpha virt. eigenvalues --    0.16902   0.21296   0.21810   0.27166   0.27721
 Alpha virt. eigenvalues --    0.28070   0.28757   0.30721   0.31329   0.32187

 Mulliken charges:
               1
     1  C   -0.170822
     2  C   -0.219228
     3  C   -0.169169
     4  C    0.157037
     5  C   -0.171376
     6  C   -0.218979
     7  H    0.225677
     8  H    0.224902
     9  H    0.277346
    10  H    0.275144
    11  H    0.223297
    12  N    0.488663
    13  O   -0.460937
    14  O   -0.461482
    15  C   -0.171434
    16  C   -0.220707
    17  C   -0.175043
    18  C    0.150035
    19  C   -0.162091
    20  C   -0.222383
    21  H    0.223792
    22  H    0.220109
    23  H    0.272513
    24  H    0.290297
    25  H    0.226816
    26  N    0.486290
    27  O   -0.451429
    28  O   -0.466836
 Sum of Mulliken charges =  -0.00000

 Dipole moment (field-independent basis, Debye):
    X=              2.8555    Y=              6.9347    Z=              2.7410  Tot=              7.9848
 Quadrupole moment (field-independent basis, Debye-Ang):
   XX=            -96.0894   YY=           -105.1329   ZZ=           -104.6230
   XY=              2.2460   XZ=            -14.4449   YZ=             -2.4896

 Normal termination of Gaussian 16 at Fri May  7 11:10:56 2021.
