 Gaussian 16, Revision A.03,
 Gaussian 16:  EM64L-G16RevA.03 25-Dec-2016

 -------------
 #p 6-31g* mp2
 -------------

 ------------------------------------------------------
 Input file generated by CHIRIPA (05-May-2021 14:51:08)
 ------------------------------------------------------
 Symbolic Z-matrix:
 Charge =  0 Multiplicity = 1

                         Standard orientation:
 ---------------------------------------------------------------------
 Center     Atomic      Atomic             Coordinates (Angstroms)
 Number     Number       Type             X           Y           Z
 ---------------------------------------------------------------------
      1          6           0       -3.417660    0.856257   -0.039544
      2          6           0       -4.738164    1.602661    0.153159
      3          6           0       -4.562353    3.121452    0.165759
      4          1           0       -2.723062    1.139754    0.763020
      5          1           0       -2.955336    1.180618   -0.982117
      6          1           0       -5.198533    1.275971    1.094408
      7          1           0       -5.429765    1.317209   -0.649849
      8          1           0       -4.125575    3.466534   -0.776973
      9          1           0       -3.893029    3.425062    0.977194
     10          1           0       -5.518729    3.635166    0.304689
     11          6           0       -3.577069   -0.662985   -0.054330
     12          6           0       -2.256565   -1.409388   -0.247033
     13          6           0       -2.432376   -2.928179   -0.259634
     14          1           0       -4.039393   -0.987345    0.888242
     15          1           0       -4.271667   -0.946482   -0.856894
     16          1           0       -1.564964   -1.123936    0.555975
     17          1           0       -1.796196   -1.082698   -1.188282
     18          1           0       -3.101700   -3.231790   -1.071069
     19          1           0       -2.869154   -3.273262    0.683098
     20          1           0       -1.476000   -3.441894   -0.398564
     21          6           0        4.029778    0.363632    0.343789
     22          6           0        4.453535    1.488914   -0.600749
     23          6           0        5.519215    2.401263    0.007315
     24          1           0        3.650809    0.800684    1.277766
     25          1           0        4.913172   -0.231724    0.613163
     26          1           0        3.569376    2.081135   -0.869359
     27          1           0        4.831362    1.049137   -1.532661
     28          1           0        6.418004    1.829140    0.259219
     29          1           0        5.148848    2.867002    0.926291
     30          1           0        5.807490    3.198613   -0.684775
     31          6           0        2.964951   -0.556904   -0.249915
     32          6           0        2.541193   -1.682187    0.694623
     33          6           0        1.475514   -2.594535    0.086559
     34          1           0        2.081558    0.038451   -0.519289
     35          1           0        3.343919   -0.993957   -1.183892
     36          1           0        2.163368   -1.242410    1.626535
     37          1           0        3.425354   -2.274408    0.963232
     38          1           0        1.845881   -3.060276   -0.832417
     39          1           0        0.576725   -2.022412   -0.165346
     40          1           0        1.187238   -3.391885    0.778649
 ---------------------------------------------------------------------

 SCF Done:  E(RHF) =  -470.732529377     A.U. after   11 cycles
 E2 =    -0.1583318599D+01 EUMP2 =    -0.47231584797548D+03

 The electronic state is 1-A.
 Alpha  occ. eigenvalues --  -11.21622 -11.21620 -11.21589 -11.21569 -11.21426
 Alpha  occ. eigenvalues --  -11.21385 -11.21365 -11.21325 -11.21090 -11.21062
 Alpha  occ. eigenvalues --  -11.20987 -11.20961  -1.08458  -1.08401  -1.03586
 Alpha  occ. eigenvalues --   -1.03464  -0.96055  -0.95884  -0.87040  -0.86932
 Alpha  occ. eigenvalues --   -0.79658  -0.79542  -0.78299  -0.78195  -0.65101
 Alpha  occ. eigenvalues --   -0.65024  -0.61037  -0.60860  -0.59411  -0.59288
 Alpha  occ. eigenvalues --   -0.57762  -0.57457  -0.55297  -0.55149  -0.52851
 Alpha  occ. eigenvalues --   -0.52558  -0.52455  -0.52210  -0.49934  -0.49852
 Alpha  occ. eigenvalues --   -0.47980  -0.47828  -0.46694  -0.46552  -0.45856
 Alpha  occ. eigenvalues --   -0.45740  -0.45734  -0.45595  -0.43867  -0.43680
 Alpha virt. eigenvalues --    0.21992   0.23078   0.23520   0.24874   0.26381
 Alpha virt. eigenvalues --    0.26591   0.26863   0.27406   0.27918   0.29158
 Alpha virt. eigenvalues --    0.30277   0.31012   0.31388   0.31760   0.32580

 Mulliken charges:
               1
     1  C   -0.298405
     2  C   -0.299661
     3  C   -0.475709
     4  H    0.149237
     5  H    0.149401
     6  H    0.152013
     7  H    0.152088
     8  H    0.155178
     9  H    0.155069
    10  H    0.160366
    11  C   -0.297331
    12  C   -0.303166
    13  C   -0.480365
    14  H    0.149709
    15  H    0.149878
    16  H    0.152361
    17  H    0.151700
    18  H    0.154850
    19  H    0.154714
    20  H    0.167651
    21  C   -0.298229
    22  C   -0.299651
    23  C   -0.475684
    24  H    0.149501
    25  H    0.149497
    26  H    0.151981
    27  H    0.151883
    28  H    0.155153
    29  H    0.155143
    30  H    0.160216
    31  C   -0.298613
    32  C   -0.299635
    33  C   -0.485725
    34  H    0.149863
    35  H    0.149529
    36  H    0.151257
    37  H    0.151628
    38  H    0.154345
    39  H    0.168439
    40  H    0.159523
 Sum of Mulliken charges =  -0.00000

 Dipole moment (field-independent basis, Debye):
    X=             -0.0238    Y=             -0.0049    Z=             -0.0102  Tot=              0.0264
 Quadrupole moment (field-independent basis, Debye-Ang):
   XX=            -84.9489   YY=            -86.2503   ZZ=            -83.6991
   XY=             -0.9368   XZ=             -0.3943   YZ=             -0.0238

 Normal termination of Gaussian 16 at Thu May  6 00:30:55 2021.
