 Gaussian 16, Revision A.03,
 Gaussian 16:  EM64L-G16RevA.03 25-Dec-2016

 -------------
 #p 6-31g* mp2
 -------------

 ------------------------------------------------------
 Input file generated by CHIRIPA (05-May-2021 14:53:18)
 ------------------------------------------------------
 Symbolic Z-matrix:
 Charge =  0 Multiplicity = 1

                         Standard orientation:
 ---------------------------------------------------------------------
 Center     Atomic      Atomic             Coordinates (Angstroms)
 Number     Number       Type             X           Y           Z
 ---------------------------------------------------------------------
      1          6           0       -4.156185    1.031966    0.199299
      2          6           0       -2.680209    1.430727    0.177669
      3          6           0       -2.448306    2.864970    0.654072
      4          1           0       -4.726373    1.726498   -0.432726
      5          1           0       -4.545098    1.147526    1.220469
      6          1           0       -2.293836    1.313129   -0.842871
      7          1           0       -2.113440    0.735048    0.809666
      8          1           0       -2.807126    2.992734    1.680486
      9          1           0       -2.988547    3.574099    0.018559
     10          1           0       -1.386443    3.129077    0.630544
     11          6           0       -4.404086   -0.399125   -0.274255
     12          6           0       -5.880063   -0.797886   -0.252625
     13          6           0       -6.111965   -2.232130   -0.729028
     14          1           0       -4.015173   -0.514685   -1.295425
     15          1           0       -3.833899   -1.093658    0.357770
     16          1           0       -6.446832   -0.102208   -0.884622
     17          1           0       -6.266436   -0.680288    0.767916
     18          1           0       -5.571724   -2.941259   -0.093515
     19          1           0       -5.753145   -2.359894   -1.755442
     20          1           0       -7.173829   -2.496237   -0.705500
     21          6           0        0.923058   -0.485381    0.699303
     22          6           0        1.306146    0.519193   -0.195459
     23          6           0        2.644614    0.660463   -0.573733
     24          6           0        3.577890   -0.224177   -0.035496
     25          6           0        3.227405   -1.235124    0.858057
     26          6           0        1.883218   -1.357794    1.222284
     27          1           0       -0.118918   -0.587898    0.987699
     28          1           0        0.562633    1.198148   -0.603200
     29          1           0        2.968713    1.429288   -1.264592
     30          1           0        3.991336   -1.896900    1.247774
     31          1           0        1.588592   -2.138890    1.917360
     32          7           0        4.997894   -0.084466   -0.428522
     33          8           0        5.800894   -0.876532    0.059800
     34          8           0        5.281005    0.814461   -1.217455
 ---------------------------------------------------------------------

 SCF Done:  E(RHF) =  -669.535412754     A.U. after   15 cycles
 E2 =    -0.2091682405D+01 EUMP2 =    -0.67162709515853D+03

 The electronic state is 1-A.
 Alpha  occ. eigenvalues --  -20.60709 -20.60704 -15.85762 -11.31112 -11.27684
 Alpha  occ. eigenvalues --  -11.27676 -11.27384 -11.26690 -11.26658 -11.22962
 Alpha  occ. eigenvalues --  -11.22402 -11.22331 -11.22266 -11.22177 -11.21683
 Alpha  occ. eigenvalues --   -1.59785  -1.39339  -1.19281  -1.09420  -1.08674
 Alpha  occ. eigenvalues --   -1.04687  -1.04488  -0.96895  -0.95515  -0.87910
 Alpha  occ. eigenvalues --   -0.86079  -0.82353  -0.80606  -0.79216  -0.77399
 Alpha  occ. eigenvalues --   -0.71980  -0.71109  -0.70404  -0.66044  -0.64931
 Alpha  occ. eigenvalues --   -0.64700  -0.62053  -0.61884  -0.60277  -0.58511
 Alpha  occ. eigenvalues --   -0.56162  -0.55205  -0.53602  -0.53317  -0.53010
 Alpha  occ. eigenvalues --   -0.52758  -0.50826  -0.48884  -0.48740  -0.48735
 Alpha  occ. eigenvalues --   -0.47626  -0.46743  -0.46644  -0.44749  -0.44734
 Alpha  occ. eigenvalues --   -0.37254  -0.36291
 Alpha virt. eigenvalues --    0.05133   0.11332   0.16622   0.19114   0.22346
 Alpha virt. eigenvalues --    0.23326   0.24364   0.25631   0.26377   0.28207
 Alpha virt. eigenvalues --    0.29241   0.29578   0.30849   0.31630   0.31738

 Mulliken charges:
               1
     1  C   -0.298129
     2  C   -0.307731
     3  C   -0.477119
     4  H    0.154023
     5  H    0.152433
     6  H    0.150732
     7  H    0.145895
     8  H    0.159857
     9  H    0.160476
    10  H    0.158701
    11  C   -0.298650
    12  C   -0.300387
    13  C   -0.476214
    14  H    0.150999
    15  H    0.145448
    16  H    0.154095
    17  H    0.153141
    18  H    0.154859
    19  H    0.156380
    20  H    0.162783
    21  C   -0.175001
    22  C   -0.224884
    23  C   -0.171382
    24  C    0.158492
    25  C   -0.170942
    26  C   -0.219124
    27  H    0.231336
    28  H    0.229329
    29  H    0.275434
    30  H    0.275234
    31  H    0.223218
    32  N    0.488037
    33  O   -0.460669
    34  O   -0.460670
 Sum of Mulliken charges =  -0.00000

 Dipole moment (field-independent basis, Debye):
    X=             -5.3024    Y=             -0.4284    Z=              1.3701  Tot=              5.4933
 Quadrupole moment (field-independent basis, Debye-Ang):
   XX=           -129.9334   YY=            -92.4588   ZZ=            -92.8483
   XY=             -2.2988   XZ=              6.0168   YZ=             -3.5523

 Normal termination of Gaussian 16 at Wed May  5 20:27:55 2021.
