 Gaussian 16, Revision A.03,
 Gaussian 16:  EM64L-G16RevA.03 25-Dec-2016

 -------------
 #p 6-31g* mp2
 -------------

 ------------------------------------------------------
 Input file generated by CHIRIPA (05-May-2021 14:53:11)
 ------------------------------------------------------
 Symbolic Z-matrix:
 Charge =  0 Multiplicity = 1

                         Standard orientation:
 ---------------------------------------------------------------------
 Center     Atomic      Atomic             Coordinates (Angstroms)
 Number     Number       Type             X           Y           Z
 ---------------------------------------------------------------------
      1          6           0        3.434665   -0.409630    0.381901
      2          6           0        3.069463   -1.616974   -0.482353
      3          6           0        3.188855   -2.941634    0.271845
      4          1           0        4.461317   -0.530147    0.753932
      5          1           0        2.782244   -0.389455    1.265832
      6          1           0        3.721457   -1.634084   -1.365091
      7          1           0        2.043629   -1.493477   -0.852526
      8          1           0        2.525985   -2.949969    1.143129
      9          1           0        4.213346   -3.091375    0.627651
     10          1           0        2.923182   -3.791389   -0.364703
     11          6           0        3.320195    0.921930   -0.358079
     12          6           0        3.685398    2.129274    0.506175
     13          6           0        3.566005    3.453934   -0.248023
     14          1           0        3.972617    0.901755   -1.242010
     15          1           0        2.293544    1.042447   -0.730110
     16          1           0        4.711232    2.005777    0.876348
     17          1           0        3.033404    2.146384    1.388914
     18          1           0        2.541515    3.603675   -0.603829
     19          1           0        4.228876    3.462269   -1.119306
     20          1           0        3.831679    4.303689    0.388525
     21          6           0       -4.731250    1.202665    0.128579
     22          6           0       -4.092531    0.781358    1.299501
     23          6           0       -2.932458    0.003779    1.235084
     24          6           0       -2.436309   -0.335733   -0.022636
     25          6           0       -3.049893    0.068657   -1.207234
     26          6           0       -4.208814    0.845600   -1.118852
     27          1           0       -5.631975    1.806460    0.187929
     28          1           0       -4.496009    1.057158    2.269649
     29          1           0       -2.417876   -0.335944    2.125708
     30          1           0       -2.623939   -0.222102   -2.159831
     31          1           0       -4.702744    1.171371   -2.029869
     32          7           0       -1.208802   -1.158584   -0.103517
     33          8           0       -0.791744   -1.444331   -1.223806
     34          8           0       -0.686984   -1.502208    0.954909
 ---------------------------------------------------------------------

 SCF Done:  E(RHF) =  -669.537014719     A.U. after   15 cycles
 E2 =    -0.2091966797D+01 EUMP2 =    -0.67162898151651D+03

 The electronic state is 1-A.
 Alpha  occ. eigenvalues --  -20.61168 -20.61156 -15.86157 -11.31416 -11.27965
 Alpha  occ. eigenvalues --  -11.27961 -11.27689 -11.26954 -11.26944 -11.20867
 Alpha  occ. eigenvalues --  -11.20545 -11.20367 -11.20002 -11.19723 -11.19355
 Alpha  occ. eigenvalues --   -1.60196  -1.39754  -1.19572  -1.08990  -1.07239
 Alpha  occ. eigenvalues --   -1.04956  -1.02293  -0.95840  -0.94802  -0.86360
 Alpha  occ. eigenvalues --   -0.85831  -0.82676  -0.78448  -0.77740  -0.76946
 Alpha  occ. eigenvalues --   -0.72362  -0.71504  -0.70679  -0.65227  -0.64960
 Alpha  occ. eigenvalues --   -0.63868  -0.62303  -0.59675  -0.58251  -0.56378
 Alpha  occ. eigenvalues --   -0.55462  -0.54094  -0.53292  -0.53046  -0.51535
 Alpha  occ. eigenvalues --   -0.51224  -0.49193  -0.49124  -0.48743  -0.46732
 Alpha  occ. eigenvalues --   -0.45481  -0.45215  -0.44500  -0.44224  -0.42568
 Alpha  occ. eigenvalues --   -0.37546  -0.36553
 Alpha virt. eigenvalues --    0.04757   0.11103   0.16266   0.21242   0.23918
 Alpha virt. eigenvalues --    0.25601   0.27174   0.27744   0.28221   0.28666
 Alpha virt. eigenvalues --    0.29110   0.30840   0.32339   0.32576   0.32814

 Mulliken charges:
               1
     1  C   -0.298687
     2  C   -0.308543
     3  C   -0.474825
     4  H    0.142953
     5  H    0.153573
     6  H    0.141932
     7  H    0.179531
     8  H    0.163764
     9  H    0.144595
    10  H    0.157716
    11  C   -0.296941
    12  C   -0.298626
    13  C   -0.474595
    14  H    0.146853
    15  H    0.148970
    16  H    0.150507
    17  H    0.149993
    18  H    0.152405
    19  H    0.154403
    20  H    0.157003
    21  C   -0.170274
    22  C   -0.218598
    23  C   -0.170691
    24  C    0.158909
    25  C   -0.170618
    26  C   -0.218578
    27  H    0.226510
    28  H    0.224294
    29  H    0.275983
    30  H    0.276199
    31  H    0.224338
    32  N    0.488393
    33  O   -0.458414
    34  O   -0.459435
 Sum of Mulliken charges =  -0.00000

 Dipole moment (field-independent basis, Debye):
    X=             -4.7877    Y=              2.8063    Z=              0.2830  Tot=              5.5568
 Quadrupole moment (field-independent basis, Debye-Ang):
   XX=            -74.6532   YY=            -99.1749   ZZ=            -89.8374
   XY=             -5.9056   XZ=             -0.6384   YZ=              0.1289

 Normal termination of Gaussian 16 at Thu May  6 04:03:02 2021.
