 Gaussian 16, Revision A.03,
 Gaussian 16:  EM64L-G16RevA.03 25-Dec-2016

 -------------
 #p 6-31g* mp2
 -------------

 ------------------------------------------------------
 Input file generated by CHIRIPA (05-May-2021 14:57:21)
 ------------------------------------------------------
 Symbolic Z-matrix:
 Charge =  0 Multiplicity = 1

                         Standard orientation:
 ---------------------------------------------------------------------
 Center     Atomic      Atomic             Coordinates (Angstroms)
 Number     Number       Type             X           Y           Z
 ---------------------------------------------------------------------
      1          6           0       -6.072934    1.044702   -0.419707
      2          6           0       -6.067439   -0.311783   -0.078478
      3          6           0       -4.864293   -0.971918    0.188372
      4          6           0       -3.679834   -0.241652    0.104365
      5          6           0       -3.652573    1.110639   -0.233061
      6          6           0       -4.867608    1.750340   -0.495776
      7          1           0       -7.012185    1.549575   -0.625397
      8          1           0       -7.001991   -0.862308   -0.018642
      9          1           0       -4.831154   -2.021366    0.454791
     10          1           0       -2.704947    1.632900   -0.284699
     11          1           0       -4.868848    2.803878   -0.760543
     12          7           0       -2.399823   -0.929692    0.384679
     13          8           0       -1.369837   -0.263928    0.303906
     14          8           0       -2.450775   -2.121712    0.679853
     15          6           0        3.701763    2.617632    0.306792
     16          6           0        4.961156    2.010953    0.257915
     17          6           0        5.077857    0.632458    0.056216
     18          6           0        3.909070   -0.112409   -0.093449
     19          6           0        2.640038    0.462851   -0.049575
     20          6           0        2.547259    1.843010    0.153163
     21          1           0        3.620398    3.689126    0.463881
     22          1           0        5.859473    2.610046    0.376912
     23          1           0        6.040249    0.137034    0.014120
     24          1           0        1.762606   -0.160576   -0.171511
     25          1           0        1.567877    2.311465    0.190675
     26          7           0        4.019953   -1.572640   -0.307528
     27          8           0        2.975008   -2.206730   -0.436585
     28          8           0        5.149709   -2.055429   -0.342212
 ---------------------------------------------------------------------

 SCF Done:  E(RHF) =  -868.338669608     A.U. after   16 cycles
 E2 =    -0.2598888983D+01 EUMP2 =    -0.87093755859070D+03

 The electronic state is 1-A.
 Alpha  occ. eigenvalues --  -20.61225 -20.61166 -20.59805 -20.59757 -15.86245
 Alpha  occ. eigenvalues --  -15.84835 -11.31536 -11.30208 -11.28139 -11.28057
 Alpha  occ. eigenvalues --  -11.27811 -11.27111 -11.27061 -11.26892 -11.26665
 Alpha  occ. eigenvalues --  -11.26626 -11.25930 -11.25801  -1.60245  -1.58865
 Alpha  occ. eigenvalues --   -1.39810  -1.38411  -1.19695  -1.18421  -1.09098
 Alpha  occ. eigenvalues --   -1.07840  -1.05092  -1.03810  -0.95950  -0.94651
 Alpha  occ. eigenvalues --   -0.86493  -0.85223  -0.82795  -0.81468  -0.77851
 Alpha  occ. eigenvalues --   -0.76486  -0.72475  -0.71555  -0.71052  -0.70806
 Alpha  occ. eigenvalues --   -0.70193  -0.69540  -0.65355  -0.65094  -0.64074
 Alpha  occ. eigenvalues --   -0.63829  -0.62447  -0.61117  -0.55587  -0.54382
 Alpha  occ. eigenvalues --   -0.53417  -0.53186  -0.52177  -0.51898  -0.49226
 Alpha  occ. eigenvalues --   -0.49176  -0.47834  -0.47791  -0.45229  -0.43814
 Alpha  occ. eigenvalues --   -0.37663  -0.36690  -0.36466  -0.35421
 Alpha virt. eigenvalues --    0.04692   0.06021   0.10966   0.12217   0.16198
 Alpha virt. eigenvalues --    0.17474   0.21008   0.22285   0.26862   0.27491
 Alpha virt. eigenvalues --    0.28540   0.29244   0.30708   0.31691   0.32482

 Mulliken charges:
               1
     1  C   -0.170421
     2  C   -0.218334
     3  C   -0.170042
     4  C    0.158967
     5  C   -0.170067
     6  C   -0.218148
     7  H    0.226702
     8  H    0.225147
     9  H    0.277751
    10  H    0.269914
    11  H    0.223057
    12  N    0.492049
    13  O   -0.472494
    14  O   -0.451484
    15  C   -0.171448
    16  C   -0.219829
    17  C   -0.171483
    18  C    0.156743
    19  C   -0.175959
    20  C   -0.221119
    21  H    0.220694
    22  H    0.219407
    23  H    0.272818
    24  H    0.297699
    25  H    0.222413
    26  N    0.487126
    27  O   -0.453836
    28  O   -0.465825
 Sum of Mulliken charges =  -0.00000

 Dipole moment (field-independent basis, Debye):
    X=             -5.4084    Y=              7.3201    Z=             -0.2236  Tot=              9.1041
 Quadrupole moment (field-independent basis, Debye-Ang):
   XX=            -69.6236   YY=           -104.4880   ZZ=           -106.7925
   XY=             15.0552   XZ=              5.9620   YZ=             -1.0263

 Normal termination of Gaussian 16 at Wed May  5 20:54:56 2021.
