 Gaussian 16, Revision A.03,
 Gaussian 16:  EM64L-G16RevA.03 25-Dec-2016

 -------------
 #p 6-31g* mp2
 -------------

 ------------------------------------------------------
 Input file generated by CHIRIPA (05-May-2021 14:51:11)
 ------------------------------------------------------
 Symbolic Z-matrix:
 Charge =  0 Multiplicity = 1

                         Standard orientation:
 ---------------------------------------------------------------------
 Center     Atomic      Atomic             Coordinates (Angstroms)
 Number     Number       Type             X           Y           Z
 ---------------------------------------------------------------------
      1          6           0       -2.742159   -0.471858    0.489062
      2          6           0       -2.099377   -1.794316    0.069632
      3          6           0       -0.793235   -2.078406    0.811979
      4          1           0       -2.031643    0.346785    0.310355
      5          1           0       -2.931137   -0.491047    1.571335
      6          1           0       -1.912935   -1.773180   -1.011760
      7          1           0       -2.811576   -2.609884    0.249180
      8          1           0       -0.966498   -2.126398    1.891922
      9          1           0       -0.062750   -1.284940    0.623818
     10          1           0       -0.350808   -3.028557    0.496807
     11          6           0       -4.048700   -0.173850   -0.244333
     12          6           0       -4.691481    1.148608    0.175097
     13          6           0       -5.997624    1.432698   -0.567249
     14          1           0       -3.859722   -0.154661   -1.326606
     15          1           0       -4.759215   -0.992493   -0.065625
     16          1           0       -3.979282    1.964176   -0.004451
     17          1           0       -4.877924    1.127472    1.256489
     18          1           0       -6.728108    0.639232   -0.379088
     19          1           0       -5.824361    1.480690   -1.647193
     20          1           0       -6.440050    2.382849   -0.252078
     21          6           0        3.059151   -0.311022   -0.384185
     22          6           0        3.814816   -1.590886   -0.025153
     23          6           0        3.129686   -2.850533   -0.555886
     24          1           0        2.037929   -0.371132    0.016362
     25          1           0        2.962958   -0.244551   -1.476762
     26          1           0        3.910763   -1.654225    1.066359
     27          1           0        4.834417   -1.527639   -0.426437
     28          1           0        3.047568   -2.813757   -1.646989
     29          1           0        2.118666   -2.941062   -0.145711
     30          1           0        3.686684   -3.753730   -0.287838
     31          6           0        3.731708    0.956729    0.139456
     32          6           0        2.976042    2.236593   -0.219577
     33          6           0        3.661172    3.496242    0.311156
     34          1           0        3.827900    0.890259    1.232032
     35          1           0        4.752930    1.016839   -0.261091
     36          1           0        1.956441    2.173347    0.181708
     37          1           0        2.880095    2.299933   -1.311088
     38          1           0        4.672192    3.586770   -0.099018
     39          1           0        3.743291    3.459465    1.402259
     40          1           0        3.104175    4.399439    0.043108
 ---------------------------------------------------------------------

 SCF Done:  E(RHF) =  -470.732853076     A.U. after   11 cycles
 E2 =    -0.1583333282D+01 EUMP2 =    -0.47231618635734D+03

 The electronic state is 1-A.
 Alpha  occ. eigenvalues --  -11.21641 -11.21618 -11.21613 -11.21550 -11.21435
 Alpha  occ. eigenvalues --  -11.21386 -11.21374 -11.21323 -11.21130 -11.21083
 Alpha  occ. eigenvalues --  -11.21076 -11.20954  -1.08464  -1.08408  -1.03575
 Alpha  occ. eigenvalues --   -1.03491  -0.96027  -0.95943  -0.87052  -0.86959
 Alpha  occ. eigenvalues --   -0.79677  -0.79528  -0.78297  -0.78204  -0.65153
 Alpha  occ. eigenvalues --   -0.64995  -0.61051  -0.60827  -0.59417  -0.59303
 Alpha  occ. eigenvalues --   -0.57695  -0.57506  -0.55324  -0.55237  -0.52777
 Alpha  occ. eigenvalues --   -0.52642  -0.52502  -0.52269  -0.50018  -0.49870
 Alpha  occ. eigenvalues --   -0.47954  -0.47873  -0.46799  -0.46526  -0.45911
 Alpha  occ. eigenvalues --   -0.45764  -0.45728  -0.45441  -0.43798  -0.43755
 Alpha virt. eigenvalues --    0.21287   0.23118   0.23640   0.24710   0.25586
 Alpha virt. eigenvalues --    0.26700   0.26940   0.27222   0.27958   0.29261
 Alpha virt. eigenvalues --    0.30221   0.31192   0.31705   0.31850   0.31986

 Mulliken charges:
               1
     1  C   -0.298676
     2  C   -0.299097
     3  C   -0.485854
     4  H    0.149508
     5  H    0.149509
     6  H    0.152734
     7  H    0.152164
     8  H    0.155474
     9  H    0.161766
    10  H    0.163101
    11  C   -0.298349
    12  C   -0.299700
    13  C   -0.475729
    14  H    0.149766
    15  H    0.149747
    16  H    0.152027
    17  H    0.151901
    18  H    0.155204
    19  H    0.155266
    20  H    0.160312
    21  C   -0.306457
    22  C   -0.298603
    23  C   -0.482403
    24  H    0.156776
    25  H    0.149186
    26  H    0.151825
    27  H    0.151625
    28  H    0.154279
    29  H    0.162977
    30  H    0.159530
    31  C   -0.297615
    32  C   -0.299544
    33  C   -0.475671
    34  H    0.149622
    35  H    0.149741
    36  H    0.151086
    37  H    0.151814
    38  H    0.155280
    39  H    0.155327
    40  H    0.160150
 Sum of Mulliken charges =  -0.00000

 Dipole moment (field-independent basis, Debye):
    X=             -0.0407    Y=             -0.0066    Z=              0.0096  Tot=              0.0423
 Quadrupole moment (field-independent basis, Debye-Ang):
   XX=            -85.3692   YY=            -85.6891   ZZ=            -83.8000
   XY=              0.3353   XZ=             -1.3585   YZ=             -0.6169

 Normal termination of Gaussian 16 at Thu May  6 02:17:23 2021.
