 Gaussian 16, Revision A.03,
 Gaussian 16:  EM64L-G16RevA.03 25-Dec-2016

 -------------
 #p 6-31g* mp2
 -------------

 ------------------------------------------------------
 Input file generated by CHIRIPA (05-May-2021 14:57:25)
 ------------------------------------------------------
 Symbolic Z-matrix:
 Charge =  0 Multiplicity = 1

                         Standard orientation:
 ---------------------------------------------------------------------
 Center     Atomic      Atomic             Coordinates (Angstroms)
 Number     Number       Type             X           Y           Z
 ---------------------------------------------------------------------
      1          6           0        4.438576    1.966685   -0.519947
      2          6           0        3.294842    1.992618    0.284865
      3          6           0        2.642800    0.805213    0.630490
      4          6           0        3.164125   -0.395725    0.151681
      5          6           0        4.301719   -0.454305   -0.651898
      6          6           0        4.937484    0.745459   -0.984940
      7          1           0        4.938776    2.893890   -0.783550
      8          1           0        2.905141    2.939577    0.647420
      9          1           0        1.755651    0.796399    1.252027
     10          1           0        4.666559   -1.413679   -0.998181
     11          1           0        5.825543    0.722290   -1.610127
     12          7           0        2.482453   -1.659320    0.510919
     13          8           0        2.961695   -2.704348    0.076314
     14          8           0        1.481825   -1.580771    1.220292
     15          6           0       -2.848249    2.651532    0.240613
     16          6           0       -1.780402    1.748117    0.248531
     17          6           0       -2.005915    0.380639    0.064966
     18          6           0       -3.317872   -0.050746   -0.124676
     19          6           0       -4.402741    0.824571   -0.137681
     20          6           0       -4.153710    2.187693    0.047872
     21          1           0       -2.663932    3.712129    0.383982
     22          1           0       -0.765520    2.105496    0.397995
     23          1           0       -1.197703   -0.340616    0.066582
     24          1           0       -5.403417    0.438351   -0.289004
     25          1           0       -4.984952    2.887005    0.041250
     26          7           0       -3.569062   -1.496129   -0.320060
     27          8           0       -4.734191   -1.850881   -0.485169
     28          8           0       -2.596058   -2.246898   -0.304394
 ---------------------------------------------------------------------

 SCF Done:  E(RHF) =  -868.336952364     A.U. after   16 cycles
 E2 =    -0.2600386178D+01 EUMP2 =    -0.87093733854207D+03

 The electronic state is 1-A.
 Alpha  occ. eigenvalues --  -20.61181 -20.61138 -20.60223 -20.60168 -15.86197
 Alpha  occ. eigenvalues --  -15.85258 -11.31709 -11.30814 -11.28375 -11.28223
 Alpha  occ. eigenvalues --  -11.28016 -11.27472 -11.27389 -11.27357 -11.27319
 Alpha  occ. eigenvalues --  -11.27265 -11.26587 -11.26525  -1.60208  -1.59277
 Alpha  occ. eigenvalues --   -1.39765  -1.38819  -1.19883  -1.19046  -1.09240
 Alpha  occ. eigenvalues --   -1.08423  -1.05318  -1.04486  -0.96056  -0.95206
 Alpha  occ. eigenvalues --   -0.86703  -0.85881  -0.82893  -0.82041  -0.77938
 Alpha  occ. eigenvalues --   -0.77026  -0.72402  -0.71535  -0.71462  -0.70985
 Alpha  occ. eigenvalues --   -0.70610  -0.70158  -0.65538  -0.65321  -0.64705
 Alpha  occ. eigenvalues --   -0.64527  -0.62688  -0.61795  -0.55782  -0.55023
 Alpha  occ. eigenvalues --   -0.53621  -0.53412  -0.52807  -0.52590  -0.49166
 Alpha  occ. eigenvalues --   -0.49157  -0.48265  -0.48203  -0.45122  -0.44182
 Alpha  occ. eigenvalues --   -0.37844  -0.37072  -0.36926  -0.36094
 Alpha virt. eigenvalues --    0.04564   0.05508   0.10694   0.11553   0.16008
 Alpha virt. eigenvalues --    0.16911   0.19340   0.22036   0.25014   0.27268
 Alpha virt. eigenvalues --    0.28334   0.29090   0.30726   0.31209   0.32767

 Mulliken charges:
               1
     1  C   -0.170583
     2  C   -0.218278
     3  C   -0.177254
     4  C    0.160761
     5  C   -0.169706
     6  C   -0.217677
     7  H    0.226936
     8  H    0.220343
     9  H    0.270982
    10  H    0.278610
    11  H    0.225987
    12  N    0.488661
    13  O   -0.452853
    14  O   -0.461477
    15  C   -0.170700
    16  C   -0.220124
    17  C   -0.173888
    18  C    0.157224
    19  C   -0.170179
    20  C   -0.219319
    21  H    0.221777
    22  H    0.211998
    23  H    0.289916
    24  H    0.275344
    25  H    0.221886
    26  N    0.486900
    27  O   -0.463871
    28  O   -0.451414
 Sum of Mulliken charges =  -0.00000

 Dipole moment (field-independent basis, Debye):
    X=              3.5788    Y=              9.1943    Z=             -0.6556  Tot=              9.8880
 Quadrupole moment (field-independent basis, Debye-Ang):
   XX=            -88.0353   YY=           -108.4634   ZZ=           -105.5029
   XY=             -6.7894   XZ=             -8.0377   YZ=              1.8771

 Normal termination of Gaussian 16 at Fri May  7 11:08:40 2021.
