 Gaussian 16, Revision A.03,
 Gaussian 16:  EM64L-G16RevA.03 25-Dec-2016

 -------------
 #p 6-31g* mp2
 -------------

 ------------------------------------------------------
 Input file generated by CHIRIPA (05-May-2021 14:51:07)
 ------------------------------------------------------
 Symbolic Z-matrix:
 Charge =  0 Multiplicity = 1

                         Standard orientation:
 ---------------------------------------------------------------------
 Center     Atomic      Atomic             Coordinates (Angstroms)
 Number     Number       Type             X           Y           Z
 ---------------------------------------------------------------------
      1          6           0       -2.931871   -0.427197   -0.426772
      2          6           0       -3.580567    0.721105    0.346909
      3          6           0       -4.458995    1.607352   -0.536677
      4          1           0       -2.329922   -0.013896   -1.247616
      5          1           0       -3.718556   -1.036927   -0.892337
      6          1           0       -2.792946    1.327686    0.812019
      7          1           0       -4.180889    0.305030    1.166123
      8          1           0       -5.264993    1.021220   -0.989907
      9          1           0       -3.869164    2.049686   -1.346023
     10          1           0       -4.912794    2.421756    0.036623
     11          6           0       -2.050644   -1.322044    0.442949
     12          6           0       -1.401948   -2.470345   -0.330732
     13          6           0       -0.523520   -3.356593    0.552853
     14          1           0       -1.263959   -0.712314    0.908513
     15          1           0       -2.652594   -1.735345    1.263793
     16          1           0       -0.801627   -2.054271   -1.149947
     17          1           0       -2.189569   -3.076927   -0.795842
     18          1           0       -1.113351   -3.798927    1.362199
     19          1           0        0.282478   -2.770461    1.006083
     20          1           0       -0.069721   -4.170997   -0.020446
     21          6           0        3.010897    0.420230   -0.335099
     22          6           0        2.977858   -1.015210    0.190645
     23          6           0        4.023221   -1.912091   -0.473144
     24          1           0        2.850201    0.409725   -1.421843
     25          1           0        4.012947    0.840321   -0.171351
     26          1           0        1.975765   -1.431999    0.027206
     27          1           0        3.138461   -1.001271    1.276291
     28          1           0        5.031460   -1.522579   -0.298976
     29          1           0        3.862159   -1.955754   -1.555158
     30          1           0        3.982009   -2.933644   -0.082514
     31          6           0        1.971618    1.329010    0.318922
     32          6           0        2.004657    2.764450   -0.206821
     33          6           0        0.959294    3.661332    0.456967
     34          1           0        0.969568    0.908919    0.155175
     35          1           0        2.132314    1.339516    1.405666
     36          1           0        1.844054    2.750512   -1.292467
     37          1           0        3.006750    3.181240   -0.043383
     38          1           0        1.120357    3.704995    1.538981
     39          1           0       -0.048946    3.271819    0.282800
     40          1           0        1.000507    4.682885    0.066339
 ---------------------------------------------------------------------

 SCF Done:  E(RHF) =  -470.733249169     A.U. after   11 cycles
 E2 =    -0.1583825931D+01 EUMP2 =    -0.47231707510068D+03

 The electronic state is 1-A.
 Alpha  occ. eigenvalues --  -11.21663 -11.21637 -11.21628 -11.21617 -11.21470
 Alpha  occ. eigenvalues --  -11.21434 -11.21404 -11.21373 -11.21131 -11.21089
 Alpha  occ. eigenvalues --  -11.21086 -11.21042  -1.08501  -1.08446  -1.03597
 Alpha  occ. eigenvalues --   -1.03532  -0.96038  -0.95985  -0.87054  -0.87000
 Alpha  occ. eigenvalues --   -0.79681  -0.79579  -0.78352  -0.78227  -0.65301
 Alpha  occ. eigenvalues --   -0.64925  -0.61169  -0.60783  -0.59391  -0.59361
 Alpha  occ. eigenvalues --   -0.57674  -0.57579  -0.55427  -0.55178  -0.52714
 Alpha  occ. eigenvalues --   -0.52687  -0.52484  -0.52383  -0.50081  -0.49843
 Alpha  occ. eigenvalues --   -0.48064  -0.47825  -0.46770  -0.46555  -0.46090
 Alpha  occ. eigenvalues --   -0.45809  -0.45774  -0.45397  -0.43830  -0.43805
 Alpha virt. eigenvalues --    0.19187   0.22172   0.23747   0.24880   0.25739
 Alpha virt. eigenvalues --    0.26580   0.27034   0.27351   0.28305   0.29847
 Alpha virt. eigenvalues --    0.31177   0.31214   0.31720   0.31730   0.32119

 Mulliken charges:
               1
     1  C   -0.298235
     2  C   -0.300681
     3  C   -0.475669
     4  H    0.148947
     5  H    0.149795
     6  H    0.152502
     7  H    0.152294
     8  H    0.155260
     9  H    0.155005
    10  H    0.160585
    11  C   -0.302107
    12  C   -0.300682
    13  C   -0.480420
    14  H    0.152904
    15  H    0.150131
    16  H    0.151285
    17  H    0.152391
    18  H    0.155394
    19  H    0.160363
    20  H    0.160046
    21  C   -0.297549
    22  C   -0.307904
    23  C   -0.475382
    24  H    0.149462
    25  H    0.149880
    26  H    0.160400
    27  H    0.151592
    28  H    0.155232
    29  H    0.155034
    30  H    0.160865
    31  C   -0.302196
    32  C   -0.299553
    33  C   -0.476413
    34  H    0.151773
    35  H    0.149922
    36  H    0.151970
    37  H    0.152442
    38  H    0.155474
    39  H    0.155133
    40  H    0.160711
 Sum of Mulliken charges =  -0.00000

 Dipole moment (field-independent basis, Debye):
    X=              0.0125    Y=             -0.0010    Z=              0.0146  Tot=              0.0192
 Quadrupole moment (field-independent basis, Debye-Ang):
   XX=            -84.5256   YY=            -85.4685   ZZ=            -84.6170
   XY=              1.6854   XZ=              0.2434   YZ=              0.1192

 Normal termination of Gaussian 16 at Thu May  6 11:32:58 2021.
