 Gaussian 16, Revision A.03,
 Gaussian 16:  EM64L-G16RevA.03 25-Dec-2016

 -------------
 #p 6-31g* mp2
 -------------

 ------------------------------------------------------
 Input file generated by CHIRIPA (05-May-2021 14:51:13)
 ------------------------------------------------------
 Symbolic Z-matrix:
 Charge =  0 Multiplicity = 1

                         Standard orientation:
 ---------------------------------------------------------------------
 Center     Atomic      Atomic             Coordinates (Angstroms)
 Number     Number       Type             X           Y           Z
 ---------------------------------------------------------------------
      1          6           0       -1.818890   -1.285328    0.034751
      2          6           0       -1.670017   -1.980044    1.388705
      3          6           0       -0.593546   -3.065835    1.380821
      4          1           0       -2.058668   -2.035823   -0.730891
      5          1           0       -0.853984   -0.844259   -0.251273
      6          1           0       -2.635270   -2.418484    1.672737
      7          1           0       -1.430754   -1.227782    2.151247
      8          1           0        0.381313   -2.639946    1.122228
      9          1           0       -0.830046   -3.837413    0.640999
     10          1           0       -0.503928   -3.549419    2.358560
     11          6           0       -2.891236   -0.197330    0.026758
     12          6           0       -3.040109    0.497386   -1.327196
     13          6           0       -4.116580    1.583177   -1.319312
     14          1           0       -3.856142   -0.638399    0.312782
     15          1           0       -2.651458    0.553165    0.792400
     16          1           0       -3.279372   -0.254876   -2.089739
     17          1           0       -2.074857    0.935826   -1.611229
     18          1           0       -3.880080    2.354755   -0.579491
     19          1           0       -5.091439    1.157288   -1.060719
     20          1           0       -4.206199    2.066761   -2.297051
     21          6           0        2.328906    1.491403    0.111147
     22          6           0        1.181043    1.893551    1.037794
     23          6           0        1.141941    3.397192    1.312256
     24          1           0        3.280945    1.808869    0.558117
     25          1           0        2.232385    2.035989   -0.838329
     26          1           0        1.278921    1.347329    1.984724
     27          1           0        0.231640    1.574921    0.588658
     28          1           0        1.020523    3.956157    0.378759
     29          1           0        2.073754    3.727272    1.782758
     30          1           0        0.313788    3.662592    1.976775
     31          6           0        2.381220   -0.008745   -0.172656
     32          6           0        3.529083   -0.410892   -1.099303
     33          6           0        3.568185   -1.914534   -1.373764
     34          1           0        2.477741   -0.553331    0.776820
     35          1           0        1.429181   -0.326211   -0.619626
     36          1           0        4.478486   -0.092263   -0.650166
     37          1           0        3.431205    0.135329   -2.046234
     38          1           0        2.636372   -2.244613   -1.844268
     39          1           0        3.689604   -2.473499   -0.440268
     40          1           0        4.396338   -2.179934   -2.038283
 ---------------------------------------------------------------------

 SCF Done:  E(RHF) =  -470.733168857     A.U. after   11 cycles
 E2 =    -0.1584520446D+01 EUMP2 =    -0.47231768930324D+03

 The electronic state is 1-A.
 Alpha  occ. eigenvalues --  -11.21702 -11.21655 -11.21632 -11.21544 -11.21490
 Alpha  occ. eigenvalues --  -11.21430 -11.21383 -11.21306 -11.21148 -11.21097
 Alpha  occ. eigenvalues --  -11.21087 -11.20986  -1.08532  -1.08399  -1.03600
 Alpha  occ. eigenvalues --   -1.03505  -0.96047  -0.95954  -0.87062  -0.86971
 Alpha  occ. eigenvalues --   -0.79671  -0.79571  -0.78447  -0.78133  -0.65319
 Alpha  occ. eigenvalues --   -0.64892  -0.61008  -0.60893  -0.59424  -0.59318
 Alpha  occ. eigenvalues --   -0.57665  -0.57562  -0.55366  -0.55218  -0.52738
 Alpha  occ. eigenvalues --   -0.52651  -0.52476  -0.52379  -0.50039  -0.49854
 Alpha  occ. eigenvalues --   -0.48034  -0.47859  -0.46715  -0.46695  -0.46347
 Alpha  occ. eigenvalues --   -0.45808  -0.45724  -0.45055  -0.43856  -0.43760
 Alpha virt. eigenvalues --    0.19567   0.22358   0.23752   0.24685   0.24951
 Alpha virt. eigenvalues --    0.26183   0.27107   0.27848   0.28306   0.30145
 Alpha virt. eigenvalues --    0.31080   0.31438   0.31810   0.31892   0.32123

 Mulliken charges:
               1
     1  C   -0.308359
     2  C   -0.298857
     3  C   -0.479350
     4  H    0.149126
     5  H    0.158990
     6  H    0.151540
     7  H    0.152294
     8  H    0.159195
     9  H    0.154672
    10  H    0.159572
    11  C   -0.298772
    12  C   -0.300311
    13  C   -0.475645
    14  H    0.149783
    15  H    0.150506
    16  H    0.152138
    17  H    0.150853
    18  H    0.155333
    19  H    0.155401
    20  H    0.160188
    21  C   -0.297930
    22  C   -0.304669
    23  C   -0.475636
    24  H    0.150222
    25  H    0.149605
    26  H    0.152164
    27  H    0.155613
    28  H    0.155447
    29  H    0.155683
    30  H    0.160285
    31  C   -0.308012
    32  C   -0.298942
    33  C   -0.476517
    34  H    0.150644
    35  H    0.157382
    36  H    0.152166
    37  H    0.152077
    38  H    0.155990
    39  H    0.155548
    40  H    0.160586
 Sum of Mulliken charges =  -0.00000

 Dipole moment (field-independent basis, Debye):
    X=              0.0445    Y=              0.0181    Z=             -0.0077  Tot=              0.0487
 Quadrupole moment (field-independent basis, Debye-Ang):
   XX=            -84.4375   YY=            -86.1120   ZZ=            -84.1539
   XY=              1.1550   XZ=              0.6217   YZ=             -0.0449

 Normal termination of Gaussian 16 at Wed May  5 15:19:31 2021.
