 Gaussian 16, Revision A.03,
 Gaussian 16:  EM64L-G16RevA.03 25-Dec-2016

 -------------
 #p 6-31g* mp2
 -------------

 ------------------------------------------------------
 Input file generated by CHIRIPA (05-May-2021 14:53:17)
 ------------------------------------------------------
 Symbolic Z-matrix:
 Charge =  0 Multiplicity = 1

                         Standard orientation:
 ---------------------------------------------------------------------
 Center     Atomic      Atomic             Coordinates (Angstroms)
 Number     Number       Type             X           Y           Z
 ---------------------------------------------------------------------
      1          6           0        4.039392   -0.518809    0.109049
      2          6           0        3.071809   -1.688805    0.290368
      3          6           0        3.772653   -3.047125    0.250626
      4          1           0        4.567324   -0.632761   -0.847637
      5          1           0        4.805472   -0.560331    0.895682
      6          1           0        2.306978   -1.644295   -0.495550
      7          1           0        2.545980   -1.571953    1.246645
      8          1           0        4.523236   -3.116721    1.044591
      9          1           0        4.282876   -3.189473   -0.707503
     10          1           0        3.062382   -3.869356    0.382205
     11          6           0        3.353684    0.845791    0.146455
     12          6           0        4.321267    2.015788   -0.034865
     13          6           0        3.620424    3.374108    0.004878
     14          1           0        2.587604    0.887314   -0.640179
     15          1           0        2.825752    0.959744    1.103140
     16          1           0        4.847096    1.898935   -0.991142
     17          1           0        5.086098    1.971277    0.751054
     18          1           0        3.110200    3.516456    0.963006
     19          1           0        2.869840    3.443703   -0.789088
     20          1           0        4.330694    4.196338   -0.126702
     21          6           0       -0.876457   -1.573089   -0.580292
     22          6           0       -0.786265   -0.183113   -0.708173
     23          6           0       -1.894363    0.627540   -0.444531
     24          6           0       -3.082381    0.012004   -0.053354
     25          6           0       -3.203711   -1.370012    0.083019
     26          6           0       -2.082765   -2.161066   -0.185799
     27          1           0       -0.010668   -2.195211   -0.787106
     28          1           0        0.149288    0.276267   -1.014368
     29          1           0       -1.852307    1.706128   -0.535625
     30          1           0       -4.149822   -1.798981    0.390067
     31          1           0       -2.155720   -3.240275   -0.085656
     32          7           0       -4.262276    0.859832    0.228491
     33          8           0       -5.297520    0.293092    0.571584
     34          8           0       -4.129492    2.075046    0.100972
 ---------------------------------------------------------------------

 SCF Done:  E(RHF) =  -669.535077835     A.U. after   15 cycles
 E2 =    -0.2092247656D+01 EUMP2 =    -0.67162732549028D+03

 The electronic state is 1-A.
 Alpha  occ. eigenvalues --  -20.60695 -20.60690 -15.85748 -11.31092 -11.27664
 Alpha  occ. eigenvalues --  -11.27654 -11.27360 -11.26669 -11.26632 -11.22797
 Alpha  occ. eigenvalues --  -11.22423 -11.22353 -11.22325 -11.22084 -11.21699
 Alpha  occ. eigenvalues --   -1.59771  -1.39325  -1.19261  -1.09410  -1.08656
 Alpha  occ. eigenvalues --   -1.04663  -1.04451  -0.96875  -0.95499  -0.87888
 Alpha  occ. eigenvalues --   -0.86064  -0.82337  -0.80537  -0.79245  -0.77380
 Alpha  occ. eigenvalues --   -0.71967  -0.71095  -0.70385  -0.66064  -0.64911
 Alpha  occ. eigenvalues --   -0.64650  -0.62017  -0.61844  -0.60268  -0.58507
 Alpha  occ. eigenvalues --   -0.56161  -0.55155  -0.53558  -0.53309  -0.52992
 Alpha  occ. eigenvalues --   -0.52747  -0.50806  -0.48835  -0.48724  -0.48712
 Alpha  occ. eigenvalues --   -0.47564  -0.46745  -0.46661  -0.44736  -0.44713
 Alpha  occ. eigenvalues --   -0.37226  -0.36267
 Alpha virt. eigenvalues --    0.05146   0.11359   0.16624   0.19124   0.22512
 Alpha virt. eigenvalues --    0.22882   0.24713   0.26100   0.26226   0.28034
 Alpha virt. eigenvalues --    0.29232   0.30658   0.30809   0.31089   0.31938

 Mulliken charges:
               1
     1  C   -0.298378
     2  C   -0.303828
     3  C   -0.476406
     4  H    0.151731
     5  H    0.154439
     6  H    0.140644
     7  H    0.157171
     8  H    0.160437
     9  H    0.157534
    10  H    0.158443
    11  C   -0.302373
    12  C   -0.300087
    13  C   -0.476374
    14  H    0.142298
    15  H    0.153846
    16  H    0.153393
    17  H    0.155164
    18  H    0.157558
    19  H    0.153036
    20  H    0.163923
    21  C   -0.174630
    22  C   -0.223314
    23  C   -0.172887
    24  C    0.158406
    25  C   -0.171105
    26  C   -0.219224
    27  H    0.230245
    28  H    0.229990
    29  H    0.275610
    30  H    0.275125
    31  H    0.223023
    32  N    0.488064
    33  O   -0.460810
    34  O   -0.460666
 Sum of Mulliken charges =  -0.00000

 Dipole moment (field-independent basis, Debye):
    X=              4.4548    Y=             -2.9466    Z=             -0.8829  Tot=              5.4136
 Quadrupole moment (field-independent basis, Debye-Ang):
   XX=           -118.5279   YY=            -92.4834   ZZ=            -94.1953
   XY=             12.3064   XZ=              2.6445   YZ=             -0.8630

 Normal termination of Gaussian 16 at Wed May  5 22:02:40 2021.
