 Gaussian 16, Revision A.03,
 Gaussian 16:  EM64L-G16RevA.03 25-Dec-2016

 -------------
 #p 6-31g* mp2
 -------------

 ------------------------------------------------------
 Input file generated by CHIRIPA (05-May-2021 14:53:13)
 ------------------------------------------------------
 Symbolic Z-matrix:
 Charge =  0 Multiplicity = 1

                         Standard orientation:
 ---------------------------------------------------------------------
 Center     Atomic      Atomic             Coordinates (Angstroms)
 Number     Number       Type             X           Y           Z
 ---------------------------------------------------------------------
      1          6           0        3.356111    0.745529   -0.467921
      2          6           0        3.300804    2.018684    0.377065
      3          6           0        2.241047    3.006727   -0.111280
      4          1           0        3.558506    1.015474   -1.513440
      5          1           0        2.369360    0.262249   -0.455278
      6          1           0        4.287741    2.498685    0.363961
      7          1           0        3.098707    1.745662    1.420728
      8          1           0        1.246269    2.550499   -0.081732
      9          1           0        2.442059    3.307800   -1.144504
     10          1           0        2.218710    3.909591    0.506942
     11          6           0        4.410738   -0.252019    0.007880
     12          6           0        4.466045   -1.525175   -0.837106
     13          6           0        5.525801   -2.513218   -0.348760
     14          1           0        5.397488    0.231260   -0.004762
     15          1           0        4.208343   -0.521965    1.053400
     16          1           0        4.668141   -1.252153   -1.880768
     17          1           0        3.479108   -2.005175   -0.824001
     18          1           0        5.324790   -2.814291    0.684463
     19          1           0        6.520579   -2.056990   -0.378308
     20          1           0        5.548138   -3.416081   -0.966983
     21          6           0       -5.235450   -0.340077   -1.044027
     22          6           0       -4.769078   -1.434331   -0.308073
     23          6           0       -3.550677   -1.363962    0.373907
     24          6           0       -2.821090   -0.178537    0.298009
     25          6           0       -3.258981    0.928774   -0.426839
     26          6           0       -4.480244    0.835910   -1.100961
     27          1           0       -6.183044   -0.403479   -1.570753
     28          1           0       -5.353468   -2.348890   -0.262084
     29          1           0       -3.166011   -2.196025    0.951072
     30          1           0       -2.654171    1.827043   -0.453997
     31          1           0       -4.839959    1.687300   -1.671736
     32          7           0       -1.529708   -0.092133    1.015831
     33          8           0       -0.905736    0.963550    0.933190
     34          8           0       -1.165949   -1.081728    1.647510
 ---------------------------------------------------------------------

 SCF Done:  E(RHF) =  -669.536402031     A.U. after   15 cycles
 E2 =    -0.2090915366D+01 EUMP2 =    -0.67162731739780D+03

 The electronic state is 1-A.
 Alpha  occ. eigenvalues --  -20.61015 -20.61008 -15.86050 -11.31331 -11.27891
 Alpha  occ. eigenvalues --  -11.27887 -11.27623 -11.26891 -11.26881 -11.20802
 Alpha  occ. eigenvalues --  -11.20413 -11.20397 -11.20366 -11.20216 -11.19710
 Alpha  occ. eigenvalues --   -1.60075  -1.39632  -1.19497  -1.08908  -1.07386
 Alpha  occ. eigenvalues --   -1.04888  -1.02495  -0.95757  -0.94952  -0.86290
 Alpha  occ. eigenvalues --   -0.85978  -0.82592  -0.78594  -0.77649  -0.77188
 Alpha  occ. eigenvalues --   -0.72277  -0.71387  -0.70606  -0.65155  -0.64891
 Alpha  occ. eigenvalues --   -0.63996  -0.62235  -0.59866  -0.58357  -0.56570
 Alpha  occ. eigenvalues --   -0.55394  -0.54211  -0.53221  -0.52979  -0.51680
 Alpha  occ. eigenvalues --   -0.51389  -0.49062  -0.49032  -0.48833  -0.46909
 Alpha  occ. eigenvalues --   -0.45620  -0.45077  -0.44732  -0.44560  -0.42761
 Alpha  occ. eigenvalues --   -0.37474  -0.36487
 Alpha virt. eigenvalues --    0.04858   0.11168   0.16344   0.21259   0.23910
 Alpha virt. eigenvalues --    0.25333   0.27169   0.27574   0.28066   0.28559
 Alpha virt. eigenvalues --    0.29108   0.30783   0.31990   0.32624   0.32754

 Mulliken charges:
               1
     1  C   -0.299751
     2  C   -0.296404
     3  C   -0.485374
     4  H    0.143313
     5  H    0.158535
     6  H    0.145065
     7  H    0.157842
     8  H    0.177839
     9  H    0.145557
    10  H    0.154796
    11  C   -0.298048
    12  C   -0.299236
    13  C   -0.475251
    14  H    0.145801
    15  H    0.153007
    16  H    0.148651
    17  H    0.153474
    18  H    0.156059
    19  H    0.153327
    20  H    0.157222
    21  C   -0.170483
    22  C   -0.218582
    23  C   -0.170642
    24  C    0.157461
    25  C   -0.170494
    26  C   -0.218547
    27  H    0.226171
    28  H    0.223941
    29  H    0.275840
    30  H    0.276013
    31  H    0.224117
    32  N    0.493563
    33  O   -0.465766
    34  O   -0.459017
 Sum of Mulliken charges =  -0.00000

 Dipole moment (field-independent basis, Debye):
    X=             -4.9000    Y=             -0.3856    Z=             -2.4136  Tot=              5.4758
 Quadrupole moment (field-independent basis, Debye-Ang):
   XX=            -70.7442   YY=            -91.4416   ZZ=            -96.2593
   XY=              2.9974   XZ=              5.6583   YZ=             -1.4598

 Normal termination of Gaussian 16 at Thu May  6 04:10:23 2021.
