 Gaussian 16, Revision A.03,
 Gaussian 16:  EM64L-G16RevA.03 25-Dec-2016

 -------------
 #p 6-31g* mp2
 -------------

 ------------------------------------------------------
 Input file generated by CHIRIPA (05-May-2021 14:51:13)
 ------------------------------------------------------
 Symbolic Z-matrix:
 Charge =  0 Multiplicity = 1

                         Standard orientation:
 ---------------------------------------------------------------------
 Center     Atomic      Atomic             Coordinates (Angstroms)
 Number     Number       Type             X           Y           Z
 ---------------------------------------------------------------------
      1          6           0       -3.205951   -0.237065   -0.118334
      2          6           0       -4.381774   -1.103883    0.333387
      3          6           0       -4.158470   -2.591686    0.060676
      4          1           0       -3.035145   -0.392842   -1.192347
      5          1           0       -2.293999   -0.572050    0.395012
      6          1           0       -5.291495   -0.766466   -0.179617
      7          1           0       -4.549922   -0.945879    1.406410
      8          1           0       -3.266843   -2.949929    0.585333
      9          1           0       -4.012630   -2.769497   -1.009705
     10          1           0       -5.011169   -3.192859    0.391365
     11          6           0       -3.414286    1.252767    0.147608
     12          6           0       -2.238463    2.119585   -0.304113
     13          6           0       -2.461767    3.607388   -0.031401
     14          1           0       -4.326237    1.587753   -0.365738
     15          1           0       -3.585091    1.408545    1.221621
     16          1           0       -2.070315    1.961581   -1.377135
     17          1           0       -1.328742    1.782169    0.208892
     18          1           0       -2.607606    3.785200    1.038979
     19          1           0       -3.353393    3.965632   -0.556059
     20          1           0       -1.609068    4.208562   -0.362090
     21          6           0        4.071095   -0.550237   -0.065134
     22          6           0        4.772757    0.777572    0.222229
     23          6           0        6.294800    0.676722    0.117304
     24          1           0        4.438807   -1.311357    0.636600
     25          1           0        4.348258   -0.893120   -1.071616
     26          1           0        4.493261    1.118540    1.227335
     27          1           0        4.403192    1.535667   -0.480147
     28          1           0        6.591530    0.360249   -0.887882
     29          1           0        6.682111   -0.059247    0.829301
     30          1           0        6.776157    1.637128    0.326533
     31          6           0        2.549141   -0.465465    0.035859
     32          6           0        1.847479   -1.793275   -0.251503
     33          6           0        0.325436   -1.692425   -0.146578
     34          1           0        2.271978   -0.122582    1.042340
     35          1           0        2.181429    0.295654   -0.665875
     36          1           0        2.217045   -2.551369    0.450872
     37          1           0        2.126975   -2.134243   -1.256609
     38          1           0       -0.061875   -0.956456   -0.858576
     39          1           0        0.028707   -1.375951    0.858607
     40          1           0       -0.155920   -2.652830   -0.355807
 ---------------------------------------------------------------------

 SCF Done:  E(RHF) =  -470.732755136     A.U. after   11 cycles
 E2 =    -0.1583418314D+01 EUMP2 =    -0.47231617345052D+03

 The electronic state is 1-A.
 Alpha  occ. eigenvalues --  -11.21609 -11.21592 -11.21556 -11.21507 -11.21415
 Alpha  occ. eigenvalues --  -11.21356 -11.21302 -11.21177 -11.21077 -11.21058
 Alpha  occ. eigenvalues --  -11.21040 -11.20999  -1.08443  -1.08338  -1.03540
 Alpha  occ. eigenvalues --   -1.03458  -0.96010  -0.95890  -0.87041  -0.86902
 Alpha  occ. eigenvalues --   -0.79667  -0.79499  -0.78314  -0.78059  -0.65072
 Alpha  occ. eigenvalues --   -0.64977  -0.60943  -0.60853  -0.59389  -0.59240
 Alpha  occ. eigenvalues --   -0.57702  -0.57435  -0.55290  -0.55188  -0.52734
 Alpha  occ. eigenvalues --   -0.52621  -0.52523  -0.52203  -0.49949  -0.49836
 Alpha  occ. eigenvalues --   -0.48002  -0.47829  -0.46667  -0.46537  -0.46000
 Alpha  occ. eigenvalues --   -0.45749  -0.45611  -0.45281  -0.43771  -0.43699
 Alpha virt. eigenvalues --    0.21694   0.23016   0.23988   0.24233   0.25857
 Alpha virt. eigenvalues --    0.26053   0.26996   0.27379   0.27869   0.29978
 Alpha virt. eigenvalues --    0.30627   0.31070   0.31760   0.31915   0.32313

 Mulliken charges:
               1
     1  C   -0.306470
     2  C   -0.299107
     3  C   -0.476328
     4  H    0.148114
     5  H    0.162893
     6  H    0.151212
     7  H    0.151127
     8  H    0.155966
     9  H    0.154867
    10  H    0.159716
    11  C   -0.297521
    12  C   -0.300965
    13  C   -0.475531
    14  H    0.148874
    15  H    0.148897
    16  H    0.150996
    17  H    0.153291
    18  H    0.155089
    19  H    0.155112
    20  H    0.159966
    21  C   -0.298213
    22  C   -0.299643
    23  C   -0.475712
    24  H    0.149658
    25  H    0.149609
    26  H    0.151841
    27  H    0.152001
    28  H    0.155212
    29  H    0.155175
    30  H    0.160276
    31  C   -0.298474
    32  C   -0.300637
    33  C   -0.478527
    34  H    0.148939
    35  H    0.150068
    36  H    0.151628
    37  H    0.151949
    38  H    0.160145
    39  H    0.153051
    40  H    0.161454
 Sum of Mulliken charges =  -0.00000

 Dipole moment (field-independent basis, Debye):
    X=              0.0365    Y=             -0.0175    Z=             -0.0042  Tot=              0.0407
 Quadrupole moment (field-independent basis, Debye-Ang):
   XX=            -86.1416   YY=            -86.0439   ZZ=            -82.9426
   XY=             -0.1120   XZ=              0.4659   YZ=             -0.4657

 Normal termination of Gaussian 16 at Wed May  5 21:36:06 2021.
