 Gaussian 16, Revision A.03,
 Gaussian 16:  EM64L-G16RevA.03 25-Dec-2016

 -------------
 #p 6-31g* mp2
 -------------

 ------------------------------------------------------
 Input file generated by CHIRIPA (05-May-2021 14:57:25)
 ------------------------------------------------------
 Symbolic Z-matrix:
 Charge =  0 Multiplicity = 1

                         Standard orientation:
 ---------------------------------------------------------------------
 Center     Atomic      Atomic             Coordinates (Angstroms)
 Number     Number       Type             X           Y           Z
 ---------------------------------------------------------------------
      1          6           0       -1.680661    0.328604   -0.589899
      2          6           0       -2.120100   -0.990242   -0.434792
      3          6           0       -3.456248   -1.261714   -0.125667
      4          6           0       -4.329767   -0.185391    0.021932
      5          6           0       -3.922294    1.139477   -0.126323
      6          6           0       -2.581572    1.387388   -0.435442
      7          1           0       -0.640933    0.530339   -0.830032
      8          1           0       -1.422667   -1.814490   -0.554163
      9          1           0       -3.823227   -2.273131   -0.000046
     10          1           0       -4.640998    1.940243   -0.001198
     11          1           0       -2.243106    2.412627   -0.555319
     12          7           0       -5.746708   -0.460315    0.349186
     13          8           0       -6.496464    0.505559    0.474045
     14          8           0       -6.080720   -1.636468    0.474631
     15          6           0        5.723173   -1.777940    0.232501
     16          6           0        5.576044   -0.871615    1.287701
     17          6           0        4.677599    0.194840    1.187616
     18          6           0        3.938951    0.325508    0.012619
     19          6           0        4.063075   -0.560960   -1.056051
     20          6           0        4.967551   -1.619999   -0.933951
     21          1           0        6.423448   -2.603508    0.318800
     22          1           0        6.161557   -0.991806    2.194770
     23          1           0        4.543876    0.911070    1.989208
     24          1           0        3.465570   -0.415133   -1.947758
     25          1           0        5.079735   -2.322335   -1.755038
     26          7           0        2.984616    1.450590   -0.104989
     27          8           0        2.345548    1.543746   -1.150719
     28          8           0        2.893745    2.217971    0.850786
 ---------------------------------------------------------------------

 SCF Done:  E(RHF) =  -868.340087516     A.U. after   16 cycles
 E2 =    -0.2598219887D+01 EUMP2 =    -0.87093830740247D+03

 The electronic state is 1-A.
 Alpha  occ. eigenvalues --  -20.61945 -20.61885 -20.60249 -20.60240 -15.86930
 Alpha  occ. eigenvalues --  -15.85297 -11.32042 -11.30510 -11.28597 -11.28553
 Alpha  occ. eigenvalues --  -11.28253 -11.27534 -11.27504 -11.27115 -11.27046
 Alpha  occ. eigenvalues --  -11.26607 -11.26061 -11.25923  -1.60976  -1.59327
 Alpha  occ. eigenvalues --   -1.40535  -1.38885  -1.20188  -1.18659  -1.09626
 Alpha  occ. eigenvalues --   -1.08046  -1.05549  -1.04050  -0.96502  -0.94911
 Alpha  occ. eigenvalues --   -0.86957  -0.85434  -0.83341  -0.81762  -0.78424
 Alpha  occ. eigenvalues --   -0.76862  -0.73152  -0.72283  -0.71517  -0.71282
 Alpha  occ. eigenvalues --   -0.70650  -0.69660  -0.65838  -0.65540  -0.64295
 Alpha  occ. eigenvalues --   -0.64036  -0.62897  -0.61410  -0.56046  -0.54416
 Alpha  occ. eigenvalues --   -0.53892  -0.53630  -0.52381  -0.52127  -0.49931
 Alpha  occ. eigenvalues --   -0.49888  -0.48282  -0.48260  -0.45980  -0.44325
 Alpha  occ. eigenvalues --   -0.38148  -0.37143  -0.36583  -0.35674
 Alpha virt. eigenvalues --    0.04049   0.05683   0.10515   0.11994   0.15576
 Alpha virt. eigenvalues --    0.17230   0.20693   0.22312   0.26632   0.27503
 Alpha virt. eigenvalues --    0.28039   0.29185   0.30363   0.31549   0.32267

 Mulliken charges:
               1
     1  C   -0.177290
     2  C   -0.220203
     3  C   -0.171770
     4  C    0.157307
     5  C   -0.171789
     6  C   -0.220072
     7  H    0.242335
     8  H    0.218409
     9  H    0.272216
    10  H    0.274043
    11  H    0.229268
    12  N    0.488273
    13  O   -0.461651
    14  O   -0.463147
    15  C   -0.169801
    16  C   -0.218399
    17  C   -0.170282
    18  C    0.157167
    19  C   -0.172564
    20  C   -0.218531
    21  H    0.228598
    22  H    0.226441
    23  H    0.277296
    24  H    0.274093
    25  H    0.225545
    26  N    0.488013
    27  O   -0.468525
    28  O   -0.454977
 Sum of Mulliken charges =  -0.00000

 Dipole moment (field-independent basis, Debye):
    X=              8.8699    Y=             -2.9058    Z=             -0.6734  Tot=              9.3580
 Quadrupole moment (field-independent basis, Debye-Ang):
   XX=           -122.1596   YY=           -102.9305   ZZ=           -101.5585
   XY=            -21.2196   XZ=              8.6006   YZ=              2.0269

 Normal termination of Gaussian 16 at Fri May  7 00:25:47 2021.
