 Gaussian 16, Revision A.03,
 Gaussian 16:  EM64L-G16RevA.03 25-Dec-2016

 -------------
 #p 6-31g* mp2
 -------------

 ------------------------------------------------------
 Input file generated by CHIRIPA (05-May-2021 14:55:23)
 ------------------------------------------------------
 Symbolic Z-matrix:
 Charge =  0 Multiplicity = 1

                         Standard orientation:
 ---------------------------------------------------------------------
 Center     Atomic      Atomic             Coordinates (Angstroms)
 Number     Number       Type             X           Y           Z
 ---------------------------------------------------------------------
      1          6           0       -3.905403   -1.379706   -1.563589
      2          6           0       -3.472979   -0.071287   -1.803527
      3          6           0       -2.779282    0.638984   -0.819226
      4          6           0       -2.534076    0.007322    0.399038
      5          6           0       -2.951982   -1.295046    0.668261
      6          6           0       -3.643985   -1.986341   -0.330635
      7          1           0       -4.443625   -1.924091   -2.333886
      8          1           0       -3.674589    0.402354   -2.760116
      9          1           0       -2.433108    1.653015   -0.978358
     10          1           0       -2.736145   -1.740631    1.631737
     11          1           0       -3.978615   -3.002361   -0.141506
     12          7           0       -1.800587    0.749209    1.448799
     13          8           0       -1.597107    0.170287    2.513731
     14          8           0       -1.443046    1.895574    1.186791
     15          6           0        3.029315    0.764535   -0.032287
     16          6           0        2.647455    1.747430   -1.139574
     17          6           0        1.909825    2.977435   -0.609686
     18          1           0        2.120638    0.448618    0.498229
     19          1           0        3.658608    1.280897    0.705789
     20          1           0        2.020212    1.229000   -1.876060
     21          1           0        3.557127    2.060896   -1.667639
     22          1           0        2.532215    3.519767    0.109417
     23          1           0        0.986567    2.683143   -0.100188
     24          1           0        1.646355    3.666701   -1.417990
     25          6           0        3.767391   -0.470263   -0.546337
     26          6           0        4.149250   -1.453157    0.560951
     27          6           0        4.886881   -2.683163    0.031063
     28          1           0        3.138099   -0.986624   -1.284412
     29          1           0        4.676069   -0.154345   -1.076852
     30          1           0        3.239579   -1.766624    1.089016
     31          1           0        4.776495   -0.934727    1.297437
     32          1           0        5.810140   -2.388871   -0.478435
     33          1           0        4.264492   -3.225494   -0.688040
     34          1           0        5.150351   -3.372429    0.839368
 ---------------------------------------------------------------------

 SCF Done:  E(RHF) =  -669.536296031     A.U. after   15 cycles
 E2 =    -0.2091187406D+01 EUMP2 =    -0.67162748343690D+03

 The electronic state is 1-A.
 Alpha  occ. eigenvalues --  -20.61006 -20.60995 -15.86026 -11.31323 -11.27884
 Alpha  occ. eigenvalues --  -11.27878 -11.27618 -11.26887 -11.26876 -11.21186
 Alpha  occ. eigenvalues --  -11.20967 -11.20933 -11.20782 -11.20722 -11.20059
 Alpha  occ. eigenvalues --   -1.60059  -1.39615  -1.19491  -1.08900  -1.07886
 Alpha  occ. eigenvalues --   -1.04883  -1.02961  -0.95746  -0.95392  -0.86404
 Alpha  occ. eigenvalues --   -0.86284  -0.82578  -0.79034  -0.77689  -0.77624
 Alpha  occ. eigenvalues --   -0.72248  -0.71371  -0.70598  -0.65147  -0.64884
 Alpha  occ. eigenvalues --   -0.64524  -0.62229  -0.60360  -0.58792  -0.57004
 Alpha  occ. eigenvalues --   -0.55388  -0.54670  -0.53217  -0.52973  -0.52102
 Alpha  occ. eigenvalues --   -0.51798  -0.49334  -0.49008  -0.48989  -0.47342
 Alpha  occ. eigenvalues --   -0.46101  -0.45276  -0.45197  -0.44842  -0.43228
 Alpha  occ. eigenvalues --   -0.37469  -0.36483
 Alpha virt. eigenvalues --    0.04847   0.11168   0.16313   0.21253   0.23344
 Alpha virt. eigenvalues --    0.24815   0.27038   0.27264   0.27845   0.28135
 Alpha virt. eigenvalues --    0.28856   0.30781   0.31848   0.32225   0.32386

 Mulliken charges:
               1
     1  C   -0.170530
     2  C   -0.218577
     3  C   -0.170992
     4  C    0.157790
     5  C   -0.170909
     6  C   -0.218588
     7  H    0.226164
     8  H    0.224124
     9  H    0.276474
    10  H    0.275855
    11  H    0.223948
    12  N    0.488958
    13  O   -0.458319
    14  O   -0.460523
    15  C   -0.298215
    16  C   -0.298526
    17  C   -0.486841
    18  H    0.154040
    19  H    0.150835
    20  H    0.145174
    21  H    0.148410
    22  H    0.154622
    23  H    0.178537
    24  H    0.152627
    25  C   -0.297687
    26  C   -0.299492
    27  C   -0.475281
    28  H    0.145912
    29  H    0.148011
    30  H    0.153349
    31  H    0.152915
    32  H    0.154384
    33  H    0.152860
    34  H    0.159492
 Sum of Mulliken charges =  -0.00000

 Dipole moment (field-independent basis, Debye):
    X=             -2.8011    Y=             -2.6141    Z=             -3.5502  Tot=              5.2233
 Quadrupole moment (field-independent basis, Debye-Ang):
   XX=            -82.2692   YY=            -92.8256   ZZ=            -96.4473
   XY=              8.0902   XZ=              8.9573   YZ=             -3.7394

 Normal termination of Gaussian 16 at Thu May  6 07:52:40 2021.
