 Gaussian 16, Revision A.03,
 Gaussian 16:  EM64L-G16RevA.03 25-Dec-2016

 -------------
 #p 6-31g* mp2
 -------------

 ------------------------------------------------------
 Input file generated by CHIRIPA (05-May-2021 14:57:25)
 ------------------------------------------------------
 Symbolic Z-matrix:
 Charge =  0 Multiplicity = 1

                         Standard orientation:
 ---------------------------------------------------------------------
 Center     Atomic      Atomic             Coordinates (Angstroms)
 Number     Number       Type             X           Y           Z
 ---------------------------------------------------------------------
      1          6           0        4.432093    2.001810   -0.198094
      2          6           0        3.171939    1.865684    0.393515
      3          6           0        2.570325    0.608321    0.501434
      4          6           0        3.260246   -0.496560    0.004909
      5          6           0        4.516821   -0.393339   -0.589780
      6          6           0        5.099336    0.873853   -0.686992
      7          1           0        4.892023    2.982377   -0.277770
      8          1           0        2.651425    2.739920    0.774071
      9          1           0        1.595684    0.474344    0.954803
     10          1           0        5.011203   -1.283269   -0.959952
     11          1           0        6.078086    0.976573   -1.146929
     12          7           0        2.633453   -1.832876    0.113490
     13          8           0        3.261952   -2.790702   -0.331703
     14          8           0        1.525544   -1.897153    0.641734
     15          6           0       -2.205814    2.505329    0.251920
     16          6           0       -1.665733    1.367289    0.859949
     17          6           0       -2.298683    0.127078    0.734242
     18          6           0       -3.475474    0.060826   -0.010112
     19          6           0       -4.038313    1.176629   -0.627759
     20          6           0       -3.388296    2.406541   -0.488687
     21          1           0       -1.707494    3.464754    0.354764
     22          1           0       -0.747527    1.441032    1.435713
     23          1           0       -1.902404   -0.769885    1.194499
     24          1           0       -4.954937    1.071762   -1.195405
     25          1           0       -3.810017    3.288688   -0.961987
     26          7           0       -4.154584   -1.246678   -0.150268
     27          8           0       -5.190233   -1.278574   -0.811367
     28          8           0       -3.638363   -2.214845    0.403632
 ---------------------------------------------------------------------

 SCF Done:  E(RHF) =  -868.336529493     A.U. after   16 cycles
 E2 =    -0.2600170538D+01 EUMP2 =    -0.87093670003127D+03

 The electronic state is 1-A.
 Alpha  occ. eigenvalues --  -20.61195 -20.61175 -20.60445 -20.60407 -15.86247
 Alpha  occ. eigenvalues --  -15.85491 -11.31719 -11.31017 -11.28400 -11.28245
 Alpha  occ. eigenvalues --  -11.28040 -11.27677 -11.27589 -11.27548 -11.27401
 Alpha  occ. eigenvalues --  -11.27275 -11.26813 -11.26723  -1.60250  -1.59504
 Alpha  occ. eigenvalues --   -1.39807  -1.39049  -1.19897  -1.19256  -1.09263
 Alpha  occ. eigenvalues --   -1.08642  -1.05334  -1.04690  -0.96086  -0.95427
 Alpha  occ. eigenvalues --   -0.86723  -0.86096  -0.82930  -0.82262  -0.77978
 Alpha  occ. eigenvalues --   -0.77247  -0.72463  -0.71708  -0.71572  -0.71018
 Alpha  occ. eigenvalues --   -0.70830  -0.70385  -0.65559  -0.65369  -0.64919
 Alpha  occ. eigenvalues --   -0.64743  -0.62728  -0.61980  -0.55811  -0.55250
 Alpha  occ. eigenvalues --   -0.53630  -0.53467  -0.53001  -0.52775  -0.49223
 Alpha  occ. eigenvalues --   -0.49205  -0.48491  -0.48441  -0.45187  -0.44417
 Alpha  occ. eigenvalues --   -0.37860  -0.37290  -0.36931  -0.36281
 Alpha virt. eigenvalues --    0.04594   0.05291   0.10712   0.11327   0.16075
 Alpha virt. eigenvalues --    0.16613   0.18765   0.22092   0.24799   0.27039
 Alpha virt. eigenvalues --    0.28220   0.29348   0.30310   0.31052   0.32673

 Mulliken charges:
               1
     1  C   -0.170445
     2  C   -0.218610
     3  C   -0.172715
     4  C    0.160128
     5  C   -0.169360
     6  C   -0.218282
     7  H    0.226608
     8  H    0.217876
     9  H    0.270604
    10  H    0.278044
    11  H    0.225659
    12  N    0.488563
    13  O   -0.455901
    14  O   -0.462923
    15  C   -0.170501
    16  C   -0.221701
    17  C   -0.167738
    18  C    0.157441
    19  C   -0.169677
    20  C   -0.219212
    21  H    0.220536
    22  H    0.213646
    23  H    0.288499
    24  H    0.275969
    25  H    0.222343
    26  N    0.487747
    27  O   -0.462496
    28  O   -0.454102
 Sum of Mulliken charges =  -0.00000

 Dipole moment (field-independent basis, Debye):
    X=              4.7064    Y=              9.0310    Z=              0.0202  Tot=             10.1838
 Quadrupole moment (field-independent basis, Debye-Ang):
   XX=           -100.8709   YY=           -108.2952   ZZ=           -103.6687
   XY=             -4.9860   XZ=             -3.1340   YZ=             -0.3179

 Normal termination of Gaussian 16 at Thu May  6 11:24:46 2021.
