 Gaussian 16, Revision A.03,
 Gaussian 16:  EM64L-G16RevA.03 25-Dec-2016

 -------------
 #p 6-31g* mp2
 -------------

 ------------------------------------------------------
 Input file generated by CHIRIPA (05-May-2021 14:55:24)
 ------------------------------------------------------
 Symbolic Z-matrix:
 Charge =  0 Multiplicity = 1

                         Standard orientation:
 ---------------------------------------------------------------------
 Center     Atomic      Atomic             Coordinates (Angstroms)
 Number     Number       Type             X           Y           Z
 ---------------------------------------------------------------------
      1          6           0       -5.739161   -0.903097    0.121540
      2          6           0       -5.149469   -0.300648    1.237712
      3          6           0       -3.822532    0.136994    1.190220
      4          6           0       -3.111340   -0.044445    0.005072
      5          6           0       -3.670847   -0.641092   -1.123757
      6          6           0       -4.999272   -1.071100   -1.053560
      7          1           0       -6.770535   -1.240103    0.167252
      8          1           0       -5.721674   -0.168875    2.151639
      9          1           0       -3.341291    0.606557    2.039535
     10          1           0       -3.075129   -0.758752   -2.020804
     11          1           0       -5.454644   -1.538638   -1.921944
     12          7           0       -1.705784    0.414826   -0.057224
     13          8           0       -1.100597    0.243413   -1.113161
     14          8           0       -1.235910    0.937520    0.951066
     15          6           0        3.595219    0.425886   -0.224062
     16          6           0        3.461653    1.936888   -0.031660
     17          6           0        2.088107    2.466320   -0.445020
     18          1           0        3.407410    0.178846   -1.277933
     19          1           0        2.814767   -0.081465    0.359789
     20          1           0        4.242991    2.441175   -0.614605
     21          1           0        3.649992    2.180381    1.021836
     22          1           0        1.298198    1.989933    0.144642
     23          1           0        1.894566    2.252208   -1.501097
     24          1           0        2.014474    3.548533   -0.299234
     25          6           0        4.962842   -0.118330    0.184794
     26          6           0        5.096408   -1.629333   -0.007609
     27          6           0        6.469955   -2.158764    0.405751
     28          1           0        5.743295    0.389020   -0.399058
     29          1           0        5.150653    0.128709    1.238665
     30          1           0        4.908070   -1.872826   -1.061105
     31          1           0        4.315071   -2.133619    0.575336
     32          1           0        6.663496   -1.944652    1.461829
     33          1           0        7.259864   -1.682378   -0.183911
     34          1           0        6.543588   -3.240977    0.259965
 ---------------------------------------------------------------------

 SCF Done:  E(RHF) =  -669.536695218     A.U. after   15 cycles
 E2 =    -0.2091506137D+01 EUMP2 =    -0.67162820135480D+03

 The electronic state is 1-A.
 Alpha  occ. eigenvalues --  -20.61070 -20.61053 -15.86062 -11.31357 -11.27910
 Alpha  occ. eigenvalues --  -11.27906 -11.27641 -11.26908 -11.26898 -11.20747
 Alpha  occ. eigenvalues --  -11.20392 -11.20331 -11.20075 -11.19959 -11.18926
 Alpha  occ. eigenvalues --   -1.60098  -1.39656  -1.19516  -1.08927  -1.07218
 Alpha  occ. eigenvalues --   -1.04906  -1.02251  -0.95774  -0.94672  -0.86308
 Alpha  occ. eigenvalues --   -0.85682  -0.82608  -0.78373  -0.77667  -0.76950
 Alpha  occ. eigenvalues --   -0.72270  -0.71402  -0.70624  -0.65171  -0.64909
 Alpha  occ. eigenvalues --   -0.63862  -0.62253  -0.59654  -0.58146  -0.56281
 Alpha  occ. eigenvalues --   -0.55413  -0.53955  -0.53240  -0.52996  -0.51401
 Alpha  occ. eigenvalues --   -0.51110  -0.49200  -0.49026  -0.48436  -0.46594
 Alpha  occ. eigenvalues --   -0.45402  -0.45072  -0.44487  -0.44349  -0.42523
 Alpha  occ. eigenvalues --   -0.37493  -0.36504
 Alpha virt. eigenvalues --    0.04866   0.11152   0.16374   0.21291   0.23982
 Alpha virt. eigenvalues --    0.25675   0.27212   0.27842   0.28173   0.28664
 Alpha virt. eigenvalues --    0.29444   0.30865   0.32380   0.32720   0.32822

 Mulliken charges:
               1
     1  C   -0.170447
     2  C   -0.218569
     3  C   -0.170669
     4  C    0.158965
     5  C   -0.170703
     6  C   -0.218603
     7  H    0.226213
     8  H    0.224025
     9  H    0.275898
    10  H    0.276054
    11  H    0.224059
    12  N    0.488711
    13  O   -0.457390
    14  O   -0.459736
    15  C   -0.297079
    16  C   -0.298988
    17  C   -0.485476
    18  H    0.149361
    19  H    0.155558
    20  H    0.144193
    21  H    0.146980
    22  H    0.185500
    23  H    0.153640
    24  H    0.148633
    25  C   -0.297514
    26  C   -0.298559
    27  C   -0.474937
    28  H    0.146357
    29  H    0.147201
    30  H    0.150938
    31  H    0.151432
    32  H    0.153853
    33  H    0.153777
    34  H    0.157323
 Sum of Mulliken charges =  -0.00000

 Dipole moment (field-independent basis, Debye):
    X=             -5.4484    Y=             -1.7042    Z=              0.2268  Tot=              5.7133
 Quadrupole moment (field-independent basis, Debye-Ang):
   XX=            -66.8825   YY=            -95.9154   ZZ=            -89.5230
   XY=              5.6454   XZ=             -1.6255   YZ=              1.8910

 Normal termination of Gaussian 16 at Thu May  6 09:30:57 2021.
