 Gaussian 16, Revision A.03,
 Gaussian 16:  EM64L-G16RevA.03 25-Dec-2016

 -------------
 #p 6-31g* mp2
 -------------

 ------------------------------------------------------
 Input file generated by CHIRIPA (05-May-2021 14:57:25)
 ------------------------------------------------------
 Symbolic Z-matrix:
 Charge =  0 Multiplicity = 1

                         Standard orientation:
 ---------------------------------------------------------------------
 Center     Atomic      Atomic             Coordinates (Angstroms)
 Number     Number       Type             X           Y           Z
 ---------------------------------------------------------------------
      1          6           0        3.715301    2.613111    0.162668
      2          6           0        4.884297    1.971652   -0.259824
      3          6           0        4.942039    0.576701   -0.332789
      4          6           0        3.807116   -0.148979    0.025859
      5          6           0        2.627795    0.460967    0.450662
      6          6           0        2.592760    1.857054    0.515939
      7          1           0        3.679265    3.697184    0.216363
      8          1           0        5.757604    2.556264   -0.534796
      9          1           0        5.834136    0.054379   -0.656459
     10          1           0        1.773327   -0.148699    0.718263
     11          1           0        1.683550    2.352523    0.844409
     12          7           0        3.856226   -1.626353   -0.047317
     13          8           0        2.842775   -2.242970    0.274144
     14          8           0        4.907240   -2.139727   -0.424747
     15          6           0       -6.181049    0.732947   -0.122662
     16          6           0       -5.120979    1.639217   -0.229647
     17          6           0       -3.797177    1.191989   -0.183985
     18          6           0       -3.568737   -0.174505   -0.029727
     19          6           0       -4.603497   -1.102196    0.079592
     20          6           0       -5.919388   -0.632460    0.031344
     21          1           0       -7.206338    1.089107   -0.159138
     22          1           0       -5.321205    2.700174   -0.349327
     23          1           0       -2.957609    1.871751   -0.264403
     24          1           0       -4.372461   -2.153860    0.198098
     25          1           0       -6.740672   -1.338569    0.114682
     26          7           0       -2.171475   -0.659880    0.019983
     27          8           0       -1.996763   -1.868789    0.156558
     28          8           0       -1.277470    0.177783   -0.078572
 ---------------------------------------------------------------------

 SCF Done:  E(RHF) =  -868.338820351     A.U. after   16 cycles
 E2 =    -0.2598982078D+01 EUMP2 =    -0.87093780242863D+03

 The electronic state is 1-A.
 Alpha  occ. eigenvalues --  -20.61203 -20.61141 -20.59632 -20.59575 -15.86203
 Alpha  occ. eigenvalues --  -15.84655 -11.31486 -11.30006 -11.28077 -11.28009
 Alpha  occ. eigenvalues --  -11.27764 -11.27054 -11.27011 -11.26703 -11.26466
 Alpha  occ. eigenvalues --  -11.26412 -11.25741 -11.25574  -1.60223  -1.58687
 Alpha  occ. eigenvalues --   -1.39784  -1.38234  -1.19646  -1.18220  -1.09055
 Alpha  occ. eigenvalues --   -1.07645  -1.05038  -1.03602  -0.95906  -0.94459
 Alpha  occ. eigenvalues --   -0.86440  -0.85020  -0.82745  -0.81274  -0.77803
 Alpha  occ. eigenvalues --   -0.76294  -0.72428  -0.71534  -0.70874  -0.70755
 Alpha  occ. eigenvalues --   -0.70015  -0.69346  -0.65303  -0.65040  -0.63873
 Alpha  occ. eigenvalues --   -0.63624  -0.62389  -0.60913  -0.55539  -0.54187
 Alpha  occ. eigenvalues --   -0.53369  -0.53130  -0.51974  -0.51696  -0.49193
 Alpha  occ. eigenvalues --   -0.49138  -0.47657  -0.47611  -0.45207  -0.43641
 Alpha  occ. eigenvalues --   -0.37618  -0.36637  -0.36270  -0.35206
 Alpha virt. eigenvalues --    0.04730   0.06211   0.11019   0.12429   0.16237
 Alpha virt. eigenvalues --    0.17664   0.21142   0.22499   0.27062   0.27885
 Alpha virt. eigenvalues --    0.28518   0.29453   0.30759   0.31959   0.32326

 Mulliken charges:
               1
     1  C   -0.171836
     2  C   -0.219975
     3  C   -0.171948
     4  C    0.155933
     5  C   -0.170911
     6  C   -0.220815
     7  H    0.220083
     8  H    0.218514
     9  H    0.272071
    10  H    0.294935
    11  H    0.223930
    12  N    0.487189
    13  O   -0.453181
    14  O   -0.466982
    15  C   -0.170407
    16  C   -0.218354
    17  C   -0.170804
    18  C    0.158483
    19  C   -0.170232
    20  C   -0.218458
    21  H    0.226571
    22  H    0.223232
    23  H    0.271908
    24  H    0.278064
    25  H    0.225087
    26  N    0.489696
    27  O   -0.449979
    28  O   -0.471814
 Sum of Mulliken charges =  -0.00000

 Dipole moment (field-independent basis, Debye):
    X=             -5.6423    Y=              6.6536    Z=              0.1363  Tot=              8.7249
 Quadrupole moment (field-independent basis, Debye-Ang):
   XX=            -67.8041   YY=           -103.4852   ZZ=           -105.9560
   XY=             16.5754   XZ=             -0.0380   YZ=             -0.6636

 Normal termination of Gaussian 16 at Thu May  6 21:17:07 2021.
