 Gaussian 16, Revision A.03,
 Gaussian 16:  EM64L-G16RevA.03 25-Dec-2016

 -------------
 #p 6-31g* mp2
 -------------

 ------------------------------------------------------
 Input file generated by CHIRIPA (05-May-2021 14:53:12)
 ------------------------------------------------------
 Symbolic Z-matrix:
 Charge =  0 Multiplicity = 1

                         Standard orientation:
 ---------------------------------------------------------------------
 Center     Atomic      Atomic             Coordinates (Angstroms)
 Number     Number       Type             X           Y           Z
 ---------------------------------------------------------------------
      1          6           0        3.218102    0.587517   -0.167762
      2          6           0        3.595418    1.988523   -0.650254
      3          6           0        2.423695    2.969106   -0.592651
      4          1           0        2.389039    0.206751   -0.779822
      5          1           0        2.842274    0.651060    0.862826
      6          1           0        3.971721    1.922173   -1.679142
      7          1           0        4.423806    2.365921   -0.037099
      8          1           0        2.051548    3.064880    0.432500
      9          1           0        1.596894    2.618611   -1.218873
     10          1           0        2.715588    3.964406   -0.941987
     11          6           0        4.379026   -0.404106   -0.219408
     12          6           0        4.001710   -1.805112    0.263084
     13          6           0        5.173432   -2.785695    0.205481
     14          1           0        4.754854   -0.467649   -1.249996
     15          1           0        5.208089   -0.023340    0.392651
     16          1           0        3.173321   -2.182510   -0.350071
     17          1           0        3.625407   -1.738762    1.291972
     18          1           0        6.000234   -2.435199    0.831703
     19          1           0        5.545580   -2.881469   -0.819670
     20          1           0        4.881540   -3.780995    0.554816
     21          6           0       -1.034541    0.740050    1.554894
     22          6           0       -0.864851    0.534599    0.181754
     23          6           0       -1.928949    0.085046   -0.605739
     24          6           0       -3.154512   -0.150116    0.015538
     25          6           0       -3.354950    0.045166    1.381181
     26          6           0       -2.276859    0.495110    2.149178
     27          1           0       -0.202490    1.089426    2.159065
     28          1           0        0.098822    0.724002   -0.282473
     29          1           0       -1.825261   -0.082313   -1.670942
     30          1           0       -4.327465   -0.152292    1.815509
     31          1           0       -2.411545    0.653795    3.215350
     32          7           0       -4.288432   -0.626245   -0.807825
     33          8           0       -5.358124   -0.826121   -0.236473
     34          8           0       -4.086034   -0.790544   -2.008941
 ---------------------------------------------------------------------

 SCF Done:  E(RHF) =  -669.535199208     A.U. after   15 cycles
 E2 =    -0.2092143604D+01 EUMP2 =    -0.67162734281211D+03

 The electronic state is 1-A.
 Alpha  occ. eigenvalues --  -20.60692 -20.60687 -15.85743 -11.31085 -11.27652
 Alpha  occ. eigenvalues --  -11.27629 -11.27375 -11.26670 -11.26562 -11.22632
 Alpha  occ. eigenvalues --  -11.22569 -11.22306 -11.22217 -11.22208 -11.21612
 Alpha  occ. eigenvalues --   -1.59768  -1.39322  -1.19247  -1.09396  -1.08645
 Alpha  occ. eigenvalues --   -1.04650  -1.04406  -0.96879  -0.95488  -0.87890
 Alpha  occ. eigenvalues --   -0.86050  -0.82326  -0.80492  -0.79231  -0.77364
 Alpha  occ. eigenvalues --   -0.71962  -0.71090  -0.70362  -0.66040  -0.64896
 Alpha  occ. eigenvalues --   -0.64654  -0.62057  -0.61756  -0.60233  -0.58489
 Alpha  occ. eigenvalues --   -0.56183  -0.55150  -0.53524  -0.53334  -0.52956
 Alpha  occ. eigenvalues --   -0.52772  -0.50824  -0.48830  -0.48720  -0.48663
 Alpha  occ. eigenvalues --   -0.47515  -0.46696  -0.46639  -0.44733  -0.44682
 Alpha  occ. eigenvalues --   -0.37224  -0.36244
 Alpha virt. eigenvalues --    0.05152   0.11354   0.16628   0.19288   0.22502
 Alpha virt. eigenvalues --    0.23833   0.24054   0.25837   0.27059   0.28114
 Alpha virt. eigenvalues --    0.29414   0.29976   0.30852   0.31510   0.31801

 Mulliken charges:
               1
     1  C   -0.303396
     2  C   -0.300142
     3  C   -0.479332
     4  H    0.145816
     5  H    0.144765
     6  H    0.156532
     7  H    0.155867
     8  H    0.151441
     9  H    0.152590
    10  H    0.167725
    11  C   -0.297939
    12  C   -0.300470
    13  C   -0.476383
    14  H    0.152954
    15  H    0.152304
    16  H    0.153235
    17  H    0.151023
    18  H    0.155961
    19  H    0.156911
    20  H    0.162817
    21  C   -0.174884
    22  C   -0.225611
    23  C   -0.174305
    24  C    0.159123
    25  C   -0.171505
    26  C   -0.218393
    27  H    0.225260
    28  H    0.238795
    29  H    0.274886
    30  H    0.275114
    31  H    0.222783
    32  N    0.488060
    33  O   -0.460804
    34  O   -0.460798
 Sum of Mulliken charges =  -0.00000

 Dipole moment (field-independent basis, Debye):
    X=              4.3003    Y=              1.6862    Z=              2.8562  Tot=              5.4308
 Quadrupole moment (field-independent basis, Debye-Ang):
   XX=           -118.2597   YY=            -96.2743   ZZ=            -90.6634
   XY=             -5.1323   XZ=            -11.8448   YZ=             -0.3174

 Normal termination of Gaussian 16 at Thu May  6 08:52:00 2021.
