 Gaussian 16, Revision A.03,
 Gaussian 16:  EM64L-G16RevA.03 25-Dec-2016

 -------------
 #p 6-31g* mp2
 -------------

 ------------------------------------------------------
 Input file generated by CHIRIPA (05-May-2021 14:57:26)
 ------------------------------------------------------
 Symbolic Z-matrix:
 Charge =  0 Multiplicity = 1

                         Standard orientation:
 ---------------------------------------------------------------------
 Center     Atomic      Atomic             Coordinates (Angstroms)
 Number     Number       Type             X           Y           Z
 ---------------------------------------------------------------------
      1          6           0       -1.450951   -2.075692    0.696972
      2          6           0       -1.619116   -1.672468   -0.631806
      3          6           0       -2.508040   -0.642706   -0.954223
      4          6           0       -3.215818   -0.035315    0.081836
      5          6           0       -3.070183   -0.414561    1.415347
      6          6           0       -2.175743   -1.446561    1.714514
      7          1           0       -0.758271   -2.876505    0.938403
      8          1           0       -1.057561   -2.159262   -1.424101
      9          1           0       -2.657564   -0.310693   -1.974432
     10          1           0       -3.643955    0.089634    2.183456
     11          1           0       -2.047170   -1.757630    2.747350
     12          7           0       -4.159802    1.056033   -0.247185
     13          8           0       -4.771546    1.575160    0.683896
     14          8           0       -4.270077    1.371639   -1.429923
     15          6           0        3.404161    2.648552    0.435209
     16          6           0        2.566962    2.290333   -0.626535
     17          6           0        2.369049    0.945178   -0.952018
     18          6           0        3.026989   -0.020067   -0.191291
     19          6           0        3.867312    0.305114    0.872384
     20          6           0        4.050524    1.656548    1.179966
     21          1           0        3.552194    3.695939    0.681099
     22          1           0        2.063698    3.058598   -1.206653
     23          1           0        1.726390    0.639867   -1.768836
     24          1           0        4.355394   -0.483255    1.432444
     25          1           0        4.701277    1.931812    2.005069
     26          7           0        2.825248   -1.447446   -0.526390
     27          8           0        3.416373   -2.278813    0.159203
     28          8           0        2.079820   -1.707831   -1.468288
 ---------------------------------------------------------------------

 SCF Done:  E(RHF) =  -868.340283887     A.U. after   16 cycles
 E2 =    -0.2598877694D+01 EUMP2 =    -0.87093916158017D+03

 The electronic state is 1-A.
 Alpha  occ. eigenvalues --  -20.61618 -20.61586 -20.60585 -20.60579 -15.86633
 Alpha  occ. eigenvalues --  -15.85628 -11.31692 -11.30825 -11.28233 -11.28218
 Alpha  occ. eigenvalues --  -11.27896 -11.27372 -11.27303 -11.27176 -11.27138
 Alpha  occ. eigenvalues --  -11.26928 -11.26346 -11.26136  -1.60674  -1.59665
 Alpha  occ. eigenvalues --   -1.40235  -1.39223  -1.19834  -1.18948  -1.09283
 Alpha  occ. eigenvalues --   -1.08350  -1.05190  -1.04310  -0.96171  -0.95226
 Alpha  occ. eigenvalues --   -0.86602  -0.85692  -0.83017  -0.82059  -0.78101
 Alpha  occ. eigenvalues --   -0.77149  -0.72869  -0.71986  -0.71844  -0.70990
 Alpha  occ. eigenvalues --   -0.70937  -0.69997  -0.65491  -0.65185  -0.64575
 Alpha  occ. eigenvalues --   -0.64246  -0.62544  -0.61643  -0.55695  -0.54735
 Alpha  occ. eigenvalues --   -0.53535  -0.53277  -0.52672  -0.52355  -0.49631
 Alpha  occ. eigenvalues --   -0.49592  -0.48617  -0.48585  -0.45704  -0.44667
 Alpha  occ. eigenvalues --   -0.37791  -0.36896  -0.36778  -0.35921
 Alpha virt. eigenvalues --    0.04385   0.05348   0.10875   0.11739   0.15943
 Alpha virt. eigenvalues --    0.16909   0.21017   0.22086   0.26940   0.27558
 Alpha virt. eigenvalues --    0.28301   0.28886   0.30666   0.31576   0.32247

 Mulliken charges:
               1
     1  C   -0.175557
     2  C   -0.220041
     3  C   -0.176702
     4  C    0.157949
     5  C   -0.173235
     6  C   -0.219105
     7  H    0.233732
     8  H    0.240486
     9  H    0.273021
    10  H    0.272995
    11  H    0.221954
    12  N    0.487901
    13  O   -0.462185
    14  O   -0.462628
    15  C   -0.169688
    16  C   -0.218238
    17  C   -0.168742
    18  C    0.157652
    19  C   -0.171409
    20  C   -0.218628
    21  H    0.228401
    22  H    0.227465
    23  H    0.274033
    24  H    0.274986
    25  H    0.224792
    26  N    0.488677
    27  O   -0.459852
    28  O   -0.468035
 Sum of Mulliken charges =  -0.00000

 Dipole moment (field-independent basis, Debye):
    X=              4.3251    Y=              1.1736    Z=              2.3276  Tot=              5.0499
 Quadrupole moment (field-independent basis, Debye-Ang):
   XX=           -121.6077   YY=           -104.9867   ZZ=            -98.0709
   XY=             27.2411   XZ=              1.6293   YZ=             -1.9055

 Normal termination of Gaussian 16 at Thu May  6 21:24:08 2021.
