 Gaussian 16, Revision A.03,
 Gaussian 16:  EM64L-G16RevA.03 25-Dec-2016

 -------------
 #p 6-31g* mp2
 -------------

 ------------------------------------------------------
 Input file generated by CHIRIPA (05-May-2021 14:57:26)
 ------------------------------------------------------
 Symbolic Z-matrix:
 Charge =  0 Multiplicity = 1

                         Standard orientation:
 ---------------------------------------------------------------------
 Center     Atomic      Atomic             Coordinates (Angstroms)
 Number     Number       Type             X           Y           Z
 ---------------------------------------------------------------------
      1          6           0       -5.124259   -0.127373   -1.557293
      2          6           0       -5.310136    0.377345   -0.266081
      3          6           0       -4.267467    0.347622    0.664782
      4          6           0       -3.046596   -0.196445    0.268859
      5          6           0       -2.830391   -0.707111   -1.010111
      6          6           0       -3.887161   -0.667039   -1.924540
      7          1           0       -5.939706   -0.100264   -2.274027
      8          1           0       -6.269802    0.797047    0.021905
      9          1           0       -4.384004    0.731472    1.671011
     10          1           0       -1.862365   -1.119270   -1.267927
     11          1           0       -3.739938   -1.059732   -2.926620
     12          7           0       -1.935305   -0.233389    1.245623
     13          8           0       -0.869326   -0.717965    0.872109
     14          8           0       -2.151296    0.222929    2.366229
     15          6           0        2.449882    2.588266   -0.195951
     16          6           0        2.033762    1.754714    0.847389
     17          6           0        2.459608    0.424400    0.906285
     18          6           0        3.305145   -0.041465   -0.099362
     19          6           0        3.737113    0.764292   -1.151716
     20          6           0        3.298733    2.091271   -1.190420
     21          1           0        2.114207    3.620390   -0.233861
     22          1           0        1.374552    2.137977    1.621078
     23          1           0        2.152796   -0.242730    1.702666
     24          1           0        4.394437    0.353678   -1.908512
     25          1           0        3.623505    2.736330   -2.001879
     26          7           0        3.762603   -1.448044   -0.047699
     27          8           0        4.507361   -1.834362   -0.945881
     28          8           0        3.367739   -2.137568    0.889998
 ---------------------------------------------------------------------

 SCF Done:  E(RHF) =  -868.339199376     A.U. after   16 cycles
 E2 =    -0.2599321708D+01 EUMP2 =    -0.87093852108328D+03

 The electronic state is 1-A.
 Alpha  occ. eigenvalues --  -20.61330 -20.61281 -20.59864 -20.59822 -15.86325
 Alpha  occ. eigenvalues --  -15.84894 -11.31529 -11.30125 -11.28093 -11.28053
 Alpha  occ. eigenvalues --  -11.27798 -11.27068 -11.27039 -11.26827 -11.26561
 Alpha  occ. eigenvalues --  -11.26548 -11.25839 -11.25612  -1.60377  -1.58925
 Alpha  occ. eigenvalues --   -1.39930  -1.38478  -1.19689  -1.18332  -1.09119
 Alpha  occ. eigenvalues --   -1.07776  -1.05064  -1.03696  -0.95979  -0.94613
 Alpha  occ. eigenvalues --   -0.86470  -0.85123  -0.82812  -0.81434  -0.77877
 Alpha  occ. eigenvalues --   -0.76472  -0.72562  -0.71685  -0.71121  -0.70793
 Alpha  occ. eigenvalues --   -0.70245  -0.69471  -0.65343  -0.65064  -0.63989
 Alpha  occ. eigenvalues --   -0.63717  -0.62408  -0.61025  -0.55576  -0.54290
 Alpha  occ. eigenvalues --   -0.53409  -0.53151  -0.52074  -0.51792  -0.49322
 Alpha  occ. eigenvalues --   -0.49311  -0.47887  -0.47858  -0.45364  -0.43910
 Alpha  occ. eigenvalues --   -0.37668  -0.36661  -0.36380  -0.35249
 Alpha virt. eigenvalues --    0.04615   0.06062   0.10996   0.12353   0.16154
 Alpha virt. eigenvalues --    0.17528   0.21163   0.22408   0.27089   0.28029
 Alpha virt. eigenvalues --    0.28394   0.29319   0.30746   0.31882   0.32282

 Mulliken charges:
               1
     1  C   -0.170294
     2  C   -0.218780
     3  C   -0.171210
     4  C    0.157272
     5  C   -0.170514
     6  C   -0.218866
     7  H    0.226768
     8  H    0.224112
     9  H    0.275157
    10  H    0.278450
    11  H    0.225329
    12  N    0.488637
    13  O   -0.460732
    14  O   -0.463499
    15  C   -0.172818
    16  C   -0.221496
    17  C   -0.155284
    18  C    0.152906
    19  C   -0.173229
    20  C   -0.220739
    21  H    0.220752
    22  H    0.227930
    23  H    0.286799
    24  H    0.271213
    25  H    0.217868
    26  N    0.487969
    27  O   -0.466906
    28  O   -0.456792
 Sum of Mulliken charges =  -0.00000

 Dipole moment (field-independent basis, Debye):
    X=             -5.8791    Y=              4.9299    Z=             -3.4466  Tot=              8.4111
 Quadrupole moment (field-independent basis, Debye-Ang):
   XX=            -90.3722   YY=           -106.0784   ZZ=           -101.3129
   XY=             15.5872   XZ=              5.2857   YZ=              1.4364

 Normal termination of Gaussian 16 at Fri May  7 03:32:56 2021.
