 Gaussian 16, Revision A.03,
 Gaussian 16:  EM64L-G16RevA.03 25-Dec-2016

 -------------
 #p 6-31g* mp2
 -------------

 ------------------------------------------------------
 Input file generated by CHIRIPA (05-May-2021 14:51:10)
 ------------------------------------------------------
 Symbolic Z-matrix:
 Charge =  0 Multiplicity = 1

                         Standard orientation:
 ---------------------------------------------------------------------
 Center     Atomic      Atomic             Coordinates (Angstroms)
 Number     Number       Type             X           Y           Z
 ---------------------------------------------------------------------
      1          6           0       -2.899915   -0.319657   -0.331151
      2          6           0       -2.938889   -1.507865    0.630426
      3          6           0       -2.830410   -2.853329   -0.087733
      4          1           0       -3.718854   -0.416534   -1.057029
      5          1           0       -1.965286   -0.354170   -0.907928
      6          1           0       -3.872536   -1.470348    1.206197
      7          1           0       -2.119878   -1.408048    1.354217
      8          1           0       -1.892122   -2.916241   -0.648320
      9          1           0       -3.654738   -2.978895   -0.797182
     10          1           0       -2.860352   -3.688922    0.618488
     11          6           0       -3.007346    1.032371    0.371848
     12          6           0       -2.968373    2.220578   -0.589728
     13          6           0       -3.076851    3.566043    0.128430
     14          1           0       -3.941976    1.066883    0.948625
     15          1           0       -2.188408    1.129248    1.097726
     16          1           0       -3.787383    2.120762   -1.313520
     17          1           0       -2.034726    2.183062   -1.165499
     18          1           0       -2.252524    3.691609    0.837879
     19          1           0       -4.015139    3.628955    0.689018
     20          1           0       -3.046909    4.401636   -0.577791
     21          6           0        2.273208   -0.693755   -0.101713
     22          6           0        2.337330   -2.218543   -0.007402
     23          6           0        0.968274   -2.879107   -0.172131
     24          1           0        1.586300   -0.313768    0.666864
     25          1           0        1.843147   -0.411163   -1.072581
     26          1           0        2.768423   -2.498155    0.962439
     27          1           0        3.024313   -2.594931   -0.776167
     28          1           0        0.534554   -2.629087   -1.145772
     29          1           0        0.277211   -2.531762    0.602713
     30          1           0        1.037304   -3.969097   -0.101299
     31          6           0        3.634052   -0.018959    0.061015
     32          6           0        3.569932    1.505830   -0.033296
     33          6           0        4.938988    2.166393    0.131434
     34          1           0        4.064115   -0.301551    1.031883
     35          1           0        4.320962   -0.398946   -0.707561
     36          1           0        2.882948    1.882218    0.735470
     37          1           0        3.138837    1.785441   -1.003137
     38          1           0        5.630051    1.819048   -0.643410
     39          1           0        5.372708    1.916374    1.105076
     40          1           0        4.869958    3.256383    0.060601
 ---------------------------------------------------------------------

 SCF Done:  E(RHF) =  -470.732683147     A.U. after   11 cycles
 E2 =    -0.1583523234D+01 EUMP2 =    -0.47231620638155D+03

 The electronic state is 1-A.
 Alpha  occ. eigenvalues --  -11.21656 -11.21651 -11.21568 -11.21534 -11.21476
 Alpha  occ. eigenvalues --  -11.21412 -11.21357 -11.21292 -11.21134 -11.21107
 Alpha  occ. eigenvalues --  -11.21047 -11.20862  -1.08496  -1.08372  -1.03609
 Alpha  occ. eigenvalues --   -1.03447  -0.96083  -0.95871  -0.87114  -0.86878
 Alpha  occ. eigenvalues --   -0.79697  -0.79499  -0.78314  -0.78186  -0.65136
 Alpha  occ. eigenvalues --   -0.65002  -0.61042  -0.60854  -0.59408  -0.59274
 Alpha  occ. eigenvalues --   -0.57681  -0.57502  -0.55367  -0.55197  -0.52755
 Alpha  occ. eigenvalues --   -0.52588  -0.52537  -0.52224  -0.49992  -0.49829
 Alpha  occ. eigenvalues --   -0.48081  -0.47711  -0.46739  -0.46510  -0.45918
 Alpha  occ. eigenvalues --   -0.45805  -0.45665  -0.45550  -0.43842  -0.43718
 Alpha virt. eigenvalues --    0.20739   0.23129   0.23699   0.24893   0.25461
 Alpha virt. eigenvalues --    0.26244   0.27167   0.27728   0.28461   0.29349
 Alpha virt. eigenvalues --    0.29902   0.31105   0.31779   0.31895   0.32291

 Mulliken charges:
               1
     1  C   -0.298972
     2  C   -0.300617
     3  C   -0.482154
     4  H    0.149476
     5  H    0.150389
     6  H    0.151743
     7  H    0.150964
     8  H    0.165824
     9  H    0.153790
    10  H    0.159026
    11  C   -0.298036
    12  C   -0.299660
    13  C   -0.475636
    14  H    0.149362
    15  H    0.149143
    16  H    0.151797
    17  H    0.152136
    18  H    0.155074
    19  H    0.155073
    20  H    0.160129
    21  C   -0.298422
    22  C   -0.300456
    23  C   -0.480234
    24  H    0.149007
    25  H    0.149214
    26  H    0.152177
    27  H    0.152186
    28  H    0.154720
    29  H    0.160725
    30  H    0.161482
    31  C   -0.298278
    32  C   -0.299667
    33  C   -0.475754
    34  H    0.149764
    35  H    0.149950
    36  H    0.151769
    37  H    0.151925
    38  H    0.155304
    39  H    0.155288
    40  H    0.160446
 Sum of Mulliken charges =  -0.00000

 Dipole moment (field-independent basis, Debye):
    X=              0.0569    Y=             -0.0242    Z=             -0.0129  Tot=              0.0632
 Quadrupole moment (field-independent basis, Debye-Ang):
   XX=            -84.7093   YY=            -86.2254   ZZ=            -83.9094
   XY=             -0.5532   XZ=             -0.0954   YZ=             -0.3756

 Normal termination of Gaussian 16 at Thu May  6 06:58:06 2021.
