 Gaussian 16, Revision A.03,
 Gaussian 16:  EM64L-G16RevA.03 25-Dec-2016

 -------------
 #p 6-31g* mp2
 -------------

 ------------------------------------------------------
 Input file generated by CHIRIPA (05-May-2021 14:53:14)
 ------------------------------------------------------
 Symbolic Z-matrix:
 Charge =  0 Multiplicity = 1

                         Standard orientation:
 ---------------------------------------------------------------------
 Center     Atomic      Atomic             Coordinates (Angstroms)
 Number     Number       Type             X           Y           Z
 ---------------------------------------------------------------------
      1          6           0        4.322795   -0.228414   -0.236565
      2          6           0        4.502799   -1.613288    0.386097
      3          6           0        5.507128   -2.478178   -0.376190
      4          1           0        3.994423   -0.341859   -1.278796
      5          1           0        5.296049    0.280616   -0.269134
      6          1           0        3.529254   -2.119015    0.418750
      7          1           0        4.830596   -1.496531    1.427026
      8          1           0        6.490872   -1.998178   -0.397394
      9          1           0        5.182136   -2.624199   -1.411399
     10          1           0        5.620422   -3.463751    0.086054
     11          6           0        3.321834    0.647958    0.514286
     12          6           0        3.141831    2.032832   -0.108376
     13          6           0        2.137501    2.897722    0.653911
     14          1           0        2.348581    0.138928    0.546855
     15          1           0        3.650206    0.761403    1.556518
     16          1           0        2.814033    1.916075   -1.149305
     17          1           0        4.115376    2.538559   -0.141028
     18          1           0        2.462493    3.043744    1.689120
     19          1           0        1.153757    2.417723    0.675115
     20          1           0        2.024207    3.883295    0.191667
     21          6           0       -5.361755   -0.891133    0.331623
     22          6           0       -5.088849    0.436260   -0.014887
     23          6           0       -3.776407    0.850372   -0.260968
     24          6           0       -2.756522   -0.093577   -0.151033
     25          6           0       -2.996413   -1.423189    0.192294
     26          6           0       -4.316509   -1.814993    0.433928
     27          1           0       -6.384264   -1.204161    0.521058
     28          1           0       -5.898610    1.155914   -0.095079
     29          1           0       -3.536886    1.871734   -0.530911
     30          1           0       -2.168231   -2.117688    0.264429
     31          1           0       -4.525490   -2.846521    0.702856
     32          7           0       -1.363047    0.333017   -0.409194
     33          8           0       -0.482234   -0.517927   -0.305752
     34          8           0       -1.178041    1.510246   -0.710094
 ---------------------------------------------------------------------

 SCF Done:  E(RHF) =  -669.537014552     A.U. after   15 cycles
 E2 =    -0.2091957239D+01 EUMP2 =    -0.67162897179173D+03

 The electronic state is 1-A.
 Alpha  occ. eigenvalues --  -20.61202 -20.61197 -15.86192 -11.31430 -11.27978
 Alpha  occ. eigenvalues --  -11.27973 -11.27701 -11.26963 -11.26953 -11.20525
 Alpha  occ. eigenvalues --  -11.20223 -11.20069 -11.19926 -11.19658 -11.19234
 Alpha  occ. eigenvalues --   -1.60236  -1.39794  -1.19585  -1.09007  -1.06994
 Alpha  occ. eigenvalues --   -1.04967  -1.02134  -0.95861  -0.94588  -0.86372
 Alpha  occ. eigenvalues --   -0.85614  -0.82698  -0.78253  -0.77764  -0.76764
 Alpha  occ. eigenvalues --   -0.72406  -0.71537  -0.70693  -0.65241  -0.64971
 Alpha  occ. eigenvalues --   -0.63606  -0.62314  -0.59515  -0.58021  -0.56205
 Alpha  occ. eigenvalues --   -0.55475  -0.53860  -0.53302  -0.53055  -0.51338
 Alpha  occ. eigenvalues --   -0.51034  -0.49234  -0.49196  -0.48442  -0.46558
 Alpha  occ. eigenvalues --   -0.45340  -0.45115  -0.44337  -0.44093  -0.42377
 Alpha  occ. eigenvalues --   -0.37558  -0.36562
 Alpha virt. eigenvalues --    0.04722   0.11095   0.16230   0.21228   0.24262
 Alpha virt. eigenvalues --    0.25762   0.27165   0.27922   0.28266   0.28970
 Alpha virt. eigenvalues --    0.29359   0.30826   0.32340   0.32774   0.32909

 Mulliken charges:
               1
     1  C   -0.296642
     2  C   -0.299324
     3  C   -0.474851
     4  H    0.150644
     5  H    0.143973
     6  H    0.154702
     7  H    0.148276
     8  H    0.152940
     9  H    0.154420
    10  H    0.156031
    11  C   -0.307582
    12  C   -0.295445
    13  C   -0.481825
    14  H    0.172645
    15  H    0.140892
    16  H    0.156064
    17  H    0.142519
    18  H    0.143903
    19  H    0.176237
    20  H    0.153334
    21  C   -0.170210
    22  C   -0.218622
    23  C   -0.170357
    24  C    0.158204
    25  C   -0.170510
    26  C   -0.218616
    27  H    0.226539
    28  H    0.224369
    29  H    0.276357
    30  H    0.275998
    31  H    0.224328
    32  N    0.488880
    33  O   -0.459989
    34  O   -0.457283
 Sum of Mulliken charges =  -0.00000

 Dipole moment (field-independent basis, Debye):
    X=             -5.4820    Y=             -1.5942    Z=              0.8074  Tot=              5.7659
 Quadrupole moment (field-independent basis, Debye-Ang):
   XX=            -69.2799   YY=            -91.4160   ZZ=            -95.8047
   XY=              3.5287   XZ=             -1.0807   YZ=             -1.2719

 Normal termination of Gaussian 16 at Wed May  5 17:06:59 2021.
