 Gaussian 16, Revision A.03,
 Gaussian 16:  EM64L-G16RevA.03 25-Dec-2016

 -------------
 #p 6-31g* mp2
 -------------

 ------------------------------------------------------
 Input file generated by CHIRIPA (05-May-2021 14:55:22)
 ------------------------------------------------------
 Symbolic Z-matrix:
 Charge =  0 Multiplicity = 1

                         Standard orientation:
 ---------------------------------------------------------------------
 Center     Atomic      Atomic             Coordinates (Angstroms)
 Number     Number       Type             X           Y           Z
 ---------------------------------------------------------------------
      1          6           0       -0.347644   -1.263759    0.210055
      2          6           0       -0.792182   -0.290043    1.110491
      3          6           0       -2.107753    0.179879    1.055785
      4          6           0       -2.955719   -0.348218    0.083489
      5          6           0       -2.542534   -1.319029   -0.827605
      6          6           0       -1.222696   -1.774244   -0.754419
      7          1           0        0.675980   -1.623093    0.259730
      8          1           0       -0.114813    0.108209    1.860565
      9          1           0       -2.478123    0.933101    1.740548
     10          1           0       -3.241032   -1.697035   -1.564239
     11          1           0       -0.880211   -2.530507   -1.455001
     12          7           0       -4.350714    0.141483    0.015793
     13          8           0       -5.078132   -0.339804   -0.850153
     14          8           0       -4.690278    0.997324    0.829960
     15          6           0        3.569298   -0.207589   -0.053883
     16          6           0        5.020687   -0.648691    0.138167
     17          6           0        5.165029   -2.165025    0.271174
     18          1           0        2.969735   -0.561270    0.796046
     19          1           0        3.160477   -0.695716   -0.949423
     20          1           0        5.427079   -0.158801    1.032296
     21          1           0        5.616901   -0.293755   -0.712224
     22          1           0        4.785492   -2.668130   -0.624056
     23          1           0        4.594591   -2.532410    1.130377
     24          1           0        6.210593   -2.458341    0.407634
     25          6           0        3.408768    1.305640   -0.188412
     26          6           0        1.957379    1.746742   -0.380461
     27          6           0        1.813037    3.263077   -0.513469
     28          1           0        3.817590    1.793767    0.707128
     29          1           0        4.008330    1.659320   -1.038342
     30          1           0        1.361165    1.391805    0.469930
     31          1           0        1.550988    1.256852   -1.274592
     32          1           0        2.383475    3.630460   -1.372672
     33          1           0        2.192574    3.766181    0.381761
     34          1           0        0.767473    3.556392   -0.649928
 ---------------------------------------------------------------------

 SCF Done:  E(RHF) =  -669.534046734     A.U. after   15 cycles
 E2 =    -0.2093634358D+01 EUMP2 =    -0.67162768109227D+03

 The electronic state is 1-A.
 Alpha  occ. eigenvalues --  -20.60725 -20.60719 -15.85779 -11.31129 -11.27706
 Alpha  occ. eigenvalues --  -11.27701 -11.27381 -11.26705 -11.26694 -11.22556
 Alpha  occ. eigenvalues --  -11.22479 -11.22270 -11.22189 -11.21945 -11.21593
 Alpha  occ. eigenvalues --   -1.59801  -1.39355  -1.19307  -1.09348  -1.08691
 Alpha  occ. eigenvalues --   -1.04724  -1.04314  -0.96785  -0.95533  -0.87794
 Alpha  occ. eigenvalues --   -0.86125  -0.82376  -0.80405  -0.79209  -0.77424
 Alpha  occ. eigenvalues --   -0.71998  -0.71125  -0.70391  -0.66013  -0.64954
 Alpha  occ. eigenvalues --   -0.64727  -0.62130  -0.61660  -0.60150  -0.58415
 Alpha  occ. eigenvalues --   -0.56092  -0.55195  -0.53450  -0.53220  -0.53012
 Alpha  occ. eigenvalues --   -0.52823  -0.50720  -0.48799  -0.48753  -0.48655
 Alpha  occ. eigenvalues --   -0.47438  -0.46687  -0.46618  -0.44765  -0.44609
 Alpha  occ. eigenvalues --   -0.37205  -0.36283
 Alpha virt. eigenvalues --    0.05101   0.11235   0.16512   0.19644   0.22727
 Alpha virt. eigenvalues --    0.23320   0.24988   0.25904   0.27137   0.27604
 Alpha virt. eigenvalues --    0.29911   0.30261   0.30920   0.31511   0.31579

 Mulliken charges:
               1
     1  C   -0.169819
     2  C   -0.218042
     3  C   -0.172822
     4  C    0.158018
     5  C   -0.170508
     6  C   -0.220845
     7  H    0.232910
     8  H    0.221834
     9  H    0.275228
    10  H    0.275276
    11  H    0.223186
    12  N    0.488090
    13  O   -0.460677
    14  O   -0.460703
    15  C   -0.301393
    16  C   -0.299341
    17  C   -0.476913
    18  H    0.139966
    19  H    0.148181
    20  H    0.154647
    21  H    0.155855
    22  H    0.154362
    23  H    0.153116
    24  H    0.164637
    25  C   -0.298319
    26  C   -0.301690
    27  C   -0.476795
    28  H    0.150875
    29  H    0.153285
    30  H    0.147704
    31  H    0.154274
    32  H    0.157166
    33  H    0.154934
    34  H    0.164322
 Sum of Mulliken charges =  -0.00000

 Dipole moment (field-independent basis, Debye):
    X=              5.0882    Y=             -1.6492    Z=              0.1664  Tot=              5.3514
 Quadrupole moment (field-independent basis, Debye-Ang):
   XX=           -123.7864   YY=            -93.1204   ZZ=            -91.0894
   XY=              4.3696   XZ=              0.2180   YZ=              2.6534

 Normal termination of Gaussian 16 at Thu May  6 14:12:52 2021.
