 Gaussian 16, Revision A.03,
 Gaussian 16:  EM64L-G16RevA.03 25-Dec-2016

 -------------
 #p 6-31g* mp2
 -------------

 ------------------------------------------------------
 Input file generated by CHIRIPA (05-May-2021 14:51:08)
 ------------------------------------------------------
 Symbolic Z-matrix:
 Charge =  0 Multiplicity = 1

                         Standard orientation:
 ---------------------------------------------------------------------
 Center     Atomic      Atomic             Coordinates (Angstroms)
 Number     Number       Type             X           Y           Z
 ---------------------------------------------------------------------
      1          6           0        5.029526    0.078447    0.250887
      2          6           0        6.351259   -0.355107   -0.383967
      3          6           0        7.524146    0.536269    0.025395
      4          1           0        4.817778    1.118564   -0.032424
      5          1           0        5.135169    0.067706    1.344559
      6          1           0        6.242729   -0.344883   -1.476090
      7          1           0        6.559789   -1.394375   -0.099268
      8          1           0        7.660960    0.518270    1.111470
      9          1           0        7.342099    1.573726   -0.273175
     10          1           0        8.459015    0.208425   -0.439792
     11          6           0        3.847573   -0.803001   -0.148819
     12          6           0        2.525840   -0.369446    0.486035
     13          6           0        1.352953   -1.260823    0.076673
     14          1           0        3.741930   -0.792259   -1.242491
     15          1           0        4.059320   -1.843118    0.134492
     16          1           0        2.317310    0.669822    0.201336
     17          1           0        2.634370   -0.379671    1.578158
     18          1           0        1.535000   -2.298279    0.375243
     19          1           0        1.216139   -1.242824   -1.009402
     20          1           0        0.418084   -0.932979    0.541860
     21          6           0       -3.715578    0.418884   -0.290909
     22          6           0       -3.008874    1.680502    0.205957
     23          6           0       -1.563319    1.779503   -0.282265
     24          1           0       -3.153219   -0.464084    0.042352
     25          1           0       -3.696858    0.405076   -1.389478
     26          1           0       -3.030137    1.692616    1.303235
     27          1           0       -3.573087    2.560564   -0.128364
     28          1           0       -1.526271    1.792641   -1.376365
     29          1           0       -0.980235    0.919762    0.063366
     30          1           0       -1.077053    2.688796    0.084599
     31          6           0       -5.161521    0.305669    0.188841
     32          6           0       -5.868224   -0.955949   -0.308025
     33          6           0       -7.313781   -1.054949    0.180197
     34          1           0       -5.180241    0.319477    1.287411
     35          1           0       -5.723881    1.188637   -0.144420
     36          1           0       -5.304012   -1.836011    0.026295
     37          1           0       -5.846962   -0.968063   -1.405302
     38          1           0       -7.896864   -0.195208   -0.165434
     39          1           0       -7.350828   -1.068088    1.274297
     40          1           0       -7.800047   -1.964243   -0.186667
 ---------------------------------------------------------------------

 SCF Done:  E(RHF) =  -470.733221054     A.U. after   11 cycles
 E2 =    -0.1582360698D+01 EUMP2 =    -0.47231558175192D+03

 The electronic state is 1-A.
 Alpha  occ. eigenvalues --  -11.21593 -11.21587 -11.21586 -11.21582 -11.21395
 Alpha  occ. eigenvalues --  -11.21389 -11.21335 -11.21330 -11.21075 -11.21063
 Alpha  occ. eigenvalues --  -11.21059 -11.21015  -1.08424  -1.08410  -1.03540
 Alpha  occ. eigenvalues --   -1.03495  -0.96011  -0.95927  -0.87038  -0.86935
 Alpha  occ. eigenvalues --   -0.79607  -0.79551  -0.78231  -0.78225  -0.65064
 Alpha  occ. eigenvalues --   -0.65033  -0.60982  -0.60876  -0.59403  -0.59295
 Alpha  occ. eigenvalues --   -0.57694  -0.57480  -0.55325  -0.55182  -0.52763
 Alpha  occ. eigenvalues --   -0.52651  -0.52453  -0.52255  -0.49945  -0.49845
 Alpha  occ. eigenvalues --   -0.47965  -0.47819  -0.46615  -0.46591  -0.45774
 Alpha  occ. eigenvalues --   -0.45762  -0.45698  -0.45689  -0.43780  -0.43746
 Alpha virt. eigenvalues --    0.21580   0.22991   0.23482   0.24897   0.26288
 Alpha virt. eigenvalues --    0.26605   0.27140   0.27460   0.27798   0.29019
 Alpha virt. eigenvalues --    0.30401   0.31344   0.31700   0.31843   0.32086

 Mulliken charges:
               1
     1  C   -0.298304
     2  C   -0.299660
     3  C   -0.475706
     4  H    0.149819
     5  H    0.149463
     6  H    0.151957
     7  H    0.151891
     8  H    0.155150
     9  H    0.155211
    10  H    0.160221
    11  C   -0.298359
    12  C   -0.300717
    13  C   -0.478617
    14  H    0.149682
    15  H    0.149573
    16  H    0.153793
    17  H    0.151638
    18  H    0.155166
    19  H    0.156026
    20  H    0.162038
    21  C   -0.298365
    22  C   -0.299378
    23  C   -0.482793
    24  H    0.149572
    25  H    0.149600
    26  H    0.151610
    27  H    0.151827
    28  H    0.154908
    29  H    0.162994
    30  H    0.159814
    31  C   -0.298287
    32  C   -0.299664
    33  C   -0.475700
    34  H    0.149447
    35  H    0.149633
    36  H    0.152076
    37  H    0.151927
    38  H    0.155130
    39  H    0.155149
    40  H    0.160235
 Sum of Mulliken charges =  -0.00000

 Dipole moment (field-independent basis, Debye):
    X=              0.0158    Y=             -0.0067    Z=             -0.0072  Tot=              0.0187
 Quadrupole moment (field-independent basis, Debye-Ang):
   XX=            -86.7435   YY=            -84.5582   ZZ=            -83.5528
   XY=             -0.9827   XZ=              0.5116   YZ=             -0.9832

 Normal termination of Gaussian 16 at Wed May  5 15:03:52 2021.
