 Gaussian 16, Revision A.03,
 Gaussian 16:  EM64L-G16RevA.03 25-Dec-2016

 -------------
 #p 6-31g* mp2
 -------------

 ------------------------------------------------------
 Input file generated by CHIRIPA (05-May-2021 14:57:21)
 ------------------------------------------------------
 Symbolic Z-matrix:
 Charge =  0 Multiplicity = 1

                         Standard orientation:
 ---------------------------------------------------------------------
 Center     Atomic      Atomic             Coordinates (Angstroms)
 Number     Number       Type             X           Y           Z
 ---------------------------------------------------------------------
      1          6           0        3.950304   -2.375682    0.208045
      2          6           0        2.728337   -1.741865   -0.040136
      3          6           0        2.668608   -0.354935   -0.205682
      4          6           0        3.855582    0.370603   -0.116356
      5          6           0        5.088358   -0.231843    0.129837
      6          6           0        5.124345   -1.619980    0.292091
      7          1           0        3.987480   -3.453552    0.335367
      8          1           0        1.814966   -2.326220   -0.105924
      9          1           0        1.736104    0.161372   -0.398765
     10          1           0        5.982043    0.377361    0.189970
     11          1           0        6.074755   -2.109525    0.484732
     12          7           0        3.804917    1.839523   -0.289870
     13          8           0        4.864833    2.456189   -0.206574
     14          8           0        2.706250    2.346382   -0.505880
     15          6           0       -1.540953   -1.068334    0.381728
     16          6           0       -2.449835   -1.702523   -0.471653
     17          6           0       -3.739583   -1.190646   -0.642185
     18          6           0       -4.088508   -0.037648    0.059339
     19          6           0       -3.205548    0.616956    0.916756
     20          6           0       -1.921040    0.087344    1.071992
     21          1           0       -0.541081   -1.472860    0.508260
     22          1           0       -2.157408   -2.600181   -1.008997
     23          1           0       -4.463134   -1.661544   -1.296515
     24          1           0       -3.526062    1.510258    1.438961
     25          1           0       -1.217279    0.581966    1.735402
     26          7           0       -5.451133    0.513641   -0.113099
     27          8           0       -5.734047    1.530723    0.516296
     28          8           0       -6.210444   -0.081782   -0.874386
 ---------------------------------------------------------------------

 SCF Done:  E(RHF) =  -868.336619069     A.U. after   16 cycles
 E2 =    -0.2600135062D+01 EUMP2 =    -0.87093675413123D+03

 The electronic state is 1-A.
 Alpha  occ. eigenvalues --  -20.61437 -20.61425 -20.60946 -20.60937 -15.86495
 Alpha  occ. eigenvalues --  -15.86000 -11.31998 -11.31497 -11.28663 -11.28549
 Alpha  occ. eigenvalues --  -11.28361 -11.28072 -11.28020 -11.27983 -11.27759
 Alpha  occ. eigenvalues --  -11.27562 -11.27204 -11.27122  -1.60508  -1.60015
 Alpha  occ. eigenvalues --   -1.40058  -1.39565  -1.20196  -1.19685  -1.09557
 Alpha  occ. eigenvalues --   -1.09095  -1.05642  -1.05091  -0.96367  -0.95904
 Alpha  occ. eigenvalues --   -0.87023  -0.86505  -0.83224  -0.82712  -0.78247
 Alpha  occ. eigenvalues --   -0.77709  -0.72708  -0.72219  -0.71836  -0.71337
 Alpha  occ. eigenvalues --   -0.71311  -0.70882  -0.65853  -0.65668  -0.65351
 Alpha  occ. eigenvalues --   -0.65109  -0.62994  -0.62423  -0.56135  -0.55693
 Alpha  occ. eigenvalues --   -0.53931  -0.53740  -0.53419  -0.53193  -0.49478
 Alpha  occ. eigenvalues --   -0.49455  -0.48989  -0.48963  -0.45434  -0.44940
 Alpha  occ. eigenvalues --   -0.38161  -0.37728  -0.37246  -0.36669
 Alpha virt. eigenvalues --    0.04310   0.04781   0.10403   0.10941   0.15684
 Alpha virt. eigenvalues --    0.16142   0.18153   0.22063   0.24876   0.26366
 Alpha virt. eigenvalues --    0.27641   0.29015   0.29954   0.31322   0.32597

 Mulliken charges:
               1
     1  C   -0.169690
     2  C   -0.222126
     3  C   -0.174129
     4  C    0.159186
     5  C   -0.169173
     6  C   -0.218333
     7  H    0.227788
     8  H    0.216139
     9  H    0.274503
    10  H    0.278493
    11  H    0.226649
    12  N    0.487997
    13  O   -0.457447
    14  O   -0.460099
    15  C   -0.177636
    16  C   -0.218317
    17  C   -0.170301
    18  C    0.159728
    19  C   -0.169176
    20  C   -0.218389
    21  H    0.219166
    22  H    0.220920
    23  H    0.276746
    24  H    0.278856
    25  H    0.228529
    26  N    0.487887
    27  O   -0.458039
    28  O   -0.459734
 Sum of Mulliken charges =  -0.00000

 Dipole moment (field-independent basis, Debye):
    X=              5.0518    Y=             -6.9549    Z=              1.2494  Tot=              8.6863
 Quadrupole moment (field-independent basis, Debye-Ang):
   XX=           -135.9632   YY=           -106.6967   ZZ=           -104.0788
   XY=            -11.3221   XZ=              1.6929   YZ=              3.5462

 Normal termination of Gaussian 16 at Thu May  6 09:37:41 2021.
