 Gaussian 16, Revision A.03,
 Gaussian 16:  EM64L-G16RevA.03 25-Dec-2016

 -------------
 #p 6-31g* mp2
 -------------

 ------------------------------------------------------
 Input file generated by CHIRIPA (05-May-2021 14:55:22)
 ------------------------------------------------------
 Symbolic Z-matrix:
 Charge =  0 Multiplicity = 1

                         Standard orientation:
 ---------------------------------------------------------------------
 Center     Atomic      Atomic             Coordinates (Angstroms)
 Number     Number       Type             X           Y           Z
 ---------------------------------------------------------------------
      1          6           0       -0.696554   -2.301883    0.490427
      2          6           0       -0.347084   -1.235931   -0.345119
      3          6           0       -1.282673   -0.247056   -0.663472
      4          6           0       -2.564445   -0.355897   -0.126347
      5          6           0       -2.942987   -1.405732    0.709023
      6          6           0       -1.991108   -2.383238    1.013909
      7          1           0        0.036561   -3.065649    0.732501
      8          1           0        0.657541   -1.170180   -0.753101
      9          1           0       -1.038911    0.588933   -1.307770
     10          1           0       -3.952268   -1.444198    1.100548
     11          1           0       -2.265319   -3.209942    1.663072
     12          7           0       -3.563534    0.684963   -0.456245
     13          8           0       -4.686175    0.566212    0.029771
     14          8           0       -3.205061    1.599831   -1.194588
     15          6           0        2.659638    1.283457   -0.116567
     16          6           0        2.189021    2.131543    1.065488
     17          6           0        1.365870    3.344894    0.631906
     18          1           0        3.255822    1.909509   -0.794482
     19          1           0        1.784228    0.947971   -0.689718
     20          1           0        3.064982    2.464180    1.637030
     21          1           0        1.594048    1.503351    1.740764
     22          1           0        0.474648    3.028610    0.080281
     23          1           0        1.953940    3.994899   -0.024042
     24          1           0        1.039733    3.937100    1.492597
     25          6           0        3.483807    0.066799    0.300826
     26          6           0        3.954424   -0.781287   -0.881229
     27          6           0        4.777575   -1.994639   -0.447648
     28          1           0        4.359217    0.402284    0.873976
     29          1           0        2.887623   -0.559254    0.978740
     30          1           0        4.549397   -0.153096   -1.556506
     31          1           0        3.078463   -1.113925   -1.452772
     32          1           0        4.189505   -2.644644    0.208300
     33          1           0        5.668796   -1.678355    0.103977
     34          1           0        5.103712   -2.586845   -1.308339
 ---------------------------------------------------------------------

 SCF Done:  E(RHF) =  -669.534955843     A.U. after   15 cycles
 E2 =    -0.2093427778D+01 EUMP2 =    -0.67162838362081D+03

 The electronic state is 1-A.
 Alpha  occ. eigenvalues --  -20.60792 -20.60787 -15.85844 -11.31226 -11.27794
 Alpha  occ. eigenvalues --  -11.27789 -11.27529 -11.26810 -11.26769 -11.22603
 Alpha  occ. eigenvalues --  -11.22243 -11.22133 -11.22013 -11.21953 -11.21264
 Alpha  occ. eigenvalues --   -1.59866  -1.39419  -1.19397  -1.09213  -1.08783
 Alpha  occ. eigenvalues --   -1.04803  -1.04191  -0.96626  -0.95621  -0.87637
 Alpha  occ. eigenvalues --   -0.86200  -0.82462  -0.80276  -0.79007  -0.77500
 Alpha  occ. eigenvalues --   -0.72062  -0.71188  -0.70506  -0.66082  -0.65049
 Alpha  occ. eigenvalues --   -0.64670  -0.62106  -0.61596  -0.60012  -0.58227
 Alpha  occ. eigenvalues --   -0.55933  -0.55292  -0.53292  -0.53129  -0.53035
 Alpha  occ. eigenvalues --   -0.52859  -0.50590  -0.48825  -0.48817  -0.48568
 Alpha  occ. eigenvalues --   -0.47344  -0.46501  -0.46443  -0.44820  -0.44463
 Alpha  occ. eigenvalues --   -0.37373  -0.36383
 Alpha virt. eigenvalues --    0.05002   0.11159   0.16402   0.18753   0.22629
 Alpha virt. eigenvalues --    0.23434   0.24840   0.26114   0.26666   0.28233
 Alpha virt. eigenvalues --    0.29325   0.30685   0.31172   0.31550   0.32084

 Mulliken charges:
               1
     1  C   -0.174115
     2  C   -0.224412
     3  C   -0.174691
     4  C    0.158763
     5  C   -0.171026
     6  C   -0.218297
     7  H    0.225945
     8  H    0.235276
     9  H    0.276614
    10  H    0.275773
    11  H    0.223641
    12  N    0.488281
    13  O   -0.460238
    14  O   -0.460497
    15  C   -0.298765
    16  C   -0.300899
    17  C   -0.477465
    18  H    0.153884
    19  H    0.139843
    20  H    0.153365
    21  H    0.153813
    22  H    0.158640
    23  H    0.156047
    24  H    0.163934
    25  C   -0.301989
    26  C   -0.303812
    27  C   -0.474913
    28  H    0.155357
    29  H    0.146528
    30  H    0.158073
    31  H    0.143966
    32  H    0.150790
    33  H    0.159502
    34  H    0.163082
 Sum of Mulliken charges =  -0.00000

 Dipole moment (field-independent basis, Debye):
    X=              3.6405    Y=             -3.5589    Z=              1.2292  Tot=              5.2374
 Quadrupole moment (field-independent basis, Debye-Ang):
   XX=           -109.6711   YY=            -91.7205   ZZ=            -94.0825
   XY=             11.2559   XZ=             -5.7882   YZ=             -1.3565

 Normal termination of Gaussian 16 at Thu May  6 03:06:07 2021.
