 Gaussian 16, Revision A.03,
 Gaussian 16:  EM64L-G16RevA.03 25-Dec-2016

 -------------
 #p 6-31g* mp2
 -------------

 ------------------------------------------------------
 Input file generated by CHIRIPA (05-May-2021 14:57:26)
 ------------------------------------------------------
 Symbolic Z-matrix:
 Charge =  0 Multiplicity = 1

                         Standard orientation:
 ---------------------------------------------------------------------
 Center     Atomic      Atomic             Coordinates (Angstroms)
 Number     Number       Type             X           Y           Z
 ---------------------------------------------------------------------
      1          6           0       -5.411814    1.231952    0.388860
      2          6           0       -5.323412   -0.162293    0.458065
      3          6           0       -4.143727   -0.817909    0.093294
      4          6           0       -3.067015   -0.044671   -0.338078
      5          6           0       -3.124144    1.345886   -0.417936
      6          6           0       -4.313834    1.980272   -0.048149
      7          1           0       -6.332107    1.733004    0.674171
      8          1           0       -6.174524   -0.746007    0.797079
      9          1           0       -4.047983   -1.896018    0.137247
     10          1           0       -2.258919    1.900797   -0.759810
     11          1           0       -4.379625    3.063193   -0.102903
     12          7           0       -1.812839   -0.727505   -0.726900
     13          8           0       -0.878433   -0.023516   -1.103624
     14          8           0       -1.787971   -1.953770   -0.647572
     15          6           0        1.376602   -1.381981    1.293790
     16          6           0        1.864349   -1.724202    0.028283
     17          6           0        2.915131   -1.003075   -0.546507
     18          6           0        3.457124    0.059175    0.175406
     19          6           0        2.993068    0.424545    1.438120
     20          6           0        1.941522   -0.310589    1.993436
     21          1           0        0.560032   -1.947611    1.732737
     22          1           0        1.427553   -2.555777   -0.517368
     23          1           0        3.312051   -1.246474   -1.524580
     24          1           0        3.448808    1.258573    1.957846
     25          1           0        1.564756   -0.042559    2.976418
     26          7           0        4.569944    0.830014   -0.422790
     27          8           0        5.030285    1.761576    0.233652
     28          8           0        4.960760    0.488041   -1.536771
 ---------------------------------------------------------------------

 SCF Done:  E(RHF) =  -868.339339917     A.U. after   16 cycles
 E2 =    -0.2600621101D+01 EUMP2 =    -0.87093996101751D+03

 The electronic state is 1-A.
 Alpha  occ. eigenvalues --  -20.61733 -20.61650 -20.59776 -20.59759 -15.86682
 Alpha  occ. eigenvalues --  -15.84809 -11.31849 -11.29895 -11.28407 -11.28358
 Alpha  occ. eigenvalues --  -11.28080 -11.27358 -11.27325 -11.26476 -11.26291
 Alpha  occ. eigenvalues --  -11.26033 -11.25507 -11.25186  -1.60750  -1.58850
 Alpha  occ. eigenvalues --   -1.40306  -1.38412  -1.19999  -1.18002  -1.09435
 Alpha  occ. eigenvalues --   -1.07455  -1.05364  -1.03363  -0.96304  -0.94351
 Alpha  occ. eigenvalues --   -0.86771  -0.84782  -0.83139  -0.81201  -0.78215
 Alpha  occ. eigenvalues --   -0.76285  -0.72924  -0.72074  -0.71095  -0.71041
 Alpha  occ. eigenvalues --   -0.70164  -0.69133  -0.65649  -0.65360  -0.63667
 Alpha  occ. eigenvalues --   -0.63377  -0.62708  -0.60738  -0.55870  -0.53894
 Alpha  occ. eigenvalues --   -0.53712  -0.53447  -0.51775  -0.51477  -0.49702
 Alpha  occ. eigenvalues --   -0.49587  -0.47808  -0.47767  -0.45743  -0.43881
 Alpha  occ. eigenvalues --   -0.37976  -0.36960  -0.35922  -0.34871
 Alpha virt. eigenvalues --    0.04278   0.06220   0.10698   0.12744   0.15832
 Alpha virt. eigenvalues --    0.17800   0.20889   0.22759   0.26817   0.27762
 Alpha virt. eigenvalues --    0.28694   0.29511   0.30508   0.31983   0.32282

 Mulliken charges:
               1
     1  C   -0.170050
     2  C   -0.218606
     3  C   -0.171922
     4  C    0.157477
     5  C   -0.170763
     6  C   -0.218719
     7  H    0.227887
     8  H    0.224903
     9  H    0.274409
    10  H    0.278351
    11  H    0.226271
    12  N    0.487512
    13  O   -0.451678
    14  O   -0.471364
    15  C   -0.173319
    16  C   -0.197394
    17  C   -0.171126
    18  C    0.158452
    19  C   -0.174229
    20  C   -0.219355
    21  H    0.223897
    22  H    0.232757
    23  H    0.272295
    24  H    0.269227
    25  H    0.215239
    26  N    0.488061
    27  O   -0.465723
    28  O   -0.462486
 Sum of Mulliken charges =  -0.00000

 Dipole moment (field-independent basis, Debye):
    X=             -8.7969    Y=             -0.3564    Z=              3.2441  Tot=              9.3828
 Quadrupole moment (field-independent basis, Debye-Ang):
   XX=           -105.9314   YY=           -100.2003   ZZ=           -103.0158
   XY=            -15.6456   XZ=              2.9636   YZ=              0.4355

 Normal termination of Gaussian 16 at Thu May  6 22:57:50 2021.
