 Gaussian 16, Revision A.03,
 Gaussian 16:  EM64L-G16RevA.03 25-Dec-2016

 -------------
 #p 6-31g* mp2
 -------------

 ------------------------------------------------------
 Input file generated by CHIRIPA (05-May-2021 14:55:21)
 ------------------------------------------------------
 Symbolic Z-matrix:
 Charge =  0 Multiplicity = 1

                         Standard orientation:
 ---------------------------------------------------------------------
 Center     Atomic      Atomic             Coordinates (Angstroms)
 Number     Number       Type             X           Y           Z
 ---------------------------------------------------------------------
      1          6           0        1.036859   -0.073501   -0.093885
      2          6           0        1.803028    0.988601   -0.585257
      3          6           0        3.199470    0.923204   -0.570360
      4          6           0        3.799455   -0.224517   -0.054566
      5          6           0        3.063570   -1.299214    0.442214
      6          6           0        1.668462   -1.212011    0.417381
      7          1           0       -0.047412   -0.014229   -0.109316
      8          1           0        1.315226    1.874022   -0.982906
      9          1           0        3.816849    1.730890   -0.944398
     10          1           0        3.578386   -2.168791    0.832367
     11          1           0        1.075986   -2.038379    0.799655
     12          7           0        5.277100   -0.305293   -0.033536
     13          8           0        5.781583   -1.327458    0.426149
     14          8           0        5.902815    0.655091   -0.477136
     15          6           0       -5.297847    0.122259    0.006547
     16          6           0       -5.601169   -1.350892   -0.268785
     17          6           0       -7.098317   -1.631358   -0.401760
     18          1           0       -5.813207    0.430427    0.926536
     19          1           0       -5.715622    0.733413   -0.805456
     20          1           0       -5.181743   -1.959201    0.542792
     21          1           0       -5.084872   -1.655640   -1.188123
     22          1           0       -7.527783   -1.049336   -1.223594
     23          1           0       -7.625204   -1.354622    0.517156
     24          1           0       -7.292468   -2.690375   -0.598352
     25          6           0       -3.805312    0.418425    0.142017
     26          6           0       -3.501990    1.891576    0.417348
     27          6           0       -2.004842    2.172043    0.550323
     28          1           0       -3.387537   -0.192730    0.954020
     29          1           0       -3.289952    0.110257   -0.777973
     30          1           0       -4.018288    2.196324    1.336686
     31          1           0       -3.921416    2.499886   -0.394229
     32          1           0       -1.477955    1.895306   -0.368593
     33          1           0       -1.575376    1.590020    1.372157
     34          1           0       -1.810691    3.231059    0.746916
 ---------------------------------------------------------------------

 SCF Done:  E(RHF) =  -669.535180916     A.U. after   15 cycles
 E2 =    -0.2091612629D+01 EUMP2 =    -0.67162679354537D+03

 The electronic state is 1-A.
 Alpha  occ. eigenvalues --  -20.60677 -20.60672 -15.85731 -11.31067 -11.27642
 Alpha  occ. eigenvalues --  -11.27639 -11.27282 -11.26631 -11.26618 -11.22680
 Alpha  occ. eigenvalues --  -11.22469 -11.22443 -11.22324 -11.22198 -11.21653
 Alpha  occ. eigenvalues --   -1.59754  -1.39308  -1.19236  -1.09383  -1.08627
 Alpha  occ. eigenvalues --   -1.04641  -1.04473  -0.96955  -0.95467  -0.87973
 Alpha  occ. eigenvalues --   -0.86032  -0.82312  -0.80558  -0.79178  -0.77364
 Alpha  occ. eigenvalues --   -0.71949  -0.71078  -0.70345  -0.66004  -0.64885
 Alpha  occ. eigenvalues --   -0.64654  -0.62015  -0.61839  -0.60332  -0.58563
 Alpha  occ. eigenvalues --   -0.56249  -0.55169  -0.53616  -0.53322  -0.52944
 Alpha  occ. eigenvalues --   -0.52725  -0.50892  -0.48841  -0.48706  -0.48696
 Alpha  occ. eigenvalues --   -0.47575  -0.46710  -0.46614  -0.44721  -0.44714
 Alpha  occ. eigenvalues --   -0.37193  -0.36251
 Alpha virt. eigenvalues --    0.05164   0.11393   0.16629   0.19875   0.22288
 Alpha virt. eigenvalues --    0.23730   0.25236   0.26102   0.26178   0.27474
 Alpha virt. eigenvalues --    0.29365   0.29941   0.30673   0.31131   0.31495

 Mulliken charges:
               1
     1  C   -0.174127
     2  C   -0.221396
     3  C   -0.170989
     4  C    0.158008
     5  C   -0.170839
     6  C   -0.220254
     7  H    0.233511
     8  H    0.223880
     9  H    0.275086
    10  H    0.275007
    11  H    0.222950
    12  N    0.488091
    13  O   -0.460833
    14  O   -0.460827
    15  C   -0.298586
    16  C   -0.300386
    17  C   -0.476240
    18  H    0.152268
    19  H    0.151885
    20  H    0.151668
    21  H    0.151970
    22  H    0.156452
    23  H    0.156449
    24  H    0.162096
    25  C   -0.301089
    26  C   -0.299519
    27  C   -0.482463
    28  H    0.147708
    29  H    0.146646
    30  H    0.156909
    31  H    0.155608
    32  H    0.146488
    33  H    0.157572
    34  H    0.167294
 Sum of Mulliken charges =  -0.00000

 Dipole moment (field-independent basis, Debye):
    X=             -5.5350    Y=              0.3586    Z=             -0.0260  Tot=              5.5467
 Quadrupole moment (field-independent basis, Debye-Ang):
   XX=           -135.0481   YY=            -90.7162   ZZ=            -93.6048
   XY=              2.0356   XZ=             -0.4145   YZ=             -2.3071

 Normal termination of Gaussian 16 at Thu May  6 04:34:53 2021.
