 Gaussian 16, Revision A.03,
 Gaussian 16:  EM64L-G16RevA.03 25-Dec-2016

 -------------
 #p 6-31g* mp2
 -------------

 ------------------------------------------------------
 Input file generated by CHIRIPA (05-May-2021 14:55:20)
 ------------------------------------------------------
 Symbolic Z-matrix:
 Charge =  0 Multiplicity = 1

                         Standard orientation:
 ---------------------------------------------------------------------
 Center     Atomic      Atomic             Coordinates (Angstroms)
 Number     Number       Type             X           Y           Z
 ---------------------------------------------------------------------
      1          6           0       -2.524788   -2.208689    1.335267
      2          6           0       -3.655526   -1.865631    0.586760
      3          6           0       -3.643812   -0.739484   -0.241614
      4          6           0       -2.479200    0.024597   -0.297719
      5          6           0       -1.336632   -0.291242    0.435817
      6          6           0       -1.370984   -1.421787    1.257544
      7          1           0       -2.542681   -3.085216    1.976186
      8          1           0       -4.552978   -2.474907    0.645148
      9          1           0       -4.505087   -0.450994   -0.831866
     10          1           0       -0.456673    0.335537    0.356822
     11          1           0       -0.491359   -1.685810    1.837714
     12          7           0       -2.454816    1.219127   -1.171162
     13          8           0       -1.416408    1.875885   -1.203038
     14          8           0       -3.474572    1.476022   -1.807353
     15          6           0        3.592111    0.062210   -0.425527
     16          6           0        3.945329   -1.419562   -0.558090
     17          6           0        4.772892   -1.720481   -1.808043
     18          1           0        3.038824    0.382088   -1.319112
     19          1           0        4.518749    0.652348   -0.403743
     20          1           0        3.018338   -2.006844   -0.578225
     21          1           0        4.497674   -1.735998    0.336001
     22          1           0        5.713091   -1.159799   -1.791773
     23          1           0        4.225351   -1.432184   -2.711196
     24          1           0        5.014189   -2.785383   -1.883005
     25          6           0        2.764927    0.378816    0.819164
     26          6           0        2.411710    1.860589    0.951727
     27          6           0        1.584147    2.161507    2.201681
     28          1           0        1.838289   -0.211321    0.797379
     29          1           0        3.318215    0.058938    1.712750
     30          1           0        1.859366    2.177024    0.057636
     31          1           0        3.338701    2.447870    0.971862
     32          1           0        2.131688    1.873211    3.104833
     33          1           0        0.643948    1.600826    2.185412
     34          1           0        1.342851    3.226409    2.276642
 ---------------------------------------------------------------------

 SCF Done:  E(RHF) =  -669.535261290     A.U. after   15 cycles
 E2 =    -0.2092924531D+01 EUMP2 =    -0.67162818582078D+03

 The electronic state is 1-A.
 Alpha  occ. eigenvalues --  -20.60818 -20.60813 -15.85867 -11.31204 -11.27779
 Alpha  occ. eigenvalues --  -11.27735 -11.27515 -11.26794 -11.26775 -11.21859
 Alpha  occ. eigenvalues --  -11.21845 -11.21683 -11.21574 -11.21287 -11.21209
 Alpha  occ. eigenvalues --   -1.59888  -1.39443  -1.19380  -1.08778  -1.08705
 Alpha  occ. eigenvalues --   -1.04786  -1.03737  -0.96203  -0.95619  -0.87217
 Alpha  occ. eigenvalues --   -0.86180  -0.82457  -0.79788  -0.78544  -0.77499
 Alpha  occ. eigenvalues --   -0.72090  -0.71208  -0.70514  -0.65444  -0.65026
 Alpha  occ. eigenvalues --   -0.64737  -0.62215  -0.61011  -0.59554  -0.57806
 Alpha  occ. eigenvalues --   -0.55529  -0.55276  -0.53115  -0.52874  -0.52846
 Alpha  occ. eigenvalues --   -0.52617  -0.50164  -0.48849  -0.48840  -0.48099
 Alpha  occ. eigenvalues --   -0.46804  -0.46068  -0.45955  -0.44853  -0.44009
 Alpha  occ. eigenvalues --   -0.37359  -0.36375
 Alpha virt. eigenvalues --    0.04990   0.11240   0.16470   0.19312   0.22979
 Alpha virt. eigenvalues --    0.23919   0.25147   0.26696   0.27757   0.28138
 Alpha virt. eigenvalues --    0.30013   0.30229   0.31483   0.31666   0.31921

 Mulliken charges:
               1
     1  C   -0.170427
     2  C   -0.218807
     3  C   -0.170198
     4  C    0.159356
     5  C   -0.180104
     6  C   -0.223056
     7  H    0.225890
     8  H    0.223662
     9  H    0.275627
    10  H    0.287640
    11  H    0.225656
    12  N    0.488174
    13  O   -0.462013
    14  O   -0.459907
    15  C   -0.299216
    16  C   -0.299666
    17  C   -0.476068
    18  H    0.156305
    19  H    0.152151
    20  H    0.148990
    21  H    0.150758
    22  H    0.156234
    23  H    0.157821
    24  H    0.159892
    25  C   -0.300847
    26  C   -0.308891
    27  C   -0.475488
    28  H    0.135635
    29  H    0.149993
    30  H    0.168341
    31  H    0.155102
    32  H    0.153470
    33  H    0.146329
    34  H    0.167661
 Sum of Mulliken charges =  -0.00000

 Dipole moment (field-independent basis, Debye):
    X=             -0.0087    Y=             -4.0738    Z=              2.9706  Tot=              5.0419
 Quadrupole moment (field-independent basis, Debye-Ang):
   XX=            -89.0644   YY=            -95.1858   ZZ=            -97.4564
   XY=             12.3541   XZ=             -5.4570   YZ=              1.3203

 Normal termination of Gaussian 16 at Wed May  5 20:33:06 2021.
