 Gaussian 16, Revision A.03,
 Gaussian 16:  EM64L-G16RevA.03 25-Dec-2016

 -------------
 #p 6-31g* mp2
 -------------

 ------------------------------------------------------
 Input file generated by CHIRIPA (05-May-2021 14:57:23)
 ------------------------------------------------------
 Symbolic Z-matrix:
 Charge =  0 Multiplicity = 1

                         Standard orientation:
 ---------------------------------------------------------------------
 Center     Atomic      Atomic             Coordinates (Angstroms)
 Number     Number       Type             X           Y           Z
 ---------------------------------------------------------------------
      1          6           0       -6.144846   -1.345565   -0.955932
      2          6           0       -6.342582    0.032290   -0.818325
      3          6           0       -5.338787    0.843439   -0.280756
      4          6           0       -4.144273    0.240753    0.110647
      5          6           0       -3.917148   -1.129007   -0.013701
      6          6           0       -4.934893   -1.920802   -0.553890
      7          1           0       -6.930036   -1.968168   -1.374546
      8          1           0       -7.281231    0.481761   -1.129709
      9          1           0       -5.465296    1.912803   -0.162972
     10          1           0       -2.970745   -1.548250    0.305631
     11          1           0       -4.778543   -2.990582   -0.659578
     12          7           0       -3.074216    1.089236    0.681134
     13          8           0       -2.030892    0.533945    1.018423
     14          8           0       -3.299091    2.293502    0.780191
     15          6           0        1.977243   -0.351892    0.884191
     16          6           0        3.021632   -1.105005    1.430626
     17          6           0        4.323975   -0.974095    0.939390
     18          6           0        4.547181   -0.076649   -0.103711
     19          6           0        3.527678    0.687701   -0.669107
     20          6           0        2.233149    0.540485   -0.162088
     21          1           0        0.968586   -0.459919    1.271925
     22          1           0        2.825829   -1.798809    2.243242
     23          1           0        5.151077   -1.544773    1.343922
     24          1           0        3.753814    1.371182   -1.478511
     25          1           0        1.424009    1.126658   -0.588397
     26          7           0        5.921778    0.070570   -0.632116
     27          8           0        6.092293    0.868090   -1.551640
     28          8           0        6.802643   -0.614346   -0.116750
 ---------------------------------------------------------------------

 SCF Done:  E(RHF) =  -868.340119195     A.U. after   16 cycles
 E2 =    -0.2598109764D+01 EUMP2 =    -0.87093822895860D+03

 The electronic state is 1-A.
 Alpha  occ. eigenvalues --  -20.61882 -20.61811 -20.60168 -20.60161 -15.86893
 Alpha  occ. eigenvalues --  -15.85216 -11.31985 -11.30407 -11.28548 -11.28495
 Alpha  occ. eigenvalues --  -11.28194 -11.27475 -11.27449 -11.26996 -11.26941
 Alpha  occ. eigenvalues --  -11.26484 -11.25926 -11.25801  -1.60910  -1.59248
 Alpha  occ. eigenvalues --   -1.40475  -1.38806  -1.20128  -1.18548  -1.09568
 Alpha  occ. eigenvalues --   -1.07937  -1.05491  -1.03934  -0.96451  -0.94807
 Alpha  occ. eigenvalues --   -0.86901  -0.85312  -0.83300  -0.81658  -0.78378
 Alpha  occ. eigenvalues --   -0.76762  -0.73133  -0.72216  -0.71435  -0.71231
 Alpha  occ. eigenvalues --   -0.70570  -0.69544  -0.65785  -0.65487  -0.64179
 Alpha  occ. eigenvalues --   -0.63905  -0.62846  -0.61290  -0.55990  -0.54286
 Alpha  occ. eigenvalues --   -0.53832  -0.53578  -0.52271  -0.52002  -0.49888
 Alpha  occ. eigenvalues --   -0.49831  -0.48202  -0.48176  -0.45940  -0.44252
 Alpha  occ. eigenvalues --   -0.38084  -0.37082  -0.36471  -0.35560
 Alpha virt. eigenvalues --    0.04140   0.05775   0.10577   0.12111   0.15690
 Alpha virt. eigenvalues --    0.17330   0.20669   0.22380   0.26621   0.27337
 Alpha virt. eigenvalues --    0.28189   0.29191   0.30450   0.31475   0.32657

 Mulliken charges:
               1
     1  C   -0.169766
     2  C   -0.218352
     3  C   -0.170303
     4  C    0.157667
     5  C   -0.170281
     6  C   -0.218198
     7  H    0.228408
     8  H    0.226116
     9  H    0.277032
    10  H    0.271757
    11  H    0.225397
    12  N    0.493120
    13  O   -0.475937
    14  O   -0.454836
    15  C   -0.176652
    16  C   -0.220306
    17  C   -0.171972
    18  C    0.157254
    19  C   -0.172398
    20  C   -0.220883
    21  H    0.244192
    22  H    0.220380
    23  H    0.272449
    24  H    0.273224
    25  H    0.229936
    26  N    0.488263
    27  O   -0.462314
    28  O   -0.462999
 Sum of Mulliken charges =  -0.00000

 Dipole moment (field-independent basis, Debye):
    X=             -9.2291    Y=             -3.4478    Z=             -0.1737  Tot=              9.8536
 Quadrupole moment (field-independent basis, Debye-Ang):
   XX=           -116.3498   YY=           -101.0849   ZZ=           -104.7815
   XY=              5.8603   XZ=             19.0054   YZ=             -3.8664

 Normal termination of Gaussian 16 at Wed May  5 22:40:34 2021.
