 Gaussian 16, Revision A.03,
 Gaussian 16:  EM64L-G16RevA.03 25-Dec-2016

 -------------
 #p 6-31g* mp2
 -------------

 ------------------------------------------------------
 Input file generated by CHIRIPA (05-May-2021 14:55:22)
 ------------------------------------------------------
 Symbolic Z-matrix:
 Charge =  0 Multiplicity = 1

                         Standard orientation:
 ---------------------------------------------------------------------
 Center     Atomic      Atomic             Coordinates (Angstroms)
 Number     Number       Type             X           Y           Z
 ---------------------------------------------------------------------
      1          6           0        1.423700   -2.609398    0.972899
      2          6           0        2.697542   -2.059219    1.149397
      3          6           0        3.058680   -0.879383    0.492044
      4          6           0        2.116941   -0.273399   -0.338138
      5          6           0        0.839981   -0.797003   -0.534360
      6          6           0        0.500613   -1.977647    0.133065
      7          1           0        1.151615   -3.526237    1.487458
      8          1           0        3.416463   -2.547676    1.801016
      9          1           0        4.037964   -0.431788    0.610706
     10          1           0        0.144809   -0.287235   -1.190325
     11          1           0       -0.489391   -2.402652   -0.005890
     12          7           0        2.487738    0.976069   -1.039379
     13          8           0        1.639927    1.490650   -1.765368
     14          8           0        3.619159    1.417161   -0.849746
     15          6           0       -3.087527    0.382472   -0.282606
     16          6           0       -3.634513   -1.031436   -0.083465
     17          6           0       -4.545211   -1.479475   -1.227007
     18          1           0       -3.927785    1.083456   -0.380242
     19          1           0       -2.534148    0.423831   -1.231003
     20          1           0       -4.185523   -1.070474    0.864944
     21          1           0       -2.792855   -1.729108    0.013899
     22          1           0       -4.002973   -1.468952   -2.178042
     23          1           0       -5.403554   -0.806575   -1.322162
     24          1           0       -4.925035   -2.492933   -1.064232
     25          6           0       -2.175396    0.844605    0.852372
     26          6           0       -1.628410    2.258512    0.653232
     27          6           0       -0.717712    2.706551    1.796773
     28          1           0       -2.728775    0.803245    1.800770
     29          1           0       -1.335138    0.143620    0.950008
     30          1           0       -2.470068    2.956185    0.555868
     31          1           0       -1.077400    2.297550   -0.295177
     32          1           0        0.140632    2.033652    1.891928
     33          1           0       -1.259950    2.696028    2.747809
     34          1           0       -0.337887    3.720009    1.633998
 ---------------------------------------------------------------------

 SCF Done:  E(RHF) =  -669.534359435     A.U. after   15 cycles
 E2 =    -0.2095568967D+01 EUMP2 =    -0.67162992840238D+03

 The electronic state is 1-A.
 Alpha  occ. eigenvalues --  -20.60911 -20.60904 -15.85947 -11.31295 -11.27858
 Alpha  occ. eigenvalues --  -11.27854 -11.27587 -11.26855 -11.26828 -11.22296
 Alpha  occ. eigenvalues --  -11.21799 -11.21604 -11.21446 -11.21348 -11.20839
 Alpha  occ. eigenvalues --   -1.59970  -1.39525  -1.19475  -1.08863  -1.08722
 Alpha  occ. eigenvalues --   -1.04878  -1.03731  -0.96184  -0.95699  -0.87202
 Alpha  occ. eigenvalues --   -0.86265  -0.82547  -0.79861  -0.78462  -0.77590
 Alpha  occ. eigenvalues --   -0.72167  -0.71289  -0.70585  -0.65502  -0.65082
 Alpha  occ. eigenvalues --   -0.64893  -0.62142  -0.61140  -0.59576  -0.57767
 Alpha  occ. eigenvalues --   -0.55518  -0.55339  -0.53241  -0.53039  -0.52814
 Alpha  occ. eigenvalues --   -0.52555  -0.50148  -0.48934  -0.48925  -0.48135
 Alpha  occ. eigenvalues --   -0.46919  -0.45999  -0.45887  -0.44889  -0.43983
 Alpha  occ. eigenvalues --   -0.37444  -0.36353
 Alpha virt. eigenvalues --    0.04900   0.11099   0.16273   0.19048   0.23103
 Alpha virt. eigenvalues --    0.23714   0.25501   0.25558   0.27409   0.28473
 Alpha virt. eigenvalues --    0.29806   0.30936   0.31526   0.31656   0.32614

 Mulliken charges:
               1
     1  C   -0.171825
     2  C   -0.218630
     3  C   -0.170955
     4  C    0.158420
     5  C   -0.175425
     6  C   -0.223775
     7  H    0.226800
     8  H    0.223985
     9  H    0.276072
    10  H    0.281009
    11  H    0.232795
    12  N    0.488511
    13  O   -0.460995
    14  O   -0.459007
    15  C   -0.302095
    16  C   -0.302282
    17  C   -0.475558
    18  H    0.155034
    19  H    0.147705
    20  H    0.155682
    21  H    0.140010
    22  H    0.155458
    23  H    0.159396
    24  H    0.159945
    25  C   -0.308191
    26  C   -0.307176
    27  C   -0.474883
    28  H    0.149175
    29  H    0.152400
    30  H    0.151704
    31  H    0.166642
    32  H    0.152461
    33  H    0.152139
    34  H    0.165454
 Sum of Mulliken charges =  -0.00000

 Dipole moment (field-independent basis, Debye):
    X=             -1.2516    Y=             -4.3053    Z=              2.4275  Tot=              5.0985
 Quadrupole moment (field-independent basis, Debye-Ang):
   XX=            -95.6386   YY=            -92.8023   ZZ=            -96.6346
   XY=            -10.0430   XZ=              7.1817   YZ=              0.3626

 Normal termination of Gaussian 16 at Wed May  5 15:58:49 2021.
