 Gaussian 16, Revision A.03,
 Gaussian 16:  EM64L-G16RevA.03 25-Dec-2016

 -------------
 #p 6-31g* mp2
 -------------

 ------------------------------------------------------
 Input file generated by CHIRIPA (05-May-2021 14:55:25)
 ------------------------------------------------------
 Symbolic Z-matrix:
 Charge =  0 Multiplicity = 1

                         Standard orientation:
 ---------------------------------------------------------------------
 Center     Atomic      Atomic             Coordinates (Angstroms)
 Number     Number       Type             X           Y           Z
 ---------------------------------------------------------------------
      1          6           0       -2.520013    1.999254    0.108671
      2          6           0       -2.076187    0.697674    0.364460
      3          6           0       -2.963725   -0.380611    0.300225
      4          6           0       -4.294185   -0.119935   -0.024141
      5          6           0       -4.766733    1.165488   -0.284285
      6          6           0       -3.861505    2.228603   -0.214315
      7          1           0       -1.823681    2.831000    0.160798
      8          1           0       -1.034931    0.516583    0.615533
      9          1           0       -2.646913   -1.398287    0.493575
     10          1           0       -5.810655    1.314656   -0.532066
     11          1           0       -4.208993    3.238375   -0.413454
     12          7           0       -5.243146   -1.253437   -0.095180
     13          8           0       -6.410263   -0.997312   -0.383059
     14          8           0       -4.801855   -2.376539    0.138365
     15          6           0        5.996876   -0.152780    0.312905
     16          6           0        7.090607   -0.312790   -0.743567
     17          6           0        8.486447   -0.445993   -0.133908
     18          1           0        6.216025    0.731126    0.927420
     19          1           0        6.021295   -1.017960    0.989855
     20          1           0        7.063230    0.551762   -1.419154
     21          1           0        6.868726   -1.196308   -1.355760
     22          1           0        8.537326   -1.318797    0.525049
     23          1           0        8.732935    0.439205    0.461296
     24          1           0        9.252987   -0.559314   -0.906846
     25          6           0        4.595853   -0.018431   -0.281076
     26          6           0        3.502122    0.141578    0.775397
     27          6           0        2.106283    0.274781    0.165738
     28          1           0        4.571433    0.846749   -0.958026
     29          1           0        4.376703   -0.902338   -0.895590
     30          1           0        3.724002    1.025097    1.387590
     31          1           0        3.529498   -0.722974    1.450983
     32          1           0        1.859793   -0.610417   -0.429466
     33          1           0        2.055402    1.147585   -0.493220
     34          1           0        1.339741    0.388103    0.938676
 ---------------------------------------------------------------------

 SCF Done:  E(RHF) =  -669.535582649     A.U. after   15 cycles
 E2 =    -0.2090675955D+01 EUMP2 =    -0.67162625860389D+03

 The electronic state is 1-A.
 Alpha  occ. eigenvalues --  -20.60705 -20.60700 -15.85757 -11.31106 -11.27675
 Alpha  occ. eigenvalues --  -11.27657 -11.27404 -11.26692 -11.26627 -11.22400
 Alpha  occ. eigenvalues --  -11.22205 -11.21999 -11.21986 -11.21847 -11.21390
 Alpha  occ. eigenvalues --   -1.59780  -1.39334  -1.19273  -1.09015  -1.08672
 Alpha  occ. eigenvalues --   -1.04673  -1.04162  -0.96638  -0.95510  -0.87670
 Alpha  occ. eigenvalues --   -0.86069  -0.82343  -0.80234  -0.78786  -0.77392
 Alpha  occ. eigenvalues --   -0.71976  -0.71103  -0.70385  -0.65637  -0.64924
 Alpha  occ. eigenvalues --   -0.64701  -0.62057  -0.61549  -0.60027  -0.58221
 Alpha  occ. eigenvalues --   -0.55910  -0.55181  -0.53489  -0.53069  -0.53000
 Alpha  occ. eigenvalues --   -0.52616  -0.50562  -0.48733  -0.48732  -0.48541
 Alpha  occ. eigenvalues --   -0.47238  -0.46340  -0.46235  -0.44744  -0.44407
 Alpha  occ. eigenvalues --   -0.37256  -0.36275
 Alpha virt. eigenvalues --    0.05138   0.11368   0.16634   0.20338   0.22427
 Alpha virt. eigenvalues --    0.23756   0.25704   0.26109   0.26952   0.28206
 Alpha virt. eigenvalues --    0.28521   0.29911   0.30815   0.31438   0.32158

 Mulliken charges:
               1
     1  C   -0.173514
     2  C   -0.226031
     3  C   -0.173692
     4  C    0.158947
     5  C   -0.171465
     6  C   -0.218492
     7  H    0.225562
     8  H    0.236283
     9  H    0.275758
    10  H    0.275231
    11  H    0.222968
    12  N    0.488056
    13  O   -0.460770
    14  O   -0.460620
    15  C   -0.298835
    16  C   -0.300083
    17  C   -0.476028
    18  H    0.150032
    19  H    0.150796
    20  H    0.152157
    21  H    0.152955
    22  H    0.155947
    23  H    0.155394
    24  H    0.161490
    25  C   -0.299487
    26  C   -0.298814
    27  C   -0.481636
    28  H    0.149931
    29  H    0.151526
    30  H    0.153141
    31  H    0.154885
    32  H    0.159752
    33  H    0.156339
    34  H    0.152318
 Sum of Mulliken charges =  -0.00000

 Dipole moment (field-independent basis, Debye):
    X=              3.6033    Y=              3.9758    Z=              0.2254  Tot=              5.3704
 Quadrupole moment (field-independent basis, Debye-Ang):
   XX=           -121.4395   YY=            -93.0698   ZZ=            -95.4541
   XY=            -20.2212   XZ=             -0.4611   YZ=             -1.0299

 Normal termination of Gaussian 16 at Thu May  6 01:36:05 2021.
