 Gaussian 16, Revision A.03,
 Gaussian 16:  EM64L-G16RevA.03 25-Dec-2016

 -------------
 #p 6-31g* mp2
 -------------

 ------------------------------------------------------
 Input file generated by CHIRIPA (05-May-2021 14:51:11)
 ------------------------------------------------------
 Symbolic Z-matrix:
 Charge =  0 Multiplicity = 1

                         Standard orientation:
 ---------------------------------------------------------------------
 Center     Atomic      Atomic             Coordinates (Angstroms)
 Number     Number       Type             X           Y           Z
 ---------------------------------------------------------------------
      1          6           0       -4.704987   -0.005772    0.117721
      2          6           0       -5.362553   -1.279511   -0.414426
      3          6           0       -6.838966   -1.082681   -0.759764
      4          1           0       -5.249186    0.335350    1.009027
      5          1           0       -4.803940    0.790686   -0.632785
      6          1           0       -5.261174   -2.073718    0.336290
      7          1           0       -4.816609   -1.617748   -1.304458
      8          1           0       -6.955636   -0.309211   -1.525750
      9          1           0       -7.402727   -0.767772    0.124320
     10          1           0       -7.289240   -2.005640   -1.138261
     11          6           0       -3.228931   -0.186633    0.467400
     12          6           0       -2.571365    1.087106    0.999547
     13          6           0       -1.094953    0.890276    1.344885
     14          1           0       -3.129979   -0.983091    1.217906
     15          1           0       -2.684732   -0.527755   -0.423906
     16          1           0       -3.117309    1.425343    1.889579
     17          1           0       -2.672744    1.881313    0.248831
     18          1           0       -0.531191    0.575367    0.460801
     19          1           0       -0.978282    0.116806    2.110871
     20          1           0       -0.644678    1.813235    1.723382
     21          6           0        3.485149    0.400591   -0.801125
     22          6           0        2.411683    1.284789   -0.165634
     23          6           0        1.455403    1.886504   -1.195811
     24          1           0        4.054770    0.993008   -1.530178
     25          1           0        2.998363   -0.406359   -1.366164
     26          1           0        2.900362    2.089024    0.399180
     27          1           0        1.844676    0.690248    0.562130
     28          1           0        0.941474    1.096013   -1.752230
     29          1           0        2.003158    2.502737   -1.916105
     30          1           0        0.696197    2.514939   -0.719856
     31          6           0        4.448770   -0.208185    0.216004
     32          6           0        5.522236   -1.092385   -0.419487
     33          6           0        6.478514   -1.694099    0.610690
     34          1           0        4.935555    0.598763    0.781043
     35          1           0        3.879149   -0.800604    0.945057
     36          1           0        6.089242   -0.497843   -1.147250
     37          1           0        5.033556   -1.896619   -0.984301
     38          1           0        5.930760   -2.310331    1.330984
     39          1           0        6.992444   -0.903608    1.167108
     40          1           0        7.237721   -2.322535    0.134734
 ---------------------------------------------------------------------

 SCF Done:  E(RHF) =  -470.732126756     A.U. after   11 cycles
 E2 =    -0.1583445527D+01 EUMP2 =    -0.47231557228232D+03

 The electronic state is 1-A.
 Alpha  occ. eigenvalues --  -11.21602 -11.21581 -11.21575 -11.21495 -11.21403
 Alpha  occ. eigenvalues --  -11.21363 -11.21344 -11.21303 -11.21071 -11.21050
 Alpha  occ. eigenvalues --  -11.21026 -11.20991  -1.08436  -1.08379  -1.03586
 Alpha  occ. eigenvalues --   -1.03435  -0.96076  -0.95854  -0.87049  -0.86915
 Alpha  occ. eigenvalues --   -0.79639  -0.79514  -0.78260  -0.78175  -0.65138
 Alpha  occ. eigenvalues --   -0.64968  -0.61202  -0.60706  -0.59467  -0.59196
 Alpha  occ. eigenvalues --   -0.57585  -0.57575  -0.55509  -0.54965  -0.52751
 Alpha  occ. eigenvalues --   -0.52561  -0.52384  -0.52336  -0.49968  -0.49785
 Alpha  occ. eigenvalues --   -0.47985  -0.47799  -0.46668  -0.46524  -0.45845
 Alpha  occ. eigenvalues --   -0.45720  -0.45706  -0.45571  -0.43764  -0.43742
 Alpha virt. eigenvalues --    0.21674   0.23048   0.23556   0.25116   0.26436
 Alpha virt. eigenvalues --    0.26574   0.26934   0.27501   0.27796   0.29276
 Alpha virt. eigenvalues --    0.30113   0.31000   0.31461   0.31956   0.32382

 Mulliken charges:
               1
     1  C   -0.298281
     2  C   -0.299637
     3  C   -0.475706
     4  H    0.149677
     5  H    0.149652
     6  H    0.151851
     7  H    0.151871
     8  H    0.155234
     9  H    0.155184
    10  H    0.160226
    11  C   -0.298429
    12  C   -0.300577
    13  C   -0.480525
    14  H    0.149387
    15  H    0.149464
    16  H    0.151691
    17  H    0.152002
    18  H    0.163940
    19  H    0.153865
    20  H    0.160012
    21  C   -0.297592
    22  C   -0.305434
    23  C   -0.479512
    24  H    0.149321
    25  H    0.148810
    26  H    0.151434
    27  H    0.159603
    28  H    0.152874
    29  H    0.155858
    30  H    0.163931
    31  C   -0.298281
    32  C   -0.299593
    33  C   -0.475682
    34  H    0.149464
    35  H    0.149793
    36  H    0.151859
    37  H    0.151808
    38  H    0.155158
    39  H    0.155142
    40  H    0.160136
 Sum of Mulliken charges =  -0.00000

 Dipole moment (field-independent basis, Debye):
    X=             -0.0067    Y=              0.0068    Z=              0.0125  Tot=              0.0157
 Quadrupole moment (field-independent basis, Debye-Ang):
   XX=            -86.2752   YY=            -84.3267   ZZ=            -84.4165
   XY=              0.9516   XZ=             -1.0190   YZ=             -0.0101

 Normal termination of Gaussian 16 at Thu May  6 05:28:48 2021.
