 Gaussian 16, Revision A.03,
 Gaussian 16:  EM64L-G16RevA.03 25-Dec-2016

 -------------
 #p 6-31g* mp2
 -------------

 ------------------------------------------------------
 Input file generated by CHIRIPA (05-May-2021 14:55:22)
 ------------------------------------------------------
 Symbolic Z-matrix:
 Charge =  0 Multiplicity = 1

                         Standard orientation:
 ---------------------------------------------------------------------
 Center     Atomic      Atomic             Coordinates (Angstroms)
 Number     Number       Type             X           Y           Z
 ---------------------------------------------------------------------
      1          6           0        2.572274    2.528873    0.183589
      2          6           0        3.797882    2.255492   -0.432582
      3          6           0        4.215424    0.935676   -0.628270
      4          6           0        3.378659   -0.091018   -0.193512
      5          6           0        2.151962    0.149153    0.423596
      6          6           0        1.754667    1.476686    0.608962
      7          1           0        2.255782    3.557135    0.331595
      8          1           0        4.434897    3.070634   -0.763945
      9          1           0        5.159314    0.695616   -1.102465
     10          1           0        1.538553   -0.684498    0.743244
     11          1           0        0.802326    1.686018    1.087785
     12          7           0        3.809975   -1.492333   -0.395214
     13          8           0        3.054548   -2.379057   -0.003183
     14          8           0        4.895299   -1.677425   -0.941519
     15          6           0       -4.717714   -0.405448   -0.340686
     16          6           0       -5.910522    0.534052   -0.521057
     17          6           0       -6.869841    0.067863   -1.616580
     18          1           0       -4.176593   -0.487747   -1.293240
     19          1           0       -5.086107   -1.412877   -0.102426
     20          1           0       -5.539949    1.539719   -0.757544
     21          1           0       -6.448755    0.614275    0.432087
     22          1           0       -7.267382   -0.925236   -1.383521
     23          1           0       -6.353413    0.005466   -2.579912
     24          1           0       -7.715167    0.753960   -1.728624
     25          6           0       -3.749673    0.047212    0.750975
     26          6           0       -2.556865   -0.892287    0.931346
     27          6           0       -1.597546   -0.426098    2.026868
     28          1           0       -3.381280    1.054642    0.512715
     29          1           0       -4.290794    0.129511    1.703529
     30          1           0       -2.018632   -0.972510   -0.021799
     31          1           0       -2.927438   -1.897955    1.167832
     32          1           0       -2.113975   -0.363702    2.990201
     33          1           0       -1.200006    0.567001    1.793810
     34          1           0       -0.752221   -1.112195    2.138913
 ---------------------------------------------------------------------

 SCF Done:  E(RHF) =  -669.535362756     A.U. after   15 cycles
 E2 =    -0.2091407942D+01 EUMP2 =    -0.67162677069830D+03

 The electronic state is 1-A.
 Alpha  occ. eigenvalues --  -20.60730 -20.60725 -15.85781 -11.31127 -11.27703
 Alpha  occ. eigenvalues --  -11.27671 -11.27443 -11.26720 -11.26674 -11.22178
 Alpha  occ. eigenvalues --  -11.21998 -11.21909 -11.21885 -11.21719 -11.21301
 Alpha  occ. eigenvalues --   -1.59805  -1.39359  -1.19301  -1.08885  -1.08702
 Alpha  occ. eigenvalues --   -1.04702  -1.04022  -0.96500  -0.95538  -0.87521
 Alpha  occ. eigenvalues --   -0.86103  -0.82371  -0.80084  -0.78666  -0.77418
 Alpha  occ. eigenvalues --   -0.72001  -0.71127  -0.70417  -0.65529  -0.64952
 Alpha  occ. eigenvalues --   -0.64725  -0.62154  -0.61344  -0.59862  -0.58086
 Alpha  occ. eigenvalues --   -0.55816  -0.55191  -0.53199  -0.53063  -0.53033
 Alpha  occ. eigenvalues --   -0.52645  -0.50423  -0.48759  -0.48755  -0.48389
 Alpha  occ. eigenvalues --   -0.47099  -0.46215  -0.46122  -0.44768  -0.44260
 Alpha  occ. eigenvalues --   -0.37289  -0.36302
 Alpha virt. eigenvalues --    0.05109   0.11345   0.16595   0.19516   0.22738
 Alpha virt. eigenvalues --    0.23730   0.25201   0.26195   0.26588   0.27723
 Alpha virt. eigenvalues --    0.28906   0.29969   0.31408   0.31602   0.32471

 Mulliken charges:
               1
     1  C   -0.171511
     2  C   -0.218765
     3  C   -0.170692
     4  C    0.158946
     5  C   -0.176639
     6  C   -0.224297
     7  H    0.225648
     8  H    0.223118
     9  H    0.275342
    10  H    0.280364
    11  H    0.230029
    12  N    0.487971
    13  O   -0.460664
    14  O   -0.460641
    15  C   -0.298943
    16  C   -0.299868
    17  C   -0.476010
    18  H    0.151110
    19  H    0.151682
    20  H    0.150986
    21  H    0.152282
    22  H    0.156313
    23  H    0.155911
    24  H    0.160806
    25  C   -0.298355
    26  C   -0.300435
    27  C   -0.483893
    28  H    0.146316
    29  H    0.150824
    30  H    0.154382
    31  H    0.157774
    32  H    0.161461
    33  H    0.145694
    34  H    0.163755
 Sum of Mulliken charges =  -0.00000

 Dipole moment (field-independent basis, Debye):
    X=             -1.7119    Y=              4.8498    Z=              0.7167  Tot=              5.1928
 Quadrupole moment (field-independent basis, Debye-Ang):
   XX=           -101.4901   YY=            -95.4248   ZZ=            -94.8372
   XY=             18.9270   XZ=             -0.4197   YZ=             -2.4726

 Normal termination of Gaussian 16 at Thu May  6 17:33:52 2021.
