 Gaussian 16, Revision A.03,
 Gaussian 16:  EM64L-G16RevA.03 25-Dec-2016

 -------------
 #p 6-31g* mp2
 -------------

 ------------------------------------------------------
 Input file generated by CHIRIPA (05-May-2021 14:57:21)
 ------------------------------------------------------
 Symbolic Z-matrix:
 Charge =  0 Multiplicity = 1

                         Standard orientation:
 ---------------------------------------------------------------------
 Center     Atomic      Atomic             Coordinates (Angstroms)
 Number     Number       Type             X           Y           Z
 ---------------------------------------------------------------------
      1          6           0       -3.599726    2.580565    0.164082
      2          6           0       -3.313615    1.919812    1.363277
      3          6           0       -3.062815    0.544481    1.373801
      4          6           0       -3.106493   -0.142118    0.161381
      5          6           0       -3.388677    0.487853   -1.049734
      6          6           0       -3.636280    1.863740   -1.036479
      7          1           0       -3.793312    3.649171    0.165143
      8          1           0       -3.284556    2.473955    2.297153
      9          1           0       -2.838779    0.007930    2.287771
     10          1           0       -3.410570   -0.091434   -1.964810
     11          1           0       -3.858212    2.374267   -1.969299
     12          7           0       -2.842674   -1.598414    0.159935
     13          8           0       -2.887127   -2.180607   -0.921597
     14          8           0       -2.596435   -2.130091    1.240363
     15          6           0        1.142403   -1.489565   -0.793160
     16          6           0        1.332137   -0.230959   -1.373189
     17          6           0        2.440863    0.548789   -1.030745
     18          6           0        3.344058    0.036644   -0.100564
     19          6           0        3.182628   -1.213508    0.494708
     20          6           0        2.066625   -1.975965    0.137297
     21          1           0        0.278291   -2.088575   -1.064992
     22          1           0        0.616005    0.149332   -2.096084
     23          1           0        2.612110    1.526536   -1.464453
     24          1           0        3.913686   -1.565769    1.212263
     25          1           0        1.921827   -2.953061    0.589362
     26          7           0        4.521668    0.852976    0.269889
     27          8           0        5.302878    0.379123    1.091967
     28          8           0        4.641172    1.951213   -0.268843
 ---------------------------------------------------------------------

 SCF Done:  E(RHF) =  -868.339922895     A.U. after   16 cycles
 E2 =    -0.2599143722D+01 EUMP2 =    -0.87093906661634D+03

 The electronic state is 1-A.
 Alpha  occ. eigenvalues --  -20.61850 -20.61810 -20.60536 -20.60525 -15.86850
 Alpha  occ. eigenvalues --  -15.85583 -11.31966 -11.30819 -11.28532 -11.28462
 Alpha  occ. eigenvalues --  -11.28164 -11.27466 -11.27414 -11.27408 -11.27345
 Alpha  occ. eigenvalues --  -11.26924 -11.26367 -11.26247  -1.60905  -1.59613
 Alpha  occ. eigenvalues --   -1.40461  -1.39170  -1.20108  -1.18965  -1.09545
 Alpha  occ. eigenvalues --   -1.08353  -1.05469  -1.04356  -0.96422  -0.95215
 Alpha  occ. eigenvalues --   -0.86876  -0.85739  -0.83259  -0.82062  -0.78345
 Alpha  occ. eigenvalues --   -0.77155  -0.73066  -0.72249  -0.71801  -0.71198
 Alpha  occ. eigenvalues --   -0.70936  -0.69956  -0.65757  -0.65458  -0.64601
 Alpha  occ. eigenvalues --   -0.64338  -0.62818  -0.61713  -0.55959  -0.54732
 Alpha  occ. eigenvalues --   -0.53810  -0.53550  -0.52688  -0.52430  -0.49847
 Alpha  occ. eigenvalues --   -0.49808  -0.48566  -0.48546  -0.45911  -0.44605
 Alpha  occ. eigenvalues --   -0.38067  -0.37066  -0.36894  -0.35974
 Alpha virt. eigenvalues --    0.04129   0.05381   0.10575   0.11691   0.15686
 Alpha virt. eigenvalues --    0.16911   0.20763   0.21974   0.26685   0.27494
 Alpha virt. eigenvalues --    0.27848   0.28874   0.30496   0.31555   0.31865

 Mulliken charges:
               1
     1  C   -0.169591
     2  C   -0.217878
     3  C   -0.169113
     4  C    0.158043
     5  C   -0.175184
     6  C   -0.218964
     7  H    0.229081
     8  H    0.227246
     9  H    0.277391
    10  H    0.273758
    11  H    0.225193
    12  N    0.486680
    13  O   -0.466571
    14  O   -0.456901
    15  C   -0.180185
    16  C   -0.219965
    17  C   -0.172171
    18  C    0.157443
    19  C   -0.172050
    20  C   -0.218066
    21  H    0.242833
    22  H    0.219564
    23  H    0.272144
    24  H    0.274567
    25  H    0.228623
    26  N    0.488167
    27  O   -0.461044
    28  O   -0.463051
 Sum of Mulliken charges =  -0.00000

 Dipole moment (field-independent basis, Debye):
    X=             -5.3559    Y=              2.2493    Z=             -1.1377  Tot=              5.9194
 Quadrupole moment (field-independent basis, Debye-Ang):
   XX=           -127.9665   YY=           -104.2925   ZZ=            -98.1238
   XY=            -27.8305   XZ=             -2.5323   YZ=             -1.3483

 Normal termination of Gaussian 16 at Thu May  6 03:16:36 2021.
