 Gaussian 16, Revision A.03,
 Gaussian 16:  EM64L-G16RevA.03 25-Dec-2016

 -------------
 #p 6-31g* mp2
 -------------

 ------------------------------------------------------
 Input file generated by CHIRIPA (05-May-2021 14:57:23)
 ------------------------------------------------------
 Symbolic Z-matrix:
 Charge =  0 Multiplicity = 1

                         Standard orientation:
 ---------------------------------------------------------------------
 Center     Atomic      Atomic             Coordinates (Angstroms)
 Number     Number       Type             X           Y           Z
 ---------------------------------------------------------------------
      1          6           0       -0.281234   -1.496447    0.911686
      2          6           0       -0.886632   -1.892277   -0.285533
      3          6           0       -2.122351   -1.360507   -0.666015
      4          6           0       -2.727301   -0.430887    0.178458
      5          6           0       -2.149440   -0.016526    1.377487
      6          6           0       -0.913455   -0.561483    1.737918
      7          1           0        0.678806   -1.914662    1.199465
      8          1           0       -0.397948   -2.618206   -0.929163
      9          1           0       -2.613366   -1.649309   -1.587381
     10          1           0       -2.660898    0.708976    1.998354
     11          1           0       -0.445635   -0.252228    2.668268
     12          7           0       -4.035642    0.139055   -0.213728
     13          8           0       -4.548077    0.956481    0.547759
     14          8           0       -4.523912   -0.242442   -1.275184
     15          6           0        0.527405    2.037303   -0.618609
     16          6           0        1.169844    2.020872    0.623777
     17          6           0        2.270206    1.186823    0.843123
     18          6           0        2.703502    0.378599   -0.206791
     19          6           0        2.084533    0.372452   -1.455843
     20          6           0        0.985992    1.214491   -1.652631
     21          1           0       -0.326675    2.688315   -0.780242
     22          1           0        0.815883    2.658809    1.428633
     23          1           0        2.786185    1.154233    1.795027
     24          1           0        2.460384   -0.274745   -2.238971
     25          1           0        0.489018    1.225169   -2.618523
     26          7           0        3.867443   -0.508600    0.013480
     27          8           0        4.229754   -1.211132   -0.927698
     28          8           0        4.395388   -0.484657    1.123137
 ---------------------------------------------------------------------

 SCF Done:  E(RHF) =  -868.336352962     A.U. after   16 cycles
 E2 =    -0.2605842207D+01 EUMP2 =    -0.87094219516945D+03

 The electronic state is 1-A.
 Alpha  occ. eigenvalues --  -20.61553 -20.61547 -20.61269 -20.61261 -15.86599
 Alpha  occ. eigenvalues --  -15.86316 -11.31838 -11.31586 -11.28372 -11.28367
 Alpha  occ. eigenvalues --  -11.28117 -11.28094 -11.27998 -11.27748 -11.27358
 Alpha  occ. eigenvalues --  -11.27324 -11.27120 -11.27084  -1.60643  -1.60351
 Alpha  occ. eigenvalues --   -1.40194  -1.39905  -1.20024  -1.19700  -1.09393
 Alpha  occ. eigenvalues --   -1.09130  -1.05414  -1.05095  -0.96259  -0.95977
 Alpha  occ. eigenvalues --   -0.86776  -0.86525  -0.83098  -0.82823  -0.78182
 Alpha  occ. eigenvalues --   -0.77903  -0.72805  -0.72529  -0.72012  -0.71689
 Alpha  occ. eigenvalues --   -0.71059  -0.70787  -0.65634  -0.65396  -0.65354
 Alpha  occ. eigenvalues --   -0.65133  -0.62753  -0.62473  -0.55816  -0.55589
 Alpha  occ. eigenvalues --   -0.54744  -0.53464  -0.53221  -0.52416  -0.49578
 Alpha  occ. eigenvalues --   -0.49555  -0.49296  -0.49279  -0.45619  -0.45332
 Alpha  occ. eigenvalues --   -0.38184  -0.37872  -0.37378  -0.35750
 Alpha virt. eigenvalues --    0.04288   0.04629   0.10554   0.10962   0.15444
 Alpha virt. eigenvalues --    0.16611   0.20386   0.21437   0.25905   0.27475
 Alpha virt. eigenvalues --    0.27757   0.27952   0.30218   0.31022   0.31671

 Mulliken charges:
               1
     1  C   -0.166776
     2  C   -0.216830
     3  C   -0.175348
     4  C    0.156974
     5  C   -0.177449
     6  C   -0.211762
     7  H    0.230305
     8  H    0.225900
     9  H    0.274461
    10  H    0.272520
    11  H    0.220733
    12  N    0.487139
    13  O   -0.461805
    14  O   -0.460276
    15  C   -0.166678
    16  C   -0.213799
    17  C   -0.179280
    18  C    0.156046
    19  C   -0.174136
    20  C   -0.213733
    21  H    0.231347
    22  H    0.222821
    23  H    0.273316
    24  H    0.274663
    25  H    0.226760
    26  N    0.485885
    27  O   -0.459906
    28  O   -0.461091
 Sum of Mulliken charges =  -0.00000

 Dipole moment (field-independent basis, Debye):
    X=              0.5445    Y=              1.1620    Z=              0.5081  Tot=              1.3801
 Quadrupole moment (field-independent basis, Debye-Ang):
   XX=           -154.6528   YY=            -99.4674   ZZ=            -96.3668
   XY=             10.5464   XZ=             -3.8949   YZ=              2.3522

 Normal termination of Gaussian 16 at Thu May  6 08:11:14 2021.
