 Gaussian 16, Revision A.03,
 Gaussian 16:  EM64L-G16RevA.03 25-Dec-2016

 -------------
 #p 6-31g* mp2
 -------------

 ------------------------------------------------------
 Input file generated by CHIRIPA (05-May-2021 14:55:24)
 ------------------------------------------------------
 Symbolic Z-matrix:
 Charge =  0 Multiplicity = 1

                         Standard orientation:
 ---------------------------------------------------------------------
 Center     Atomic      Atomic             Coordinates (Angstroms)
 Number     Number       Type             X           Y           Z
 ---------------------------------------------------------------------
      1          6           0       -1.236183   -2.071641    1.244269
      2          6           0       -2.233190   -1.354548    1.913804
      3          6           0       -2.929562   -0.331121    1.264027
      4          6           0       -2.601704   -0.050050   -0.061415
      5          6           0       -1.613540   -0.746532   -0.755486
      6          6           0       -0.930080   -1.765883   -0.085894
      7          1           0       -0.700240   -2.865081    1.756727
      8          1           0       -2.473030   -1.589825    2.946842
      9          1           0       -3.705980    0.239889    1.758538
     10          1           0       -1.396753   -0.489033   -1.785106
     11          1           0       -0.156271   -2.321124   -0.608361
     12          7           0       -3.332087    1.031250   -0.759793
     13          8           0       -3.024418    1.259486   -1.927648
     14          8           0       -4.198401    1.630061   -0.126103
     15          6           0        3.051605   -0.253070   -0.588950
     16          6           0        3.355169   -1.661186   -0.076071
     17          6           0        3.101244   -2.741092   -1.128268
     18          1           0        2.004423   -0.207398   -0.917995
     19          1           0        3.667247   -0.053142   -1.476875
     20          1           0        2.740147   -1.857882    0.811438
     21          1           0        4.401696   -1.703458    0.251969
     22          1           0        3.725559   -2.572572   -2.011690
     23          1           0        2.054568   -2.727873   -1.449042
     24          1           0        3.324647   -3.739876   -0.740478
     25          6           0        3.300595    0.837418    0.451514
     26          6           0        2.997031    2.245533   -0.061365
     27          6           0        3.250955    3.325439    0.990833
     28          1           0        2.684953    0.637489    1.339438
     29          1           0        4.347776    0.791745    0.780558
     30          1           0        1.950503    2.287806   -0.389405
     31          1           0        3.612053    2.442230   -0.948875
     32          1           0        4.297631    3.312221    1.311605
     33          1           0        2.626641    3.156920    1.874254
     34          1           0        3.027553    4.324224    0.603042
 ---------------------------------------------------------------------

 SCF Done:  E(RHF) =  -669.535584955     A.U. after   15 cycles
 E2 =    -0.2092090418D+01 EUMP2 =    -0.67162767537329D+03

 The electronic state is 1-A.
 Alpha  occ. eigenvalues --  -20.60806 -20.60801 -15.85860 -11.31245 -11.27819
 Alpha  occ. eigenvalues --  -11.27815 -11.27557 -11.26833 -11.26815 -11.22361
 Alpha  occ. eigenvalues --  -11.22046 -11.21919 -11.21785 -11.21713 -11.21182
 Alpha  occ. eigenvalues --   -1.59882  -1.39434  -1.19421  -1.08914  -1.08805
 Alpha  occ. eigenvalues --   -1.04827  -1.04025  -0.96482  -0.95640  -0.87500
 Alpha  occ. eigenvalues --   -0.86220  -0.82475  -0.80101  -0.78674  -0.77519
 Alpha  occ. eigenvalues --   -0.72077  -0.71206  -0.70521  -0.65624  -0.65071
 Alpha  occ. eigenvalues --   -0.64795  -0.62234  -0.61356  -0.59872  -0.58067
 Alpha  occ. eigenvalues --   -0.55811  -0.55307  -0.53179  -0.53148  -0.53010
 Alpha  occ. eigenvalues --   -0.52797  -0.50437  -0.48839  -0.48832  -0.48401
 Alpha  occ. eigenvalues --   -0.47138  -0.46223  -0.46115  -0.44836  -0.44253
 Alpha  occ. eigenvalues --   -0.37396  -0.36414
 Alpha virt. eigenvalues --    0.04991   0.11165   0.16381   0.19291   0.22959
 Alpha virt. eigenvalues --    0.23832   0.25469   0.26361   0.26980   0.28421
 Alpha virt. eigenvalues --    0.28859   0.29916   0.31102   0.31544   0.32050

 Mulliken charges:
               1
     1  C   -0.173889
     2  C   -0.218524
     3  C   -0.170922
     4  C    0.158670
     5  C   -0.174207
     6  C   -0.223474
     7  H    0.226629
     8  H    0.223718
     9  H    0.275863
    10  H    0.276281
    11  H    0.233990
    12  N    0.488069
    13  O   -0.460170
    14  O   -0.460315
    15  C   -0.298979
    16  C   -0.300574
    17  C   -0.478748
    18  H    0.147280
    19  H    0.151863
    20  H    0.147290
    21  H    0.156007
    22  H    0.161663
    23  H    0.145540
    24  H    0.161805
    25  C   -0.298340
    26  C   -0.300726
    27  C   -0.476025
    28  H    0.149489
    29  H    0.149979
    30  H    0.155303
    31  H    0.152706
    32  H    0.154534
    33  H    0.155165
    34  H    0.163047
 Sum of Mulliken charges =  -0.00000

 Dipole moment (field-independent basis, Debye):
    X=              2.6565    Y=             -3.7291    Z=              2.4755  Tot=              5.2049
 Quadrupole moment (field-independent basis, Debye-Ang):
   XX=           -105.8799   YY=            -95.6377   ZZ=            -92.1626
   XY=              9.3188   XZ=             -9.7416   YZ=              0.2079

 Normal termination of Gaussian 16 at Thu May  6 01:35:08 2021.
