 Gaussian 16, Revision A.03,
 Gaussian 16:  EM64L-G16RevA.03 25-Dec-2016

 -------------
 #p 6-31g* mp2
 -------------

 ------------------------------------------------------
 Input file generated by CHIRIPA (05-May-2021 14:55:21)
 ------------------------------------------------------
 Symbolic Z-matrix:
 Charge =  0 Multiplicity = 1

                         Standard orientation:
 ---------------------------------------------------------------------
 Center     Atomic      Atomic             Coordinates (Angstroms)
 Number     Number       Type             X           Y           Z
 ---------------------------------------------------------------------
      1          6           0        4.158202    1.706192   -1.004581
      2          6           0        4.447931    0.337796   -0.996215
      3          6           0        3.675214   -0.546940   -0.238127
      4          6           0        2.615460   -0.026687    0.503188
      5          6           0        2.301708    1.331511    0.515411
      6          6           0        3.087902    2.197815   -0.250071
      7          1           0        4.763702    2.386317   -1.596354
      8          1           0        5.278529   -0.046821   -1.581214
      9          1           0        3.877376   -1.610868   -0.213510
     10          1           0        1.467283    1.685252    1.108724
     11          1           0        2.860574    3.260051   -0.254666
     12          7           0        1.790285   -0.953561    1.309656
     13          8           0        0.862080   -0.470174    1.954180
     14          8           0        2.087342   -2.145881    1.281972
     15          6           0       -3.828809    0.417319   -0.081096
     16          6           0       -5.354000    0.350590    0.004501
     17          6           0       -5.953315    1.515103    0.793505
     18          1           0       -3.410984    0.427263    0.934910
     19          1           0       -3.535999    1.367538   -0.548793
     20          1           0       -5.643890   -0.599827    0.470641
     21          1           0       -5.768235    0.340611   -1.011828
     22          1           0       -5.692900    2.470828    0.327269
     23          1           0       -5.567849    1.525045    1.818160
     24          1           0       -7.044611    1.447586    0.842209
     25          6           0       -3.214924   -0.740066   -0.866801
     26          6           0       -1.689734   -0.673338   -0.952398
     27          6           0       -1.090419   -1.837850   -1.741402
     28          1           0       -3.507735   -1.690285   -0.399104
     29          1           0       -3.632749   -0.750010   -1.882807
     30          1           0       -1.275499   -0.663358    0.063931
     31          1           0       -1.399843    0.277080   -1.418537
     32          1           0       -1.475884   -1.847792   -2.766057
     33          1           0       -1.350833   -2.793575   -1.275165
     34          1           0        0.000879   -1.770333   -1.790105
 ---------------------------------------------------------------------

 SCF Done:  E(RHF) =  -669.536483778     A.U. after   15 cycles
 E2 =    -0.2091743532D+01 EUMP2 =    -0.67162822731048D+03

 The electronic state is 1-A.
 Alpha  occ. eigenvalues --  -20.60949 -20.60941 -15.85965 -11.31273 -11.27834
 Alpha  occ. eigenvalues --  -11.27825 -11.27568 -11.26835 -11.26825 -11.21163
 Alpha  occ. eigenvalues --  -11.20851 -11.20819 -11.20745 -11.20714 -11.20453
 Alpha  occ. eigenvalues --   -1.59998  -1.39556  -1.19436  -1.08845  -1.07856
 Alpha  occ. eigenvalues --   -1.04829  -1.02978  -0.95689  -0.95449  -0.86464
 Alpha  occ. eigenvalues --   -0.86231  -0.82525  -0.79045  -0.77682  -0.77564
 Alpha  occ. eigenvalues --   -0.72191  -0.71310  -0.70545  -0.65093  -0.64833
 Alpha  occ. eigenvalues --   -0.64474  -0.62176  -0.60357  -0.58825  -0.57063
 Alpha  occ. eigenvalues --   -0.55337  -0.54727  -0.53161  -0.52922  -0.52156
 Alpha  occ. eigenvalues --   -0.51878  -0.49384  -0.48958  -0.48948  -0.47392
 Alpha  occ. eigenvalues --   -0.46120  -0.45375  -0.45186  -0.44603  -0.43229
 Alpha  occ. eigenvalues --   -0.37411  -0.36427
 Alpha virt. eigenvalues --    0.04918   0.11211   0.16382   0.21337   0.23432
 Alpha virt. eigenvalues --    0.24687   0.27221   0.27253   0.27794   0.28337
 Alpha virt. eigenvalues --    0.28560   0.30837   0.31962   0.32040   0.32215

 Mulliken charges:
               1
     1  C   -0.170477
     2  C   -0.218544
     3  C   -0.171363
     4  C    0.158715
     5  C   -0.170168
     6  C   -0.218703
     7  H    0.225937
     8  H    0.223792
     9  H    0.275929
    10  H    0.276228
    11  H    0.223828
    12  N    0.488433
    13  O   -0.459452
    14  O   -0.458340
    15  C   -0.299044
    16  C   -0.299279
    17  C   -0.475500
    18  H    0.155438
    19  H    0.145015
    20  H    0.152921
    21  H    0.150040
    22  H    0.152946
    23  H    0.156232
    24  H    0.158960
    25  C   -0.297172
    26  C   -0.312222
    27  C   -0.473680
    28  H    0.151688
    29  H    0.145803
    30  H    0.173205
    31  H    0.143383
    32  H    0.150515
    33  H    0.160437
    34  H    0.154498
 Sum of Mulliken charges =  -0.00000

 Dipole moment (field-independent basis, Debye):
    X=              3.0650    Y=              3.2080    Z=             -2.6769  Tot=              5.1818
 Quadrupole moment (field-independent basis, Debye-Ang):
   XX=            -79.1037   YY=            -92.4544   ZZ=            -97.7185
   XY=              6.7967   XZ=             -7.1022   YZ=              2.0199

 Normal termination of Gaussian 16 at Thu May  6 09:20:05 2021.
