 Gaussian 16, Revision A.03,
 Gaussian 16:  EM64L-G16RevA.03 25-Dec-2016

 -------------
 #p 6-31g* mp2
 -------------

 ------------------------------------------------------
 Input file generated by CHIRIPA (05-May-2021 14:51:09)
 ------------------------------------------------------
 Symbolic Z-matrix:
 Charge =  0 Multiplicity = 1

                         Standard orientation:
 ---------------------------------------------------------------------
 Center     Atomic      Atomic             Coordinates (Angstroms)
 Number     Number       Type             X           Y           Z
 ---------------------------------------------------------------------
      1          6           0        3.892106   -0.125384   -0.477683
      2          6           0        5.417465   -0.228755   -0.453642
      3          6           0        6.072885    0.414142   -1.676305
      4          1           0        3.513001   -0.602209   -1.391938
      5          1           0        3.604174    0.933489   -0.534944
      6          1           0        5.702416   -1.287049   -0.395049
      7          1           0        5.792969    0.248203    0.460755
      8          1           0        5.817501    1.477067   -1.736053
      9          1           0        5.726433   -0.066908   -2.596720
     10          1           0        7.163372    0.328829   -1.638645
     11          6           0        3.222419   -0.763568    0.738034
     12          6           0        1.697060   -0.660196    0.713993
     13          6           0        1.041640   -1.303093    1.936655
     14          1           0        3.510351   -1.822441    0.795294
     15          1           0        3.601523   -0.286742    1.652289
     16          1           0        1.321555   -1.137155   -0.200405
     17          1           0        1.412109    0.398097    0.655399
     18          1           0        1.388092   -0.822044    2.857070
     19          1           0        1.297024   -2.366019    1.996403
     20          1           0       -0.048848   -1.217780    1.898995
     21          6           0       -4.021718    0.190557   -0.680847
     22          6           0       -5.068914   -0.804594   -0.179810
     23          6           0       -5.990603   -1.303511   -1.293080
     24          1           0       -4.530798    1.044826   -1.147759
     25          1           0       -3.421888   -0.284869   -1.469243
     26          1           0       -5.665691   -0.327893    0.608371
     27          1           0       -4.557287   -1.656502    0.286134
     28          1           0       -5.412348   -1.803344   -2.076910
     29          1           0       -6.527049   -0.467184   -1.752843
     30          1           0       -6.731416   -2.013767   -0.912828
     31          6           0       -3.092807    0.698394    0.420495
     32          6           0       -2.045610    1.693546   -0.080540
     33          6           0       -1.123922    2.192463    1.032730
     34          1           0       -3.692637    1.173820    1.208891
     35          1           0       -2.583727   -0.155875    0.887408
     36          1           0       -2.557238    2.545454   -0.546485
     37          1           0       -1.448835    1.216844   -0.868721
     38          1           0       -0.587475    1.356136    1.492493
     39          1           0       -1.702177    2.692295    1.816560
     40          1           0       -0.383109    2.902718    0.652476
 ---------------------------------------------------------------------

 SCF Done:  E(RHF) =  -470.732842211     A.U. after   11 cycles
 E2 =    -0.1583460555D+01 EUMP2 =    -0.47231630276644D+03

 The electronic state is 1-A.
 Alpha  occ. eigenvalues --  -11.21608 -11.21601 -11.21590 -11.21584 -11.21414
 Alpha  occ. eigenvalues --  -11.21410 -11.21355 -11.21350 -11.21136 -11.21076
 Alpha  occ. eigenvalues --  -11.21070 -11.21014  -1.08459  -1.08414  -1.03596
 Alpha  occ. eigenvalues --   -1.03483  -0.96044  -0.95941  -0.87022  -0.86994
 Alpha  occ. eigenvalues --   -0.79638  -0.79565  -0.78267  -0.78233  -0.65159
 Alpha  occ. eigenvalues --   -0.65001  -0.61179  -0.60772  -0.59399  -0.59300
 Alpha  occ. eigenvalues --   -0.57680  -0.57527  -0.55432  -0.55102  -0.52711
 Alpha  occ. eigenvalues --   -0.52671  -0.52453  -0.52368  -0.49993  -0.49880
 Alpha  occ. eigenvalues --   -0.47926  -0.47894  -0.46769  -0.46478  -0.45820
 Alpha  occ. eigenvalues --   -0.45781  -0.45717  -0.45616  -0.43804  -0.43777
 Alpha virt. eigenvalues --    0.20404   0.23070   0.23600   0.25034   0.25856
 Alpha virt. eigenvalues --    0.26552   0.26772   0.27586   0.27956   0.29108
 Alpha virt. eigenvalues --    0.30589   0.31344   0.31464   0.31814   0.31987

 Mulliken charges:
               1
     1  C   -0.298349
     2  C   -0.299670
     3  C   -0.475721
     4  H    0.149498
     5  H    0.149707
     6  H    0.151926
     7  H    0.152025
     8  H    0.155217
     9  H    0.155143
    10  H    0.160289
    11  C   -0.297675
    12  C   -0.305858
    13  C   -0.479972
    14  H    0.149351
    15  H    0.149771
    16  H    0.151271
    17  H    0.159025
    18  H    0.155924
    19  H    0.156055
    20  H    0.161596
    21  C   -0.298236
    22  C   -0.299694
    23  C   -0.475704
    24  H    0.149782
    25  H    0.149592
    26  H    0.151966
    27  H    0.151924
    28  H    0.155165
    29  H    0.155187
    30  H    0.160275
    31  C   -0.300954
    32  C   -0.299871
    33  C   -0.482789
    34  H    0.149710
    35  H    0.151160
    36  H    0.151938
    37  H    0.152938
    38  H    0.164175
    39  H    0.154973
    40  H    0.158913
 Sum of Mulliken charges =  -0.00000

 Dipole moment (field-independent basis, Debye):
    X=              0.0127    Y=              0.0019    Z=              0.0053  Tot=              0.0139
 Quadrupole moment (field-independent basis, Debye-Ang):
   XX=            -85.3190   YY=            -83.8258   ZZ=            -85.6604
   XY=             -1.0183   XZ=             -0.0666   YZ=              0.6307

 Normal termination of Gaussian 16 at Thu May  6 00:34:20 2021.
