 Gaussian 16, Revision A.03,
 Gaussian 16:  EM64L-G16RevA.03 25-Dec-2016

 -------------
 #p 6-31g* mp2
 -------------

 ------------------------------------------------------
 Input file generated by CHIRIPA (05-May-2021 14:57:24)
 ------------------------------------------------------
 Symbolic Z-matrix:
 Charge =  0 Multiplicity = 1

                         Standard orientation:
 ---------------------------------------------------------------------
 Center     Atomic      Atomic             Coordinates (Angstroms)
 Number     Number       Type             X           Y           Z
 ---------------------------------------------------------------------
      1          6           0        1.534286   -1.584635    0.675599
      2          6           0        1.809620   -0.368074    1.308599
      3          6           0        2.968766    0.348435    0.996279
      4          6           0        3.834546   -0.183389    0.041879
      5          6           0        3.588020   -1.392794   -0.606082
      6          6           0        2.422798   -2.092218   -0.278040
      7          1           0        0.631473   -2.134601    0.924323
      8          1           0        1.121390    0.028536    2.049602
      9          1           0        3.206448    1.292626    1.471073
     10          1           0        4.293054   -1.762712   -1.340592
     11          1           0        2.211540   -3.036768   -0.771235
     12          7           0        5.064898    0.566103   -0.297082
     13          8           0        5.811633    0.076085   -1.141419
     14          8           0        5.259216    1.629382    0.287997
     15          6           0       -2.019142    2.247362   -0.102078
     16          6           0       -3.391104    2.477038   -0.248669
     17          6           0       -4.293798    1.409474   -0.247733
     18          6           0       -3.787672    0.119319   -0.097325
     19          6           0       -2.426361   -0.141809    0.050785
     20          6           0       -1.541990    0.940975    0.046919
     21          1           0       -1.325025    3.082583   -0.103942
     22          1           0       -3.764509    3.490538   -0.364564
     23          1           0       -5.360876    1.558785   -0.359406
     24          1           0       -2.084081   -1.163255    0.164405
     25          1           0       -0.477025    0.759619    0.160956
     26          7           0       -4.733615   -1.018919   -0.094783
     27          8           0       -4.262432   -2.146144    0.039338
     28          8           0       -5.928315   -0.762292   -0.226961
 ---------------------------------------------------------------------

 SCF Done:  E(RHF) =  -868.337168130     A.U. after   16 cycles
 E2 =    -0.2601303067D+01 EUMP2 =    -0.87093847119624D+03

 The electronic state is 1-A.
 Alpha  occ. eigenvalues --  -20.61457 -20.61445 -20.61304 -20.61283 -15.86513
 Alpha  occ. eigenvalues --  -15.86348 -11.32047 -11.31730 -11.28683 -11.28585
 Alpha  occ. eigenvalues --  -11.28431 -11.28355 -11.28242 -11.27965 -11.27726
 Alpha  occ. eigenvalues --  -11.27603 -11.27248 -11.27196  -1.60526  -1.60369
 Alpha  occ. eigenvalues --   -1.40074  -1.39924  -1.20253  -1.19879  -1.09622
 Alpha  occ. eigenvalues --   -1.09258  -1.05678  -1.05284  -0.96415  -0.96105
 Alpha  occ. eigenvalues --   -0.87086  -0.86658  -0.83234  -0.82942  -0.78270
 Alpha  occ. eigenvalues --   -0.77988  -0.72726  -0.72566  -0.71852  -0.71691
 Alpha  occ. eigenvalues --   -0.71359  -0.70969  -0.65911  -0.65764  -0.65524
 Alpha  occ. eigenvalues --   -0.65200  -0.63031  -0.62596  -0.56166  -0.55767
 Alpha  occ. eigenvalues --   -0.54122  -0.53767  -0.53595  -0.53187  -0.49498
 Alpha  occ. eigenvalues --   -0.49471  -0.49330  -0.49313  -0.45442  -0.45328
 Alpha  occ. eigenvalues --   -0.38236  -0.37840  -0.37271  -0.36889
 Alpha virt. eigenvalues --    0.04256   0.04535   0.10184   0.10757   0.15622
 Alpha virt. eigenvalues --    0.16015   0.19195   0.21925   0.24929   0.26302
 Alpha virt. eigenvalues --    0.27883   0.29284   0.30128   0.31109   0.31967

 Mulliken charges:
               1
     1  C   -0.175939
     2  C   -0.232180
     3  C   -0.172256
     4  C    0.159429
     5  C   -0.169047
     6  C   -0.217125
     7  H    0.230372
     8  H    0.227179
     9  H    0.277090
    10  H    0.279344
    11  H    0.229453
    12  N    0.487988
    13  O   -0.457195
    14  O   -0.459503
    15  C   -0.173174
    16  C   -0.217804
    17  C   -0.170722
    18  C    0.160094
    19  C   -0.176798
    20  C   -0.228056
    21  H    0.228357
    22  H    0.225726
    23  H    0.277116
    24  H    0.267461
    25  H    0.232860
    26  N    0.488287
    27  O   -0.463049
    28  O   -0.457908
 Sum of Mulliken charges =  -0.00000

 Dipole moment (field-independent basis, Debye):
    X=             -0.7793    Y=              1.3633    Z=              1.0920  Tot=              1.9127
 Quadrupole moment (field-independent basis, Debye-Ang):
   XX=           -159.6362   YY=            -98.5271   ZZ=           -103.7625
   XY=            -28.7093   XZ=              3.6492   YZ=              1.5598

 Normal termination of Gaussian 16 at Thu May  6 00:20:02 2021.
