 Gaussian 16, Revision A.03,
 Gaussian 16:  EM64L-G16RevA.03 25-Dec-2016

 -------------
 #p 6-31g* mp2
 -------------

 ------------------------------------------------------
 Input file generated by CHIRIPA (05-May-2021 14:53:14)
 ------------------------------------------------------
 Symbolic Z-matrix:
 Charge =  0 Multiplicity = 1

                         Standard orientation:
 ---------------------------------------------------------------------
 Center     Atomic      Atomic             Coordinates (Angstroms)
 Number     Number       Type             X           Y           Z
 ---------------------------------------------------------------------
      1          6           0        4.027729    1.040096    0.378490
      2          6           0        2.685933    1.757324    0.226331
      3          6           0        2.586642    3.015072    1.090047
      4          1           0        4.176650    0.774453    1.434047
      5          1           0        4.838157    1.733091    0.113235
      6          1           0        1.878202    1.062759    0.490464
      7          1           0        2.540102    2.021121   -0.829017
      8          1           0        3.372037    3.729259    0.822292
      9          1           0        2.706377    2.765452    2.149270
     10          1           0        1.619461    3.512056    0.965841
     11          6           0        4.142172   -0.219185   -0.478739
     12          6           0        5.483968   -0.936414   -0.326581
     13          6           0        5.583259   -2.194162   -1.190297
     14          1           0        3.331744   -0.912180   -0.213485
     15          1           0        3.993251    0.046458   -1.534297
     16          1           0        5.629799   -1.200210    0.728768
     17          1           0        6.291698   -0.241848   -0.590714
     18          1           0        5.463524   -1.944541   -2.249520
     19          1           0        4.797864   -2.908348   -0.922541
     20          1           0        6.550440   -2.691145   -1.066091
     21          6           0       -1.529480   -1.837691    1.180517
     22          6           0       -1.122765   -0.587745    0.702251
     23          6           0       -2.034993    0.261030    0.068241
     24          6           0       -3.352033   -0.174008   -0.071182
     25          6           0       -3.787766   -1.413530    0.394662
     26          6           0       -2.858339   -2.245876    1.025470
     27          1           0       -0.814160   -2.490658    1.671787
     28          1           0       -0.091398   -0.268122    0.821271
     29          1           0       -1.747052    1.233841   -0.311426
     30          1           0       -4.822644   -1.704514    0.261345
     31          1           0       -3.177022   -3.216060    1.395910
     32          7           0       -4.326871    0.715855   -0.740685
     33          8           0       -5.481477    0.309256   -0.851130
     34          8           0       -3.917884    1.803080   -1.142320
 ---------------------------------------------------------------------

 SCF Done:  E(RHF) =  -669.535471267     A.U. after   15 cycles
 E2 =    -0.2091087044D+01 EUMP2 =    -0.67162655831107D+03

 The electronic state is 1-A.
 Alpha  occ. eigenvalues --  -20.60738 -20.60733 -15.85791 -11.31154 -11.27725
 Alpha  occ. eigenvalues --  -11.27713 -11.27472 -11.26744 -11.26716 -11.22517
 Alpha  occ. eigenvalues --  -11.22181 -11.22123 -11.22056 -11.21743 -11.21577
 Alpha  occ. eigenvalues --   -1.59813  -1.39367  -1.19327  -1.09146  -1.08725
 Alpha  occ. eigenvalues --   -1.04730  -1.04209  -0.96626  -0.95559  -0.87641
 Alpha  occ. eigenvalues --   -0.86132  -0.82394  -0.80291  -0.78961  -0.77436
 Alpha  occ. eigenvalues --   -0.72010  -0.71136  -0.70440  -0.65809  -0.64980
 Alpha  occ. eigenvalues --   -0.64736  -0.62127  -0.61568  -0.59998  -0.58245
 Alpha  occ. eigenvalues --   -0.55907  -0.55239  -0.53318  -0.53061  -0.53052
 Alpha  occ. eigenvalues --   -0.52833  -0.50564  -0.48781  -0.48764  -0.48576
 Alpha  occ. eigenvalues --   -0.47327  -0.46487  -0.46415  -0.44773  -0.44462
 Alpha  occ. eigenvalues --   -0.37312  -0.36331
 Alpha virt. eigenvalues --    0.05097   0.11317   0.16588   0.19226   0.22600
 Alpha virt. eigenvalues --    0.23664   0.24774   0.26395   0.27155   0.28397
 Alpha virt. eigenvalues --    0.28814   0.30011   0.31130   0.31364   0.32262

 Mulliken charges:
               1
     1  C   -0.298188
     2  C   -0.306318
     3  C   -0.475901
     4  H    0.149645
     5  H    0.153665
     6  H    0.143062
     7  H    0.156864
     8  H    0.159558
     9  H    0.155724
    10  H    0.162156
    11  C   -0.297693
    12  C   -0.300191
    13  C   -0.475840
    14  H    0.143202
    15  H    0.152577
    16  H    0.151771
    17  H    0.154240
    18  H    0.156924
    19  H    0.153673
    20  H    0.162072
    21  C   -0.172725
    22  C   -0.226040
    23  C   -0.173952
    24  C    0.158675
    25  C   -0.171157
    26  C   -0.218448
    27  H    0.225856
    28  H    0.235248
    29  H    0.275755
    30  H    0.275488
    31  H    0.223219
    32  N    0.488154
    33  O   -0.460649
    34  O   -0.460425
 Sum of Mulliken charges =  -0.00000

 Dipole moment (field-independent basis, Debye):
    X=              3.6363    Y=             -3.0558    Z=              2.3219  Tot=              5.2869
 Quadrupole moment (field-independent basis, Debye-Ang):
   XX=           -114.6197   YY=            -91.8857   ZZ=            -95.5302
   XY=             13.5252   XZ=             -9.0642   YZ=             -1.7214

 Normal termination of Gaussian 16 at Thu May  6 04:13:39 2021.
