 Gaussian 16, Revision A.03,
 Gaussian 16:  EM64L-G16RevA.03 25-Dec-2016

 -------------
 #p 6-31g* mp2
 -------------

 ------------------------------------------------------
 Input file generated by CHIRIPA (05-May-2021 14:53:15)
 ------------------------------------------------------
 Symbolic Z-matrix:
 Charge =  0 Multiplicity = 1

                         Standard orientation:
 ---------------------------------------------------------------------
 Center     Atomic      Atomic             Coordinates (Angstroms)
 Number     Number       Type             X           Y           Z
 ---------------------------------------------------------------------
      1          6           0        3.198003    0.360413   -0.166778
      2          6           0        3.080633    1.879160   -0.299503
      3          6           0        1.631236    2.365032   -0.268358
      4          1           0        2.632212   -0.117022   -0.978494
      5          1           0        2.724262    0.043745    0.772735
      6          1           0        3.555675    2.193021   -1.237823
      7          1           0        3.646928    2.353037    0.512511
      8          1           0        1.149606    2.080262    0.672673
      9          1           0        1.057834    1.919336   -1.087606
     10          1           0        1.570556    3.453561   -0.364708
     11          6           0        4.640874   -0.140574   -0.196201
     12          6           0        4.758244   -1.659321   -0.063476
     13          6           0        6.207641   -2.145193   -0.094621
     14          1           0        5.114615    0.176095   -1.135715
     15          1           0        5.206665    0.336861    0.615514
     16          1           0        4.191949   -2.133197   -0.875490
     17          1           0        4.283202   -1.973181    0.874843
     18          1           0        6.781042   -1.699497    0.724627
     19          1           0        6.689271   -1.860422   -1.035652
     20          1           0        6.268321   -3.233722    0.001729
     21          6           0       -4.792897   -1.753847   -0.625024
     22          6           0       -3.979153   -2.045005    0.474780
     23          6           0       -3.016818   -1.128278    0.908449
     24          6           0       -2.894731    0.075379    0.215922
     25          6           0       -3.690514    0.394502   -0.883251
     26          6           0       -4.646238   -0.537167   -1.299341
     27          1           0       -5.537895   -2.471787   -0.955080
     28          1           0       -4.090827   -2.989104    1.000377
     29          1           0       -2.373635   -1.328065    1.756871
     30          1           0       -3.555770    1.343960   -1.387029
     31          1           0       -5.276818   -0.308364   -2.153777
     32          7           0       -1.879448    1.053786    0.665722
     33          8           0       -1.791662    2.107173    0.038580
     34          8           0       -1.190680    0.748749    1.636900
 ---------------------------------------------------------------------

 SCF Done:  E(RHF) =  -669.536221342     A.U. after   15 cycles
 E2 =    -0.2092084398D+01 EUMP2 =    -0.67162830573955D+03

 The electronic state is 1-A.
 Alpha  occ. eigenvalues --  -20.60996 -20.60985 -15.85982 -11.31310 -11.27866
 Alpha  occ. eigenvalues --  -11.27863 -11.27602 -11.26871 -11.26861 -11.21035
 Alpha  occ. eigenvalues --  -11.20624 -11.20618 -11.20356 -11.20254 -11.19099
 Alpha  occ. eigenvalues --   -1.60023  -1.39582  -1.19472  -1.08878  -1.07513
 Alpha  occ. eigenvalues --   -1.04866  -1.02502  -0.95726  -0.94907  -0.86267
 Alpha  occ. eigenvalues --   -0.85917  -0.82556  -0.78616  -0.77613  -0.77264
 Alpha  occ. eigenvalues --   -0.72204  -0.71326  -0.70581  -0.65127  -0.64870
 Alpha  occ. eigenvalues --   -0.64157  -0.62213  -0.59907  -0.58395  -0.56530
 Alpha  occ. eigenvalues --   -0.55375  -0.54201  -0.53202  -0.52958  -0.51601
 Alpha  occ. eigenvalues --   -0.51378  -0.49172  -0.48964  -0.48672  -0.46821
 Alpha  occ. eigenvalues --   -0.45689  -0.45034  -0.44742  -0.44611  -0.42757
 Alpha  occ. eigenvalues --   -0.37446  -0.36466
 Alpha virt. eigenvalues --    0.04898   0.11189   0.16392   0.21325   0.23695
 Alpha virt. eigenvalues --    0.25403   0.27244   0.27530   0.28162   0.28369
 Alpha virt. eigenvalues --    0.29219   0.30912   0.32298   0.32552   0.32625

 Mulliken charges:
               1
     1  C   -0.297689
     2  C   -0.301195
     3  C   -0.476542
     4  H    0.144645
     5  H    0.153786
     6  H    0.144837
     7  H    0.148191
     8  H    0.179564
     9  H    0.148114
    10  H    0.155518
    11  C   -0.297167
    12  C   -0.298731
    13  C   -0.475066
    14  H    0.147249
    15  H    0.148846
    16  H    0.149473
    17  H    0.151320
    18  H    0.154879
    19  H    0.154183
    20  H    0.157610
    21  C   -0.170554
    22  C   -0.218569
    23  C   -0.170653
    24  C    0.160161
    25  C   -0.170959
    26  C   -0.218598
    27  H    0.226043
    28  H    0.223891
    29  H    0.275794
    30  H    0.275948
    31  H    0.223881
    32  N    0.488507
    33  O   -0.456154
    34  O   -0.460563
 Sum of Mulliken charges =  -0.00000

 Dipole moment (field-independent basis, Debye):
    X=             -3.9789    Y=             -3.3946    Z=             -1.4587  Tot=              5.4298
 Quadrupole moment (field-independent basis, Debye-Ang):
   XX=            -76.4523   YY=            -94.1441   ZZ=            -92.1805
   XY=              9.4557   XZ=              5.5501   YZ=             -3.2410

 Normal termination of Gaussian 16 at Thu May  6 15:29:25 2021.
