 Gaussian 16, Revision A.03,
 Gaussian 16:  EM64L-G16RevA.03 25-Dec-2016

 -------------
 #p 6-31g* mp2
 -------------

 ------------------------------------------------------
 Input file generated by CHIRIPA (05-May-2021 14:57:23)
 ------------------------------------------------------
 Symbolic Z-matrix:
 Charge =  0 Multiplicity = 1

                         Standard orientation:
 ---------------------------------------------------------------------
 Center     Atomic      Atomic             Coordinates (Angstroms)
 Number     Number       Type             X           Y           Z
 ---------------------------------------------------------------------
      1          6           0       -3.035799    2.669419    0.527818
      2          6           0       -3.042094    2.211045   -0.793687
      3          6           0       -3.098806    0.841740   -1.069978
      4          6           0       -3.148483   -0.045264    0.004287
      5          6           0       -3.143670    0.380433    1.331708
      6          6           0       -3.086518    1.754264    1.584435
      7          1           0       -2.991573    3.734886    0.733295
      8          1           0       -3.002784    2.919474   -1.616261
      9          1           0       -3.104967    0.459536   -2.083536
     10          1           0       -3.183690   -0.349921    2.130707
     11          1           0       -3.081764    2.107377    2.611729
     12          7           0       -3.208754   -1.497281   -0.275737
     13          8           0       -3.251815   -2.258339    0.688407
     14          8           0       -3.211793   -1.846821   -1.454062
     15          6           0        0.967938   -1.479359   -0.098830
     16          6           0        2.080143   -2.008484    0.564155
     17          6           0        3.287899   -1.305087    0.597405
     18          6           0        3.348395   -0.069787   -0.045760
     19          6           0        2.257807    0.483907   -0.714587
     20          6           0        1.060157   -0.237043   -0.734964
     21          1           0        0.033650   -2.032592   -0.119660
     22          1           0        2.011426   -2.973057    1.059051
     23          1           0        4.164397   -1.691324    1.103361
     24          1           0        2.356893    1.447829   -1.198793
     25          1           0        0.198027    0.176335   -1.250612
     26          7           0        4.621644    0.684159   -0.017373
     27          8           0        4.649119    1.770445   -0.591711
     28          8           0        5.568031    0.174539    0.578676
 ---------------------------------------------------------------------

 SCF Done:  E(RHF) =  -868.339073285     A.U. after   16 cycles
 E2 =    -0.2600113634D+01 EUMP2 =    -0.87093918691893D+03

 The electronic state is 1-A.
 Alpha  occ. eigenvalues --  -20.61954 -20.61948 -20.60666 -20.60655 -15.86990
 Alpha  occ. eigenvalues --  -15.85714 -11.32208 -11.30983 -11.28758 -11.28697
 Alpha  occ. eigenvalues --  -11.28375 -11.27702 -11.27640 -11.27567 -11.27525
 Alpha  occ. eigenvalues --  -11.27161 -11.26509 -11.26469  -1.61051  -1.59741
 Alpha  occ. eigenvalues --   -1.40595  -1.39298  -1.20348  -1.19136  -1.09759
 Alpha  occ. eigenvalues --   -1.08528  -1.05708  -1.04530  -0.96618  -0.95384
 Alpha  occ. eigenvalues --   -0.87104  -0.85920  -0.83440  -0.82226  -0.78526
 Alpha  occ. eigenvalues --   -0.77308  -0.73184  -0.72435  -0.71932  -0.71402
 Alpha  occ. eigenvalues --   -0.71065  -0.70162  -0.65978  -0.65673  -0.64778
 Alpha  occ. eigenvalues --   -0.64522  -0.63043  -0.61891  -0.56165  -0.54956
 Alpha  occ. eigenvalues --   -0.54068  -0.53769  -0.52855  -0.52591  -0.49964
 Alpha  occ. eigenvalues --   -0.49942  -0.48695  -0.48680  -0.46020  -0.44726
 Alpha  occ. eigenvalues --   -0.38305  -0.37308  -0.37066  -0.36142
 Alpha virt. eigenvalues --    0.03944   0.05233   0.10287   0.11514   0.15503
 Alpha virt. eigenvalues --    0.16764   0.20554   0.21553   0.26420   0.27114
 Alpha virt. eigenvalues --    0.27716   0.28262   0.30399   0.30801   0.31880

 Mulliken charges:
               1
     1  C   -0.169412
     2  C   -0.219534
     3  C   -0.179310
     4  C    0.155078
     5  C   -0.170063
     6  C   -0.216954
     7  H    0.230526
     8  H    0.227156
     9  H    0.276602
    10  H    0.277381
    11  H    0.228023
    12  N    0.484307
    13  O   -0.459654
    14  O   -0.459499
    15  C   -0.175446
    16  C   -0.219708
    17  C   -0.171703
    18  C    0.157937
    19  C   -0.172599
    20  C   -0.219323
    21  H    0.236924
    22  H    0.226223
    23  H    0.274844
    24  H    0.272253
    25  H    0.221139
    26  N    0.488167
    27  O   -0.462662
    28  O   -0.460694
 Sum of Mulliken charges =  -0.00000

 Dipole moment (field-independent basis, Debye):
    X=             -4.5637    Y=              2.5271    Z=              1.0315  Tot=              5.3177
 Quadrupole moment (field-independent basis, Debye-Ang):
   XX=           -136.6495   YY=           -102.3126   ZZ=            -98.9780
   XY=            -27.3286   XZ=             -2.2903   YZ=             -3.0953

 Normal termination of Gaussian 16 at Thu May  6 11:19:26 2021.
