 Gaussian 16, Revision A.03,
 Gaussian 16:  EM64L-G16RevA.03 25-Dec-2016

 -------------
 #p 6-31g* mp2
 -------------

 ------------------------------------------------------
 Input file generated by CHIRIPA (05-May-2021 14:51:07)
 ------------------------------------------------------
 Symbolic Z-matrix:
 Charge =  0 Multiplicity = 1

                         Standard orientation:
 ---------------------------------------------------------------------
 Center     Atomic      Atomic             Coordinates (Angstroms)
 Number     Number       Type             X           Y           Z
 ---------------------------------------------------------------------
      1          6           0        2.807797   -0.143682   -0.182033
      2          6           0        4.221572   -0.479761   -0.657719
      3          6           0        4.855779    0.649256   -1.470674
      4          1           0        2.178110    0.080769   -1.053848
      5          1           0        2.840419    0.772253    0.424096
      6          1           0        4.186496   -1.395559   -1.261622
      7          1           0        4.847919   -0.703625    0.215316
      8          1           0        4.919988    1.564743   -0.873714
      9          1           0        4.254807    0.868877   -2.359044
     10          1           0        5.866051    0.387848   -1.800640
     11          6           0        2.160512   -1.262616    0.632055
     12          6           0        0.746738   -0.926537    1.107740
     13          6           0        0.112531   -2.055554    1.920696
     14          1           0        2.127890   -2.178551    0.025925
     15          1           0        2.790200   -1.487067    1.503869
     16          1           0        0.120391   -0.702673    0.234705
     17          1           0        0.781814   -0.010738    1.711643
     18          1           0        0.713502   -2.275175    2.809065
     19          1           0        0.048322   -2.971041    1.323735
     20          1           0       -0.897741   -1.794146    2.250661
     21          6           0       -2.284611    1.182299    0.335372
     22          6           0       -1.177240    2.157262   -0.066077
     23          6           0       -0.788987    3.109351    1.065552
     24          1           0       -3.167435    1.752037    0.656257
     25          1           0       -1.953669    0.601289    1.207323
     26          1           0       -1.509631    2.735295   -0.937863
     27          1           0       -0.297016    1.585139   -0.386225
     28          1           0       -0.432162    2.548535    1.935472
     29          1           0       -1.651667    3.705227    1.380700
     30          1           0        0.004132    3.797505    0.756899
     31          6           0       -2.683699    0.223998   -0.785394
     32          6           0       -3.791070   -0.750965   -0.383945
     33          6           0       -4.179322   -1.703053   -1.515572
     34          1           0       -3.014640    0.805009   -1.657345
     35          1           0       -1.800875   -0.345739   -1.106278
     36          1           0       -4.671294   -0.178840   -0.063796
     37          1           0       -3.458678   -1.328997    0.487842
     38          1           0       -3.316643   -2.298929   -1.830721
     39          1           0       -4.536149   -1.142237   -2.385493
     40          1           0       -4.972441   -2.391207   -1.206921
 ---------------------------------------------------------------------

 SCF Done:  E(RHF) =  -470.731755765     A.U. after   11 cycles
 E2 =    -0.1586005796D+01 EUMP2 =    -0.47231776156087D+03

 The electronic state is 1-A.
 Alpha  occ. eigenvalues --  -11.21649 -11.21638 -11.21598 -11.21473 -11.21471
 Alpha  occ. eigenvalues --  -11.21411 -11.21378 -11.21283 -11.21170 -11.21101
 Alpha  occ. eigenvalues --  -11.21074 -11.21024  -1.08560  -1.08349  -1.03622
 Alpha  occ. eigenvalues --   -1.03469  -0.96064  -0.95938  -0.87068  -0.86964
 Alpha  occ. eigenvalues --   -0.79691  -0.79560  -0.78381  -0.78182  -0.65349
 Alpha  occ. eigenvalues --   -0.64905  -0.61032  -0.60890  -0.59371  -0.59311
 Alpha  occ. eigenvalues --   -0.57667  -0.57561  -0.55392  -0.55173  -0.52744
 Alpha  occ. eigenvalues --   -0.52651  -0.52484  -0.52362  -0.49996  -0.49898
 Alpha  occ. eigenvalues --   -0.48056  -0.47831  -0.46819  -0.46626  -0.46167
 Alpha  occ. eigenvalues --   -0.45853  -0.45601  -0.45127  -0.43846  -0.43742
 Alpha virt. eigenvalues --    0.20003   0.22631   0.23273   0.24080   0.24913
 Alpha virt. eigenvalues --    0.26097   0.26527   0.28352   0.28802   0.29665
 Alpha virt. eigenvalues --    0.30138   0.31363   0.31735   0.31864   0.32106

 Mulliken charges:
               1
     1  C   -0.300305
     2  C   -0.299668
     3  C   -0.475804
     4  H    0.150204
     5  H    0.150377
     6  H    0.152035
     7  H    0.152240
     8  H    0.155366
     9  H    0.155350
    10  H    0.160427
    11  C   -0.297549
    12  C   -0.310361
    13  C   -0.478255
    14  H    0.149307
    15  H    0.149754
    16  H    0.161266
    17  H    0.154301
    18  H    0.155864
    19  H    0.155417
    20  H    0.161441
    21  C   -0.303722
    22  C   -0.303621
    23  C   -0.476978
    24  H    0.150219
    25  H    0.155128
    26  H    0.151171
    27  H    0.157893
    28  H    0.155350
    29  H    0.154925
    30  H    0.159955
    31  C   -0.301694
    32  C   -0.300691
    33  C   -0.475627
    34  H    0.150002
    35  H    0.150830
    36  H    0.152147
    37  H    0.152927
    38  H    0.154864
    39  H    0.155178
    40  H    0.160340
 Sum of Mulliken charges =  -0.00000

 Dipole moment (field-independent basis, Debye):
    X=              0.0342    Y=             -0.0198    Z=              0.0039  Tot=              0.0397
 Quadrupole moment (field-independent basis, Debye-Ang):
   XX=            -84.6351   YY=            -85.3808   ZZ=            -84.8361
   XY=             -0.9990   XZ=              0.6190   YZ=              0.0252

 Normal termination of Gaussian 16 at Wed May  5 19:38:46 2021.
