 Gaussian 16, Revision A.03,
 Gaussian 16:  EM64L-G16RevA.03 25-Dec-2016

 -------------
 #p 6-31g* mp2
 -------------

 ------------------------------------------------------
 Input file generated by CHIRIPA (05-May-2021 14:55:24)
 ------------------------------------------------------
 Symbolic Z-matrix:
 Charge =  0 Multiplicity = 1

                         Standard orientation:
 ---------------------------------------------------------------------
 Center     Atomic      Atomic             Coordinates (Angstroms)
 Number     Number       Type             X           Y           Z
 ---------------------------------------------------------------------
      1          6           0       -0.947333   -1.471825    0.492438
      2          6           0       -1.538923   -0.772708    1.549688
      3          6           0       -2.662881    0.029138    1.329896
      4          6           0       -3.171366    0.109368    0.034406
      5          6           0       -2.604407   -0.574997   -1.039601
      6          6           0       -1.481022   -1.370916   -0.796560
      7          1           0       -0.074438   -2.092416    0.672207
      8          1           0       -1.126603   -0.849197    2.551779
      9          1           0       -3.140685    0.581120    2.130170
     10          1           0       -3.038079   -0.478958   -2.027590
     11          1           0       -1.023662   -1.912732   -1.619544
     12          7           0       -4.360947    0.955110   -0.210584
     13          8           0       -4.789799    1.009083   -1.361153
     14          8           0       -4.841963    1.548014    0.752601
     15          6           0        3.791165   -0.674526    0.177838
     16          6           0        2.802210   -1.581519   -0.555180
     17          6           0        2.779189   -3.004571    0.003558
     18          1           0        4.797005   -1.111634    0.113286
     19          1           0        3.530520   -0.646292    1.244919
     20          1           0        3.063810   -1.606937   -1.620796
     21          1           0        1.798638   -1.142104   -0.489039
     22          1           0        2.496311   -2.998653    1.061173
     23          1           0        3.768671   -3.466127   -0.077014
     24          1           0        2.065505   -3.635828   -0.534987
     25          6           0        3.825627    0.751377   -0.369282
     26          6           0        4.814582    1.658371    0.363736
     27          6           0        4.837603    3.081421   -0.195004
     28          1           0        4.086271    0.723142   -1.436364
     29          1           0        2.819786    1.188484   -0.304730
     30          1           0        5.818154    1.218954    0.297595
     31          1           0        4.552982    1.683788    1.429350
     32          1           0        3.848121    3.542977   -0.114430
     33          1           0        5.120481    3.075503   -1.252617
     34          1           0        5.551286    3.712678    0.343542
 ---------------------------------------------------------------------

 SCF Done:  E(RHF) =  -669.535087737     A.U. after   15 cycles
 E2 =    -0.2092330320D+01 EUMP2 =    -0.67162741805682D+03

 The electronic state is 1-A.
 Alpha  occ. eigenvalues --  -20.60770 -20.60764 -15.85824 -11.31196 -11.27769
 Alpha  occ. eigenvalues --  -11.27762 -11.27448 -11.26775 -11.26764 -11.22615
 Alpha  occ. eigenvalues --  -11.22334 -11.22196 -11.22085 -11.21964 -11.21433
 Alpha  occ. eigenvalues --   -1.59845  -1.39399  -1.19370  -1.09194  -1.08757
 Alpha  occ. eigenvalues --   -1.04772  -1.04322  -0.96772  -0.95592  -0.87776
 Alpha  occ. eigenvalues --   -0.86168  -0.82429  -0.80396  -0.78943  -0.77473
 Alpha  occ. eigenvalues --   -0.72041  -0.71169  -0.70525  -0.65828  -0.65017
 Alpha  occ. eigenvalues --   -0.64770  -0.62122  -0.61730  -0.60178  -0.58357
 Alpha  occ. eigenvalues --   -0.56167  -0.55085  -0.53467  -0.53200  -0.53091
 Alpha  occ. eigenvalues --   -0.52858  -0.50709  -0.48800  -0.48796  -0.48691
 Alpha  occ. eigenvalues --   -0.47433  -0.46488  -0.46384  -0.44803  -0.44541
 Alpha  occ. eigenvalues --   -0.37307  -0.36379
 Alpha virt. eigenvalues --    0.05026   0.11217   0.16434   0.19630   0.22653
 Alpha virt. eigenvalues --    0.23940   0.25893   0.26151   0.26624   0.27570
 Alpha virt. eigenvalues --    0.29763   0.30223   0.30856   0.31473   0.32008

 Mulliken charges:
               1
     1  C   -0.174979
     2  C   -0.221946
     3  C   -0.170723
     4  C    0.158308
     5  C   -0.170747
     6  C   -0.220925
     7  H    0.237277
     8  H    0.223500
     9  H    0.275568
    10  H    0.275718
    11  H    0.224495
    12  N    0.488044
    13  O   -0.460354
    14  O   -0.460446
    15  C   -0.297012
    16  C   -0.309428
    17  C   -0.481904
    18  H    0.152263
    19  H    0.147731
    20  H    0.155786
    21  H    0.151953
    22  H    0.150903
    23  H    0.164332
    24  H    0.156819
    25  C   -0.299557
    26  C   -0.300118
    27  C   -0.476270
    28  H    0.150903
    29  H    0.151916
    30  H    0.152622
    31  H    0.151788
    32  H    0.156689
    33  H    0.156041
    34  H    0.161755
 Sum of Mulliken charges =  -0.00000

 Dipole moment (field-independent basis, Debye):
    X=              4.3481    Y=             -2.9210    Z=              0.8324  Tot=              5.3038
 Quadrupole moment (field-independent basis, Debye-Ang):
   XX=           -120.9280   YY=            -96.8251   ZZ=            -89.6880
   XY=              9.6321   XZ=             -3.2833   YZ=              1.9096

 Normal termination of Gaussian 16 at Thu May  6 07:56:19 2021.
