 Gaussian 16, Revision A.03,
 Gaussian 16:  EM64L-G16RevA.03 25-Dec-2016

 -------------
 #p 6-31g* mp2
 -------------

 ------------------------------------------------------
 Input file generated by CHIRIPA (05-May-2021 14:53:16)
 ------------------------------------------------------
 Symbolic Z-matrix:
 Charge =  0 Multiplicity = 1

                         Standard orientation:
 ---------------------------------------------------------------------
 Center     Atomic      Atomic             Coordinates (Angstroms)
 Number     Number       Type             X           Y           Z
 ---------------------------------------------------------------------
      1          6           0        4.234205   -0.455953   -0.183953
      2          6           0        4.053360   -1.738178    0.629176
      3          6           0        5.004127   -2.853524    0.193472
      4          1           0        4.076897   -0.678932   -1.248134
      5          1           0        5.273285   -0.112013   -0.086936
      6          1           0        3.014572   -2.078837    0.531771
      7          1           0        4.210928   -1.512082    1.691565
      8          1           0        6.046214   -2.537746    0.307219
      9          1           0        4.843061   -3.107721   -0.859164
     10          1           0        4.857763   -3.760823    0.787818
     11          6           0        3.290734    0.668310    0.239867
     12          6           0        3.471579    1.950535   -0.573262
     13          6           0        2.520812    3.065881   -0.137558
     14          1           0        2.251654    0.324370    0.142849
     15          1           0        3.448042    0.891288    1.304047
     16          1           0        3.314011    1.724439   -1.635651
     17          1           0        4.510367    2.291194   -0.475857
     18          1           0        2.681878    3.320078    0.915078
     19          1           0        1.478724    2.750103   -0.251305
     20          1           0        2.667176    3.973179   -0.731904
     21          6           0       -3.756912   -2.458137   -0.258782
     22          6           0       -2.425797   -2.143494   -0.551448
     23          6           0       -1.961899   -0.830851   -0.423715
     24          6           0       -2.860398    0.146672    0.001065
     25          6           0       -4.192412   -0.135376    0.300194
     26          6           0       -4.634424   -1.454842    0.165358
     27          1           0       -4.108778   -3.480480   -0.360767
     28          1           0       -1.742070   -2.920623   -0.881044
     29          1           0       -0.936505   -0.559525   -0.643635
     30          1           0       -4.850388    0.660827    0.626608
     31          1           0       -5.668721   -1.696291    0.393344
     32          7           0       -2.380875    1.539920    0.140051
     33          8           0       -3.192375    2.382950    0.516092
     34          8           0       -1.202605    1.762538   -0.129685
 ---------------------------------------------------------------------

 SCF Done:  E(RHF) =  -669.536122789     A.U. after   15 cycles
 E2 =    -0.2091135081D+01 EUMP2 =    -0.67162725786968D+03

 The electronic state is 1-A.
 Alpha  occ. eigenvalues --  -20.60941 -20.60933 -15.85987 -11.31300 -11.27869
 Alpha  occ. eigenvalues --  -11.27858 -11.27597 -11.26870 -11.26860 -11.21547
 Alpha  occ. eigenvalues --  -11.21133 -11.21078 -11.20904 -11.20835 -11.19787
 Alpha  occ. eigenvalues --   -1.60002  -1.39560  -1.19467  -1.08871  -1.08043
 Alpha  occ. eigenvalues --   -1.04864  -1.03045  -0.95717  -0.95464  -0.86479
 Alpha  occ. eigenvalues --   -0.86264  -0.82553  -0.79158  -0.77810  -0.77592
 Alpha  occ. eigenvalues --   -0.72215  -0.71317  -0.70577  -0.65127  -0.64868
 Alpha  occ. eigenvalues --   -0.64685  -0.62214  -0.60440  -0.58918  -0.57067
 Alpha  occ. eigenvalues --   -0.55367  -0.54738  -0.53194  -0.52958  -0.52162
 Alpha  occ. eigenvalues --   -0.51872  -0.49430  -0.48960  -0.48923  -0.47430
 Alpha  occ. eigenvalues --   -0.46208  -0.45336  -0.45244  -0.44956  -0.43319
 Alpha  occ. eigenvalues --   -0.37445  -0.36465
 Alpha virt. eigenvalues --    0.04929   0.11188   0.16431   0.20682   0.22932
 Alpha virt. eigenvalues --    0.24541   0.25725   0.27373   0.27600   0.28606
 Alpha virt. eigenvalues --    0.29078   0.30746   0.31682   0.32020   0.32371

 Mulliken charges:
               1
     1  C   -0.298086
     2  C   -0.297731
     3  C   -0.475346
     4  H    0.147185
     5  H    0.149846
     6  H    0.145565
     7  H    0.153093
     8  H    0.156383
     9  H    0.153575
    10  H    0.158476
    11  C   -0.297729
    12  C   -0.298755
    13  C   -0.487202
    14  H    0.148722
    15  H    0.149940
    16  H    0.148716
    17  H    0.148031
    18  H    0.151415
    19  H    0.184835
    20  H    0.156278
    21  C   -0.170515
    22  C   -0.218698
    23  C   -0.171388
    24  C    0.157393
    25  C   -0.170345
    26  C   -0.218618
    27  H    0.226066
    28  H    0.223935
    29  H    0.276026
    30  H    0.275934
    31  H    0.223864
    32  N    0.496451
    33  O   -0.458566
    34  O   -0.468749
 Sum of Mulliken charges =  -0.00000

 Dipole moment (field-independent basis, Debye):
    X=             -1.9316    Y=             -4.8331    Z=             -0.4636  Tot=              5.2254
 Quadrupole moment (field-independent basis, Debye-Ang):
   XX=            -81.3967   YY=            -97.1704   ZZ=            -94.8204
   XY=             13.2789   XZ=              0.5280   YZ=              0.5306

 Normal termination of Gaussian 16 at Thu May  6 18:52:54 2021.
