 Gaussian 16, Revision A.03,
 Gaussian 16:  EM64L-G16RevA.03 25-Dec-2016

 -------------
 #p 6-31g* mp2
 -------------

 ------------------------------------------------------
 Input file generated by CHIRIPA (05-May-2021 14:55:19)
 ------------------------------------------------------
 Symbolic Z-matrix:
 Charge =  0 Multiplicity = 1

                         Standard orientation:
 ---------------------------------------------------------------------
 Center     Atomic      Atomic             Coordinates (Angstroms)
 Number     Number       Type             X           Y           Z
 ---------------------------------------------------------------------
      1          6           0        2.395084   -2.224953    1.323520
      2          6           0        1.230156   -1.573858    0.904545
      3          6           0        1.305370   -0.388568    0.166997
      4          6           0        2.567655    0.119905   -0.135297
      5          6           0        3.746492   -0.505493    0.267829
      6          6           0        3.647326   -1.689636    1.004387
      7          1           0        2.327352   -3.145270    1.896081
      8          1           0        0.256294   -1.987292    1.150939
      9          1           0        0.419573    0.136051   -0.169985
     10          1           0        4.703014   -0.069118    0.006944
     11          1           0        4.553706   -2.193130    1.328445
     12          7           0        2.659959    1.374112   -0.915582
     13          8           0        3.784083    1.801609   -1.169014
     14          8           0        1.606435    1.905914   -1.258963
     15          6           0       -3.547425   -0.599387    0.016363
     16          6           0       -3.141961   -1.424624   -1.205345
     17          6           0       -3.710399   -2.843698   -1.175311
     18          1           0       -3.208214   -1.112599    0.926579
     19          1           0       -4.643897   -0.555042    0.072725
     20          1           0       -2.046572   -1.466240   -1.260167
     21          1           0       -3.482009   -0.909291   -2.112768
     22          1           0       -4.804514   -2.819852   -1.144565
     23          1           0       -3.360921   -3.379964   -0.287120
     24          1           0       -3.408200   -3.415989   -2.057931
     25          6           0       -2.986827    0.821604    0.000780
     26          6           0       -3.392290    1.646840    1.222488
     27          6           0       -2.823852    3.065915    1.192454
     28          1           0       -1.890354    0.777258   -0.055582
     29          1           0       -3.326037    1.334816   -0.909436
     30          1           0       -3.052243    1.131508    2.129912
     31          1           0       -4.487680    1.688456    1.277309
     32          1           0       -3.173331    3.602180    0.304263
     33          1           0       -1.729737    3.042068    1.161708
     34          1           0       -3.126051    3.638206    2.075075
 ---------------------------------------------------------------------

 SCF Done:  E(RHF) =  -669.535479428     A.U. after   15 cycles
 E2 =    -0.2091944085D+01 EUMP2 =    -0.67162742351242D+03

 The electronic state is 1-A.
 Alpha  occ. eigenvalues --  -20.60780 -20.60774 -15.85831 -11.31204 -11.27777
 Alpha  occ. eigenvalues --  -11.27768 -11.27523 -11.26800 -11.26790 -11.22091
 Alpha  occ. eigenvalues --  -11.21860 -11.21791 -11.21719 -11.21540 -11.20973
 Alpha  occ. eigenvalues --   -1.59854  -1.39407  -1.19381  -1.08809  -1.08774
 Alpha  occ. eigenvalues --   -1.04788  -1.03819  -0.96259  -0.95608  -0.87267
 Alpha  occ. eigenvalues --   -0.86186  -0.82440  -0.79889  -0.78614  -0.77482
 Alpha  occ. eigenvalues --   -0.72050  -0.71177  -0.70501  -0.65494  -0.65030
 Alpha  occ. eigenvalues --   -0.64788  -0.62130  -0.61226  -0.59635  -0.57859
 Alpha  occ. eigenvalues --   -0.55570  -0.55276  -0.53114  -0.52940  -0.52900
 Alpha  occ. eigenvalues --   -0.52638  -0.50199  -0.48810  -0.48806  -0.48188
 Alpha  occ. eigenvalues --   -0.46949  -0.46116  -0.46076  -0.44811  -0.44099
 Alpha  occ. eigenvalues --   -0.37362  -0.36389
 Alpha virt. eigenvalues --    0.05034   0.11257   0.16507   0.18544   0.23060
 Alpha virt. eigenvalues --    0.23631   0.24700   0.26346   0.27652   0.28187
 Alpha virt. eigenvalues --    0.29968   0.30932   0.31487   0.31708   0.32292

 Mulliken charges:
               1
     1  C   -0.170539
     2  C   -0.223715
     3  C   -0.183321
     4  C    0.158981
     5  C   -0.169724
     6  C   -0.218991
     7  H    0.225797
     8  H    0.224149
     9  H    0.291662
    10  H    0.275784
    11  H    0.223626
    12  N    0.486414
    13  O   -0.460194
    14  O   -0.460395
    15  C   -0.298860
    16  C   -0.300470
    17  C   -0.475272
    18  H    0.143131
    19  H    0.153010
    20  H    0.145975
    21  H    0.157653
    22  H    0.157779
    23  H    0.150672
    24  H    0.162462
    25  C   -0.304309
    26  C   -0.299591
    27  C   -0.476708
    28  H    0.148040
    29  H    0.156517
    30  H    0.148566
    31  H    0.152788
    32  H    0.158367
    33  H    0.160819
    34  H    0.159899
 Sum of Mulliken charges =  -0.00000

 Dipole moment (field-independent basis, Debye):
    X=             -0.4239    Y=             -4.3097    Z=              2.6760  Tot=              5.0906
 Quadrupole moment (field-independent basis, Debye-Ang):
   XX=            -90.1960   YY=            -97.2614   ZZ=            -96.0462
   XY=            -12.6916   XZ=              8.1687   YZ=              0.5652

 Normal termination of Gaussian 16 at Thu May  6 07:39:17 2021.
