 Gaussian 16, Revision A.03,
 Gaussian 16:  EM64L-G16RevA.03 25-Dec-2016

 -------------
 #p 6-31g* mp2
 -------------

 ------------------------------------------------------
 Input file generated by CHIRIPA (05-May-2021 14:53:15)
 ------------------------------------------------------
 Symbolic Z-matrix:
 Charge =  0 Multiplicity = 1

                         Standard orientation:
 ---------------------------------------------------------------------
 Center     Atomic      Atomic             Coordinates (Angstroms)
 Number     Number       Type             X           Y           Z
 ---------------------------------------------------------------------
      1          6           0        3.639990    0.629893    0.259601
      2          6           0        2.780839    1.275821   -0.827884
      3          6           0        1.834855    2.343534   -0.277523
      4          1           0        2.983948    0.183972    1.019672
      5          1           0        4.222662    1.410200    0.768529
      6          1           0        2.200997    0.494352   -1.335532
      7          1           0        3.439003    1.720090   -1.585553
      8          1           0        2.399812    3.143490    0.211858
      9          1           0        1.154773    1.910788    0.463301
     10          1           0        1.230222    2.792191   -1.071869
     11          6           0        4.590866   -0.439555   -0.275042
     12          6           0        5.450016   -1.085483    0.812442
     13          6           0        6.396001   -2.153196    0.262082
     14          1           0        4.008194   -1.219862   -0.783971
     15          1           0        5.246908    0.006366   -1.035113
     16          1           0        4.791853   -1.529752    1.570112
     17          1           0        6.029858   -0.304014    1.320090
     18          1           0        7.076083   -1.720450   -0.478742
     19          1           0        5.831044   -2.953152   -0.227300
     20          1           0        7.000634   -2.601853    1.056427
     21          6           0       -1.757664    1.983116    0.097720
     22          6           0       -2.718860    1.761424    1.089423
     23          6           0       -3.531965    0.624871    1.048700
     24          6           0       -3.356086   -0.273259   -0.002832
     25          6           0       -2.407279   -0.080305   -1.005741
     26          6           0       -1.605210    1.063166   -0.944859
     27          1           0       -1.130310    2.868704    0.137185
     28          1           0       -2.839476    2.474162    1.900286
     29          1           0       -4.283905    0.428605    1.803339
     30          1           0       -2.310419   -0.808770   -1.801591
     31          1           0       -0.859552    1.232752   -1.716402
     32          7           0       -4.211041   -1.480138   -0.056615
     33          8           0       -4.036356   -2.256221   -0.993534
     34          8           0       -5.039652   -1.627155    0.839168
 ---------------------------------------------------------------------

 SCF Done:  E(RHF) =  -669.534591810     A.U. after   15 cycles
 E2 =    -0.2092308647D+01 EUMP2 =    -0.67162690045688D+03

 The electronic state is 1-A.
 Alpha  occ. eigenvalues --  -20.60737 -20.60732 -15.85791 -11.31141 -11.27719
 Alpha  occ. eigenvalues --  -11.27710 -11.27379 -11.26709 -11.26685 -11.22507
 Alpha  occ. eigenvalues --  -11.22232 -11.22035 -11.21974 -11.21853 -11.21355
 Alpha  occ. eigenvalues --   -1.59813  -1.39367  -1.19316  -1.09054  -1.08705
 Alpha  occ. eigenvalues --   -1.04721  -1.04196  -0.96685  -0.95536  -0.87713
 Alpha  occ. eigenvalues --   -0.86103  -0.82381  -0.80285  -0.78810  -0.77432
 Alpha  occ. eigenvalues --   -0.72009  -0.71138  -0.70427  -0.65692  -0.64963
 Alpha  occ. eigenvalues --   -0.64735  -0.62114  -0.61545  -0.60067  -0.58254
 Alpha  occ. eigenvalues --   -0.56006  -0.55196  -0.53383  -0.53178  -0.52953
 Alpha  occ. eigenvalues --   -0.52763  -0.50559  -0.48769  -0.48764  -0.48583
 Alpha  occ. eigenvalues --   -0.47279  -0.46364  -0.46251  -0.44777  -0.44440
 Alpha  occ. eigenvalues --   -0.37242  -0.36325
 Alpha virt. eigenvalues --    0.05080   0.11264   0.16509   0.20185   0.22494
 Alpha virt. eigenvalues --    0.23802   0.25922   0.26238   0.26615   0.27797
 Alpha virt. eigenvalues --    0.28826   0.29974   0.30702   0.31379   0.31956

 Mulliken charges:
               1
     1  C   -0.299446
     2  C   -0.299858
     3  C   -0.484798
     4  H    0.152230
     5  H    0.150661
     6  H    0.150700
     7  H    0.154821
     8  H    0.159516
     9  H    0.160817
    10  H    0.149872
    11  C   -0.299069
    12  C   -0.300271
    13  C   -0.476150
    14  H    0.150886
    15  H    0.150259
    16  H    0.153281
    17  H    0.152136
    18  H    0.155385
    19  H    0.156388
    20  H    0.161673
    21  C   -0.172473
    22  C   -0.220453
    23  C   -0.170906
    24  C    0.158196
    25  C   -0.171676
    26  C   -0.219889
    27  H    0.231477
    28  H    0.223344
    29  H    0.275367
    30  H    0.275228
    31  H    0.225965
    32  N    0.488090
    33  O   -0.460699
    34  O   -0.460605
 Sum of Mulliken charges =  -0.00000

 Dipole moment (field-independent basis, Debye):
    X=              3.2029    Y=              4.2150    Z=              0.2449  Tot=              5.2995
 Quadrupole moment (field-independent basis, Debye-Ang):
   XX=           -114.0505   YY=            -97.5190   ZZ=            -91.5704
   XY=            -15.0149   XZ=             -2.7368   YZ=              1.1669

 Normal termination of Gaussian 16 at Wed May  5 17:08:20 2021.
