 Gaussian 16, Revision A.03,
 Gaussian 16:  EM64L-G16RevA.03 25-Dec-2016

 -------------
 #p 6-31g* mp2
 -------------

 ------------------------------------------------------
 Input file generated by CHIRIPA (05-May-2021 14:55:21)
 ------------------------------------------------------
 Symbolic Z-matrix:
 Charge =  0 Multiplicity = 1

                         Standard orientation:
 ---------------------------------------------------------------------
 Center     Atomic      Atomic             Coordinates (Angstroms)
 Number     Number       Type             X           Y           Z
 ---------------------------------------------------------------------
      1          6           0       -5.216726    0.633410    0.394645
      2          6           0       -4.059339    1.402073    0.556299
      3          6           0       -2.797895    0.841090    0.335830
      4          6           0       -2.730370   -0.497607   -0.047083
      5          6           0       -3.865138   -1.289393   -0.216396
      6          6           0       -5.116109   -0.707506    0.009492
      7          1           0       -6.192578    1.077314    0.568015
      8          1           0       -4.134453    2.443696    0.855338
      9          1           0       -1.885679    1.413267    0.453696
     10          1           0       -3.758370   -2.325095   -0.515295
     11          1           0       -6.013253   -1.306859   -0.116814
     12          7           0       -1.400479   -1.102560   -0.283352
     13          8           0       -1.367913   -2.284182   -0.620020
     14          8           0       -0.415859   -0.383645   -0.127397
     15          6           0        3.184459    0.931980    0.246101
     16          6           0        2.793380    2.031734   -0.741615
     17          6           0        1.609567    2.868762   -0.256059
     18          1           0        2.318329    0.278774    0.419552
     19          1           0        3.430151    1.389086    1.214650
     20          1           0        2.549833    1.572808   -1.708408
     21          1           0        3.660597    2.682286   -0.912881
     22          1           0        1.845419    3.353169    0.697002
     23          1           0        0.728344    2.237387   -0.103045
     24          1           0        1.346848    3.648930   -0.977293
     25          6           0        4.366394    0.086652   -0.225256
     26          6           0        4.757473   -1.013102    0.762460
     27          6           0        5.941286   -1.850130    0.276905
     28          1           0        4.120701   -0.370453   -1.193804
     29          1           0        5.232523    0.739859   -0.398706
     30          1           0        3.890256   -1.663654    0.933726
     31          1           0        5.001020   -0.554176    1.729253
     32          1           0        6.822509   -1.218755    0.123891
     33          1           0        5.705433   -2.334536   -0.676156
     34          1           0        6.204005   -2.630298    0.998138
 ---------------------------------------------------------------------

 SCF Done:  E(RHF) =  -669.536394597     A.U. after   15 cycles
 E2 =    -0.2092006064D+01 EUMP2 =    -0.67162840066052D+03

 The electronic state is 1-A.
 Alpha  occ. eigenvalues --  -20.61072 -20.61063 -15.86099 -11.31348 -11.27905
 Alpha  occ. eigenvalues --  -11.27898 -11.27632 -11.26899 -11.26886 -11.20584
 Alpha  occ. eigenvalues --  -11.20569 -11.20272 -11.20241 -11.20226 -11.19999
 Alpha  occ. eigenvalues --   -1.60128  -1.39688  -1.19512  -1.08930  -1.07304
 Alpha  occ. eigenvalues --   -1.04897  -1.02539  -0.95785  -0.95002  -0.86304
 Alpha  occ. eigenvalues --   -0.86034  -0.82627  -0.78620  -0.77693  -0.77091
 Alpha  occ. eigenvalues --   -0.72340  -0.71433  -0.70623  -0.65177  -0.64902
 Alpha  occ. eigenvalues --   -0.63890  -0.62251  -0.59912  -0.58375  -0.56623
 Alpha  occ. eigenvalues --   -0.55406  -0.54285  -0.53233  -0.52989  -0.51761
 Alpha  occ. eigenvalues --   -0.51456  -0.49255  -0.49077  -0.48744  -0.46935
 Alpha  occ. eigenvalues --   -0.45603  -0.45114  -0.44674  -0.44467  -0.42756
 Alpha  occ. eigenvalues --   -0.37488  -0.36494
 Alpha virt. eigenvalues --    0.04839   0.11158   0.16349   0.20800   0.23911
 Alpha virt. eigenvalues --    0.24614   0.26200   0.27507   0.28007   0.28892
 Alpha virt. eigenvalues --    0.29293   0.30450   0.31509   0.32501   0.32769

 Mulliken charges:
               1
     1  C   -0.170045
     2  C   -0.220531
     3  C   -0.171607
     4  C    0.155528
     5  C   -0.169847
     6  C   -0.218914
     7  H    0.226270
     8  H    0.224809
     9  H    0.281714
    10  H    0.275857
    11  H    0.223976
    12  N    0.497156
    13  O   -0.458253
    14  O   -0.470998
    15  C   -0.310095
    16  C   -0.294376
    17  C   -0.487358
    18  H    0.178939
    19  H    0.141461
    20  H    0.154359
    21  H    0.145921
    22  H    0.149461
    23  H    0.169280
    24  H    0.152982
    25  C   -0.297199
    26  C   -0.300210
    27  C   -0.475163
    28  H    0.151390
    29  H    0.143862
    30  H    0.158259
    31  H    0.148074
    32  H    0.152115
    33  H    0.155602
    34  H    0.157586
 Sum of Mulliken charges =  -0.00000

 Dipole moment (field-independent basis, Debye):
    X=             -5.0427    Y=              1.9039    Z=              0.8145  Tot=              5.4513
 Quadrupole moment (field-independent basis, Debye-Ang):
   XX=            -70.1014   YY=            -94.0805   ZZ=            -95.4017
   XY=             -0.8598   XZ=             -1.2158   YZ=              0.9031

 Normal termination of Gaussian 16 at Wed May  5 20:36:42 2021.
