 Gaussian 16, Revision A.03,
 Gaussian 16:  EM64L-G16RevA.03 25-Dec-2016

 -------------
 #p 6-31g* mp2
 -------------

 ------------------------------------------------------
 Input file generated by CHIRIPA (05-May-2021 14:51:10)
 ------------------------------------------------------
 Symbolic Z-matrix:
 Charge =  0 Multiplicity = 1

                         Standard orientation:
 ---------------------------------------------------------------------
 Center     Atomic      Atomic             Coordinates (Angstroms)
 Number     Number       Type             X           Y           Z
 ---------------------------------------------------------------------
      1          6           0       -3.483026   -0.344505    0.057022
      2          6           0       -3.958381    0.231828   -1.277093
      3          6           0       -5.291399    0.971538   -1.160103
      4          1           0       -4.249721   -1.027186    0.448263
      5          1           0       -3.388166    0.470695    0.787669
      6          1           0       -4.050988   -0.584024   -2.005396
      7          1           0       -3.190382    0.913070   -1.665297
      8          1           0       -5.209188    1.804333   -0.454204
      9          1           0       -6.074683    0.298733   -0.796235
     10          1           0       -5.612491    1.375391   -2.125330
     11          6           0       -2.151714   -1.086923   -0.043728
     12          6           0       -1.676358   -1.663256    1.290387
     13          6           0       -0.343340   -2.402966    1.173397
     14          1           0       -2.246573   -1.902123   -0.774375
     15          1           0       -1.385019   -0.404242   -0.434969
     16          1           0       -2.444358   -2.344498    1.678591
     17          1           0       -1.583752   -0.847404    2.018690
     18          1           0        0.439944   -1.730161    0.809529
     19          1           0       -0.425552   -3.235761    0.467498
     20          1           0       -0.022248   -2.806819    2.138624
     21          6           0        2.383534    1.344244   -0.019677
     22          6           0        1.449678    1.461531    1.185371
     23          6           0        0.588233    2.724099    1.144999
     24          1           0        3.031266    2.230621   -0.061197
     25          1           0        1.784648    1.351324   -0.940915
     26          1           0        2.050048    1.452839    2.104120
     27          1           0        0.804226    0.574681    1.224138
     28          1           0       -0.035129    2.736530    0.245074
     29          1           0        1.217771    3.619677    1.130055
     30          1           0       -0.071744    2.787823    2.015763
     31          6           0        3.251206    0.087185    0.006383
     32          6           0        4.185061   -0.030103   -1.198666
     33          6           0        5.046506   -1.292671   -1.158293
     34          1           0        3.850092    0.080104    0.927621
     35          1           0        2.603474   -0.799193    0.047903
     36          1           0        4.830514    0.856747   -1.237432
     37          1           0        3.584693   -0.021411   -2.117414
     38          1           0        4.416969   -2.188250   -1.143349
     39          1           0        5.669870   -1.305102   -0.258368
     40          1           0        5.706484   -1.356394   -2.029056
 ---------------------------------------------------------------------

 SCF Done:  E(RHF) =  -470.732792071     A.U. after   11 cycles
 E2 =    -0.1584230522D+01 EUMP2 =    -0.47231702259303D+03

 The electronic state is 1-A.
 Alpha  occ. eigenvalues --  -11.21643 -11.21625 -11.21625 -11.21609 -11.21445
 Alpha  occ. eigenvalues --  -11.21436 -11.21379 -11.21372 -11.21135 -11.21088
 Alpha  occ. eigenvalues --  -11.21083 -11.21063  -1.08499  -1.08434  -1.03596
 Alpha  occ. eigenvalues --   -1.03528  -0.96025  -0.95998  -0.87031  -0.87024
 Alpha  occ. eigenvalues --   -0.79637  -0.79618  -0.78325  -0.78237  -0.65365
 Alpha  occ. eigenvalues --   -0.64886  -0.61174  -0.60751  -0.59384  -0.59360
 Alpha  occ. eigenvalues --   -0.57664  -0.57582  -0.55398  -0.55229  -0.52712
 Alpha  occ. eigenvalues --   -0.52698  -0.52462  -0.52407  -0.50000  -0.49939
 Alpha  occ. eigenvalues --   -0.48019  -0.47909  -0.46752  -0.46644  -0.45986
 Alpha  occ. eigenvalues --   -0.45774  -0.45751  -0.45371  -0.43816  -0.43810
 Alpha virt. eigenvalues --    0.19567   0.22876   0.23801   0.24538   0.25550
 Alpha virt. eigenvalues --    0.26557   0.26687   0.28011   0.28799   0.29227
 Alpha virt. eigenvalues --    0.30819   0.31514   0.31668   0.31747   0.32147

 Mulliken charges:
               1
     1  C   -0.298347
     2  C   -0.299584
     3  C   -0.475777
     4  H    0.149774
     5  H    0.150196
     6  H    0.151895
     7  H    0.151601
     8  H    0.155474
     9  H    0.155210
    10  H    0.160310
    11  C   -0.299886
    12  C   -0.300728
    13  C   -0.484995
    14  H    0.149700
    15  H    0.149880
    16  H    0.152722
    17  H    0.152853
    18  H    0.162803
    19  H    0.155319
    20  H    0.161015
    21  C   -0.298157
    22  C   -0.308907
    23  C   -0.475507
    24  H    0.150058
    25  H    0.148975
    26  H    0.152330
    27  H    0.161052
    28  H    0.154591
    29  H    0.155686
    30  H    0.159968
    31  C   -0.305205
    32  C   -0.299228
    33  C   -0.475868
    34  H    0.149842
    35  H    0.155846
    36  H    0.151975
    37  H    0.151970
    38  H    0.155698
    39  H    0.155206
    40  H    0.160240
 Sum of Mulliken charges =  -0.00000

 Dipole moment (field-independent basis, Debye):
    X=              0.0032    Y=             -0.0110    Z=              0.0121  Tot=              0.0167
 Quadrupole moment (field-independent basis, Debye-Ang):
   XX=            -85.3055   YY=            -84.8501   ZZ=            -84.4985
   XY=              1.9433   XZ=              0.4810   YZ=              0.3835

 Normal termination of Gaussian 16 at Wed May  5 21:25:55 2021.
