 Gaussian 16, Revision A.03,
 Gaussian 16:  EM64L-G16RevA.03 25-Dec-2016

 -------------
 #p 6-31g* mp2
 -------------

 ------------------------------------------------------
 Input file generated by CHIRIPA (05-May-2021 14:55:22)
 ------------------------------------------------------
 Symbolic Z-matrix:
 Charge =  0 Multiplicity = 1

                         Standard orientation:
 ---------------------------------------------------------------------
 Center     Atomic      Atomic             Coordinates (Angstroms)
 Number     Number       Type             X           Y           Z
 ---------------------------------------------------------------------
      1          6           0        0.917792   -2.350548    0.484662
      2          6           0        1.993362   -2.423553   -0.406595
      3          6           0        2.819574   -1.315109   -0.614622
      4          6           0        2.540029   -0.144275    0.088438
      5          6           0        1.476042   -0.040298    0.983094
      6          6           0        0.663013   -1.161251    1.175444
      7          1           0        0.281091   -3.216473    0.640173
      8          1           0        2.193604   -3.345874   -0.944436
      9          1           0        3.658977   -1.344062   -1.298713
     10          1           0        1.301480    0.892851    1.504800
     11          1           0       -0.171584   -1.101665    1.868223
     12          7           0        3.407724    1.035806   -0.123493
     13          8           0        3.140297    2.055717    0.508094
     14          8           0        4.338820    0.918498   -0.917178
     15          6           0       -3.321392    1.153905   -0.135273
     16          6           0       -2.198393    2.191619   -0.132750
     17          6           0       -2.720780    3.627876   -0.087261
     18          1           0       -3.977052    1.334612   -0.998059
     19          1           0       -3.940471    1.291639    0.762036
     20          1           0       -1.580796    2.051078   -1.029098
     21          1           0       -1.545221    2.008302    0.730023
     22          1           0       -3.319995    3.791487    0.814279
     23          1           0       -3.355773    3.834506   -0.954836
     24          1           0       -1.901255    4.353300   -0.086195
     25          6           0       -2.814985   -0.286662   -0.180545
     26          6           0       -3.937985   -1.324376   -0.183067
     27          6           0       -3.415598   -2.760633   -0.228557
     28          1           0       -2.195906   -0.424396   -1.077854
     29          1           0       -2.159326   -0.467369    0.682242
     30          1           0       -4.591157   -1.141058   -1.045840
     31          1           0       -4.555581   -1.183834    0.713281
     32          1           0       -2.780604   -2.967262    0.639020
     33          1           0       -2.816382   -2.924244   -1.130096
     34          1           0       -4.235122   -3.486056   -0.229623
 ---------------------------------------------------------------------

 SCF Done:  E(RHF) =  -669.534842397     A.U. after   15 cycles
 E2 =    -0.2092981043D+01 EUMP2 =    -0.67162782343948D+03

 The electronic state is 1-A.
 Alpha  occ. eigenvalues --  -20.60742 -20.60737 -15.85796 -11.31155 -11.27720
 Alpha  occ. eigenvalues --  -11.27715 -11.27446 -11.26739 -11.26726 -11.22271
 Alpha  occ. eigenvalues --  -11.21974 -11.21965 -11.21924 -11.21794 -11.21211
 Alpha  occ. eigenvalues --   -1.59818  -1.39371  -1.19327  -1.08960  -1.08715
 Alpha  occ. eigenvalues --   -1.04734  -1.04036  -0.96493  -0.95555  -0.87513
 Alpha  occ. eigenvalues --   -0.86135  -0.82395  -0.80112  -0.78765  -0.77432
 Alpha  occ. eigenvalues --   -0.72014  -0.71140  -0.70424  -0.65648  -0.64980
 Alpha  occ. eigenvalues --   -0.64724  -0.62089  -0.61436  -0.59867  -0.58092
 Alpha  occ. eigenvalues --   -0.55821  -0.55213  -0.53216  -0.53063  -0.52957
 Alpha  occ. eigenvalues --   -0.52760  -0.50447  -0.48777  -0.48769  -0.48417
 Alpha  occ. eigenvalues --   -0.47147  -0.46292  -0.46186  -0.44778  -0.44276
 Alpha  occ. eigenvalues --   -0.37277  -0.36283
 Alpha virt. eigenvalues --    0.05070   0.11237   0.16476   0.19356   0.22857
 Alpha virt. eigenvalues --    0.23298   0.25149   0.26286   0.26616   0.27993
 Alpha virt. eigenvalues --    0.30085   0.30378   0.31046   0.31256   0.31736

 Mulliken charges:
               1
     1  C   -0.171736
     2  C   -0.219085
     3  C   -0.171072
     4  C    0.158076
     5  C   -0.171439
     6  C   -0.213836
     7  H    0.227387
     8  H    0.223366
     9  H    0.275355
    10  H    0.275559
    11  H    0.222287
    12  N    0.488089
    13  O   -0.460490
    14  O   -0.460657
    15  C   -0.299053
    16  C   -0.298401
    17  C   -0.476746
    18  H    0.151833
    19  H    0.149029
    20  H    0.156042
    21  H    0.145392
    22  H    0.154412
    23  H    0.156005
    24  H    0.165742
    25  C   -0.298658
    26  C   -0.299922
    27  C   -0.475474
    28  H    0.153482
    29  H    0.141758
    30  H    0.155442
    31  H    0.152707
    32  H    0.144665
    33  H    0.156155
    34  H    0.163787
 Sum of Mulliken charges =  -0.00000

 Dipole moment (field-independent basis, Debye):
    X=             -3.1370    Y=             -4.0745    Z=              0.6328  Tot=              5.1810
 Quadrupole moment (field-independent basis, Debye-Ang):
   XX=           -109.2279   YY=            -93.6462   ZZ=            -91.9490
   XY=            -11.7261   XZ=             -0.1445   YZ=              1.4479

 Normal termination of Gaussian 16 at Wed May  5 23:52:10 2021.
