 Gaussian 16, Revision A.03,
 Gaussian 16:  EM64L-G16RevA.03 25-Dec-2016

 -------------
 #p 6-31g* mp2
 -------------

 ------------------------------------------------------
 Input file generated by CHIRIPA (05-May-2021 14:53:13)
 ------------------------------------------------------
 Symbolic Z-matrix:
 Charge =  0 Multiplicity = 1

                         Standard orientation:
 ---------------------------------------------------------------------
 Center     Atomic      Atomic             Coordinates (Angstroms)
 Number     Number       Type             X           Y           Z
 ---------------------------------------------------------------------
      1          6           0        2.715687    0.663827   -0.255433
      2          6           0        3.428383    1.640149   -1.191833
      3          6           0        2.688865    2.970995   -1.332389
      4          1           0        1.699053    0.482224   -0.630159
      5          1           0        2.605676    1.129484    0.733737
      6          1           0        3.538251    1.172257   -2.178557
      7          1           0        4.443505    1.819300   -0.814939
      8          1           0        2.591831    3.462477   -0.358925
      9          1           0        1.681434    2.811757   -1.730290
     10          1           0        3.215739    3.653841   -2.006174
     11          6           0        3.442839   -0.671184   -0.104692
     12          6           0        2.730144   -1.647506    0.831709
     13          6           0        3.469661   -2.978352    0.972264
     14          1           0        3.552851   -1.136841   -1.093861
     15          1           0        4.459474   -0.489581    0.270034
     16          1           0        1.715022   -1.826657    0.454815
     17          1           0        2.620276   -1.179614    1.818432
     18          1           0        4.477093   -2.819114    1.370166
     19          1           0        3.566696   -3.469834   -0.001199
     20          1           0        2.942788   -3.661197    1.646049
     21          6           0       -1.603663    1.806301    1.712409
     22          6           0       -2.891865    1.871454    1.171287
     23          6           0       -3.346807    0.877806    0.299371
     24          6           0       -2.483210   -0.171475   -0.011276
     25          6           0       -1.194303   -0.264390    0.511576
     26          6           0       -0.760480    0.740467    1.381410
     27          1           0       -1.258456    2.582544    2.388925
     28          1           0       -3.548866    2.698026    1.426574
     29          1           0       -4.339289    0.903537   -0.133915
     30          1           0       -0.562285   -1.100674    0.238443
     31          1           0        0.240457    0.687278    1.800147
     32          7           0       -2.953658   -1.229339   -0.933233
     33          8           0       -2.173482   -2.143358   -1.191167
     34          8           0       -4.093664   -1.124442   -1.380469
 ---------------------------------------------------------------------

 SCF Done:  E(RHF) =  -669.534943242     A.U. after   15 cycles
 E2 =    -0.2093438606D+01 EUMP2 =    -0.67162838184784D+03

 The electronic state is 1-A.
 Alpha  occ. eigenvalues --  -20.60743 -20.60737 -15.85792 -11.31124 -11.27684
 Alpha  occ. eigenvalues --  -11.27645 -11.27405 -11.26710 -11.26629 -11.22391
 Alpha  occ. eigenvalues --  -11.22117 -11.22057 -11.21959 -11.21523 -11.21517
 Alpha  occ. eigenvalues --   -1.59817  -1.39372  -1.19289  -1.09070  -1.08688
 Alpha  occ. eigenvalues --   -1.04682  -1.04093  -0.96514  -0.95533  -0.87532
 Alpha  occ. eigenvalues --   -0.86083  -0.82375  -0.80192  -0.78971  -0.77372
 Alpha  occ. eigenvalues --   -0.72012  -0.71139  -0.70408  -0.65727  -0.64931
 Alpha  occ. eigenvalues --   -0.64657  -0.62070  -0.61459  -0.59884  -0.58147
 Alpha  occ. eigenvalues --   -0.55790  -0.55192  -0.53198  -0.53118  -0.52933
 Alpha  occ. eigenvalues --   -0.52695  -0.50449  -0.48774  -0.48768  -0.48486
 Alpha  occ. eigenvalues --   -0.47217  -0.46397  -0.46342  -0.44783  -0.44359
 Alpha  occ. eigenvalues --   -0.37270  -0.36242
 Alpha virt. eigenvalues --    0.05077   0.11334   0.16518   0.19674   0.22866
 Alpha virt. eigenvalues --    0.23505   0.24227   0.25115   0.27435   0.28573
 Alpha virt. eigenvalues --    0.29378   0.30697   0.31469   0.31518   0.31760

 Mulliken charges:
               1
     1  C   -0.304418
     2  C   -0.299783
     3  C   -0.476309
     4  H    0.154111
     5  H    0.141007
     6  H    0.156138
     7  H    0.152867
     8  H    0.151255
     9  H    0.158296
    10  H    0.162592
    11  C   -0.297590
    12  C   -0.308323
    13  C   -0.475187
    14  H    0.155393
    15  H    0.151698
    16  H    0.152237
    17  H    0.146647
    18  H    0.156462
    19  H    0.160468
    20  H    0.163007
    21  C   -0.172291
    22  C   -0.218519
    23  C   -0.170960
    24  C    0.159767
    25  C   -0.182509
    26  C   -0.220500
    27  H    0.225299
    28  H    0.223153
    29  H    0.275246
    30  H    0.284527
    31  H    0.230079
    32  N    0.487516
    33  O   -0.460924
    34  O   -0.460452
 Sum of Mulliken charges =  -0.00000

 Dipole moment (field-independent basis, Debye):
    X=              1.8300    Y=              3.6688    Z=              3.1457  Tot=              5.1676
 Quadrupole moment (field-independent basis, Debye-Ang):
   XX=            -98.6882   YY=            -96.0528   ZZ=            -94.8959
   XY=            -11.7414   XZ=             -7.6931   YZ=             -0.3583

 Normal termination of Gaussian 16 at Thu May  6 13:44:28 2021.
