 Gaussian 16, Revision A.03,
 Gaussian 16:  EM64L-G16RevA.03 25-Dec-2016

 -------------
 #p 6-31g* mp2
 -------------

 ------------------------------------------------------
 Input file generated by CHIRIPA (05-May-2021 14:51:07)
 ------------------------------------------------------
 Symbolic Z-matrix:
 Charge =  0 Multiplicity = 1

                         Standard orientation:
 ---------------------------------------------------------------------
 Center     Atomic      Atomic             Coordinates (Angstroms)
 Number     Number       Type             X           Y           Z
 ---------------------------------------------------------------------
      1          6           0       -1.376934   -1.621029   -0.361091
      2          6           0       -0.850934   -2.805800    0.449851
      3          6           0        0.343207   -3.492638   -0.213531
      4          1           0       -1.662421   -1.968759   -1.363351
      5          1           0       -0.565912   -0.893169   -0.502016
      6          1           0       -1.663081   -3.530565    0.590387
      7          1           0       -0.566845   -2.455245    1.450361
      8          1           0        1.171753   -2.788168   -0.339364
      9          1           0        0.069288   -3.869597   -1.204224
     10          1           0        0.703172   -4.336686    0.383016
     11          6           0       -2.570718   -0.924079    0.289192
     12          6           0       -3.096717    0.260693   -0.521750
     13          6           0       -4.290858    0.947530    0.141632
     14          1           0       -3.381739   -1.651938    0.430117
     15          1           0       -2.285230   -0.576348    1.291452
     16          1           0       -3.380807   -0.089862   -1.522260
     17          1           0       -2.284571    0.985457   -0.662286
     18          1           0       -4.016940    1.324490    1.132325
     19          1           0       -5.119405    0.243060    0.267465
     20          1           0       -4.650823    1.791578   -0.454915
     21          6           0        2.558058    0.915467   -0.302568
     22          6           0        3.106196   -0.256826    0.511839
     23          6           0        4.274618   -0.961126   -0.178482
     24          1           0        2.237691    0.550939   -1.288179
     25          1           0        3.366822    1.636875   -0.483861
     26          1           0        2.296306   -0.975140    0.692725
     27          1           0        3.425118    0.110503    1.495696
     28          1           0        5.101309   -0.262912   -0.344852
     29          1           0        3.966083   -1.354722   -1.152386
     30          1           0        4.650994   -1.795873    0.421015
     31          6           0        1.389593    1.629640    0.374467
     32          6           0        0.841456    2.801932   -0.439941
     33          6           0       -0.326966    3.506234    0.250381
     34          1           0        0.580830    0.908233    0.555760
     35          1           0        1.709961    1.994169    1.360078
     36          1           0        0.522534    2.434605   -1.423797
     37          1           0        1.651345    3.520248   -0.620826
     38          1           0       -0.018431    3.899830    1.224286
     39          1           0       -1.153657    2.808020    0.416751
     40          1           0       -0.703343    4.340981   -0.349116
 ---------------------------------------------------------------------

 SCF Done:  E(RHF) =  -470.732219089     A.U. after   11 cycles
 E2 =    -0.1585852499D+01 EUMP2 =    -0.47231807158828D+03

 The electronic state is 1-A.
 Alpha  occ. eigenvalues --  -11.21654 -11.21652 -11.21637 -11.21636 -11.21458
 Alpha  occ. eigenvalues --  -11.21457 -11.21398 -11.21397 -11.21101 -11.21101
 Alpha  occ. eigenvalues --  -11.21098 -11.21093  -1.08556  -1.08429  -1.03640
 Alpha  occ. eigenvalues --   -1.03524  -0.96087  -0.95972  -0.87065  -0.87021
 Alpha  occ. eigenvalues --   -0.79695  -0.79596  -0.78408  -0.78214  -0.65625
 Alpha  occ. eigenvalues --   -0.64672  -0.61436  -0.60601  -0.59406  -0.59358
 Alpha  occ. eigenvalues --   -0.57720  -0.57585  -0.55699  -0.54970  -0.52714
 Alpha  occ. eigenvalues --   -0.52710  -0.52507  -0.52377  -0.50141  -0.49791
 Alpha  occ. eigenvalues --   -0.48118  -0.47820  -0.46850  -0.46564  -0.46239
 Alpha  occ. eigenvalues --   -0.45826  -0.45790  -0.45179  -0.43837  -0.43818
 Alpha virt. eigenvalues --    0.18662   0.21130   0.23462   0.24821   0.26023
 Alpha virt. eigenvalues --    0.26698   0.26825   0.28088   0.28746   0.29931
 Alpha virt. eigenvalues --    0.31184   0.31561   0.31707   0.31765   0.32772

 Mulliken charges:
               1
     1  C   -0.305142
     2  C   -0.300074
     3  C   -0.481592
     4  H    0.150212
     5  H    0.154725
     6  H    0.152590
     7  H    0.152185
     8  H    0.160766
     9  H    0.155346
    10  H    0.160684
    11  C   -0.298737
    12  C   -0.306393
    13  C   -0.476067
    14  H    0.150240
    15  H    0.149852
    16  H    0.152474
    17  H    0.157072
    18  H    0.155603
    19  H    0.155486
    20  H    0.160825
    21  C   -0.298926
    22  C   -0.306253
    23  C   -0.476184
    24  H    0.150025
    25  H    0.150261
    26  H    0.156760
    27  H    0.152556
    28  H    0.155496
    29  H    0.155742
    30  H    0.160834
    31  C   -0.304698
    32  C   -0.300283
    33  C   -0.481019
    34  H    0.154207
    35  H    0.150275
    36  H    0.152351
    37  H    0.152608
    38  H    0.155380
    39  H    0.160108
    40  H    0.160703
 Sum of Mulliken charges =  -0.00000

 Dipole moment (field-independent basis, Debye):
    X=              0.0023    Y=              0.0017    Z=             -0.0013  Tot=              0.0031
 Quadrupole moment (field-independent basis, Debye-Ang):
   XX=            -85.2823   YY=            -84.6984   ZZ=            -84.5769
   XY=              1.8368   XZ=              1.2472   YZ=              0.1569

 Normal termination of Gaussian 16 at Thu May  6 03:39:03 2021.
