 Gaussian 16, Revision A.03,
 Gaussian 16:  EM64L-G16RevA.03 25-Dec-2016

 -------------
 #p 6-31g* mp2
 -------------

 ------------------------------------------------------
 Input file generated by CHIRIPA (05-May-2021 14:55:22)
 ------------------------------------------------------
 Symbolic Z-matrix:
 Charge =  0 Multiplicity = 1

                         Standard orientation:
 ---------------------------------------------------------------------
 Center     Atomic      Atomic             Coordinates (Angstroms)
 Number     Number       Type             X           Y           Z
 ---------------------------------------------------------------------
      1          6           0        1.957892   -2.116989    1.296762
      2          6           0        1.137424   -1.489689    0.353444
      3          6           0        1.602154   -0.387916   -0.370898
      4          6           0        2.898469    0.062211   -0.125452
      5          6           0        3.739962   -0.541428    0.807715
      6          6           0        3.254256   -1.641694    1.520492
      7          1           0        1.588731   -2.972287    1.854957
      8          1           0        0.130215   -1.856642    0.177608
      9          1           0        0.988189    0.116563   -1.107081
     10          1           0        4.739404   -0.152805    0.961032
     11          1           0        3.893665   -2.126889    2.252467
     12          7           0        3.401560    1.227811   -0.886159
     13          8           0        4.547494    1.605102   -0.651376
     14          8           0        2.640423    1.742046   -1.702780
     15          6           0       -3.889030   -0.351445   -0.483753
     16          6           0       -3.221613   -1.722226   -0.367576
     17          6           0       -3.802831   -2.747200   -1.341952
     18          1           0       -4.967520   -0.459421   -0.304452
     19          1           0       -3.778613    0.016315   -1.513295
     20          1           0       -3.332053   -2.086674    0.661791
     21          1           0       -2.144560   -1.610944   -0.546986
     22          1           0       -3.679043   -2.409171   -2.375884
     23          1           0       -4.873283   -2.887604   -1.160239
     24          1           0       -3.311279   -3.719939   -1.241889
     25          6           0       -3.318785    0.683974    0.483953
     26          6           0       -3.986203    2.054755    0.367776
     27          6           0       -3.404985    3.079729    1.342152
     28          1           0       -3.429203    0.316214    1.513495
     29          1           0       -2.240297    0.791949    0.304652
     30          1           0       -5.063257    1.943473    0.547185
     31          1           0       -3.875764    2.419203   -0.661591
     32          1           0       -2.334533    3.220133    1.160439
     33          1           0       -3.528773    2.741701    2.376083
     34          1           0       -3.896538    4.052469    1.242089
 ---------------------------------------------------------------------

 SCF Done:  E(RHF) =  -669.535603313     A.U. after   15 cycles
 E2 =    -0.2091286859D+01 EUMP2 =    -0.67162689017241D+03

 The electronic state is 1-A.
 Alpha  occ. eigenvalues --  -20.60756 -20.60751 -15.85809 -11.31166 -11.27732
 Alpha  occ. eigenvalues --  -11.27728 -11.27462 -11.26748 -11.26705 -11.22533
 Alpha  occ. eigenvalues --  -11.21995 -11.21911 -11.21852 -11.21785 -11.21231
 Alpha  occ. eigenvalues --   -1.59832  -1.39386  -1.19334  -1.09002  -1.08729
 Alpha  occ. eigenvalues --   -1.04736  -1.04061  -0.96473  -0.95567  -0.87493
 Alpha  occ. eigenvalues --   -0.86134  -0.82404  -0.80172  -0.78797  -0.77447
 Alpha  occ. eigenvalues --   -0.72027  -0.71154  -0.70443  -0.65656  -0.64984
 Alpha  occ. eigenvalues --   -0.64737  -0.62116  -0.61430  -0.59872  -0.58092
 Alpha  occ. eigenvalues --   -0.55743  -0.55236  -0.53190  -0.53064  -0.52930
 Alpha  occ. eigenvalues --   -0.52797  -0.50413  -0.48796  -0.48783  -0.48443
 Alpha  occ. eigenvalues --   -0.47204  -0.46325  -0.46230  -0.44793  -0.44312
 Alpha  occ. eigenvalues --   -0.37312  -0.36336
 Alpha virt. eigenvalues --    0.05074   0.11315   0.16545   0.19440   0.22724
 Alpha virt. eigenvalues --    0.23751   0.24792   0.26446   0.27333   0.28228
 Alpha virt. eigenvalues --    0.29613   0.29823   0.31139   0.31398   0.32124

 Mulliken charges:
               1
     1  C   -0.172274
     2  C   -0.225131
     3  C   -0.174093
     4  C    0.158761
     5  C   -0.171194
     6  C   -0.218339
     7  H    0.226240
     8  H    0.234623
     9  H    0.274527
    10  H    0.275502
    11  H    0.223287
    12  N    0.488151
    13  O   -0.460472
    14  O   -0.460774
    15  C   -0.298425
    16  C   -0.305187
    17  C   -0.475413
    18  H    0.152806
    19  H    0.152475
    20  H    0.152306
    21  H    0.143824
    22  H    0.158357
    23  H    0.158929
    24  H    0.158956
    25  C   -0.298518
    26  C   -0.300305
    27  C   -0.476559
    28  H    0.149354
    29  H    0.146595
    30  H    0.152476
    31  H    0.154551
    32  H    0.158255
    33  H    0.154375
    34  H    0.162336
 Sum of Mulliken charges =  -0.00000

 Dipole moment (field-independent basis, Debye):
    X=             -1.9495    Y=             -4.0552    Z=              2.6790  Tot=              5.2366
 Quadrupole moment (field-independent basis, Debye-Ang):
   XX=           -100.2327   YY=            -96.3957   ZZ=            -94.7497
   XY=            -12.5753   XZ=             10.0090   YZ=             -0.2805

 Normal termination of Gaussian 16 at Thu May  6 17:33:33 2021.
