 Gaussian 16, Revision A.03,
 Gaussian 16:  EM64L-G16RevA.03 25-Dec-2016

 -------------
 #p 6-31g* mp2
 -------------

 ------------------------------------------------------
 Input file generated by CHIRIPA (05-May-2021 14:57:24)
 ------------------------------------------------------
 Symbolic Z-matrix:
 Charge =  0 Multiplicity = 1

                         Standard orientation:
 ---------------------------------------------------------------------
 Center     Atomic      Atomic             Coordinates (Angstroms)
 Number     Number       Type             X           Y           Z
 ---------------------------------------------------------------------
      1          6           0        5.626705    0.203953    0.402249
      2          6           0        4.800159    1.204277   -0.119952
      3          6           0        3.451368    0.945920   -0.381797
      4          6           0        2.960082   -0.329670   -0.108301
      5          6           0        3.758258   -1.347222    0.412075
      6          6           0        5.104038   -1.066365    0.666131
      7          1           0        6.673308    0.413390    0.602631
      8          1           0        5.203344    2.191742   -0.325865
      9          1           0        2.789132    1.701891   -0.785985
     10          1           0        3.327633   -2.321889    0.607025
     11          1           0        5.743601   -1.845163    1.071688
     12          7           0        1.533772   -0.615091   -0.381381
     13          8           0        1.125188   -1.747066   -0.131722
     14          8           0        0.851421    0.298575   -0.839911
     15          6           0       -4.383353   -1.941862   -0.012559
     16          6           0       -4.351338   -1.205541    1.176276
     17          6           0       -3.695926    0.028198    1.229876
     18          6           0       -3.080285    0.497684    0.070627
     19          6           0       -3.094751   -0.212487   -1.128847
     20          6           0       -3.756063   -1.443863   -1.159304
     21          1           0       -4.894784   -2.899341   -0.045207
     22          1           0       -4.837636   -1.589825    2.068399
     23          1           0       -3.655762    0.618920    2.136988
     24          1           0       -2.600879    0.196590   -2.001867
     25          1           0       -3.779313   -2.013532   -2.083957
     26          7           0       -2.383307    1.802538    0.115121
     27          8           0       -1.848615    2.194202   -0.919935
     28          8           0       -2.384904    2.408909    1.184208
 ---------------------------------------------------------------------

 SCF Done:  E(RHF) =  -868.338343084     A.U. after   16 cycles
 E2 =    -0.2599802740D+01 EUMP2 =    -0.87093814582341D+03

 The electronic state is 1-A.
 Alpha  occ. eigenvalues --  -20.60557 -20.60490 -20.59505 -20.59403 -15.85551
 Alpha  occ. eigenvalues --  -15.84497 -11.30896 -11.29845 -11.27510 -11.27411
 Alpha  occ. eigenvalues --  -11.27236 -11.26517 -11.26517 -11.26456 -11.26389
 Alpha  occ. eigenvalues --  -11.26280 -11.25555 -11.25467  -1.59607  -1.58507
 Alpha  occ. eigenvalues --   -1.39152  -1.38064  -1.19078  -1.18042  -1.08486
 Alpha  occ. eigenvalues --   -1.07458  -1.04474  -1.03470  -0.95319  -0.94295
 Alpha  occ. eigenvalues --   -0.85875  -0.84877  -0.82143  -0.81145  -0.77186
 Alpha  occ. eigenvalues --   -0.76168  -0.71798  -0.70933  -0.70748  -0.70190
 Alpha  occ. eigenvalues --   -0.69747  -0.69214  -0.64728  -0.64482  -0.63729
 Alpha  occ. eigenvalues --   -0.63521  -0.61813  -0.60834  -0.54995  -0.54034
 Alpha  occ. eigenvalues --   -0.52812  -0.52565  -0.51768  -0.51599  -0.48575
 Alpha  occ. eigenvalues --   -0.48541  -0.47517  -0.47474  -0.44582  -0.43430
 Alpha  occ. eigenvalues --   -0.37071  -0.36077  -0.36033  -0.35045
 Alpha virt. eigenvalues --    0.05331   0.06407   0.11577   0.12605   0.16820
 Alpha virt. eigenvalues --    0.17861   0.21710   0.22548   0.27625   0.28435
 Alpha virt. eigenvalues --    0.28628   0.29465   0.31256   0.32028   0.32917

 Mulliken charges:
               1
     1  C   -0.170747
     2  C   -0.218931
     3  C   -0.170557
     4  C    0.157450
     5  C   -0.171373
     6  C   -0.218895
     7  H    0.224804
     8  H    0.224370
     9  H    0.282493
    10  H    0.273487
    11  H    0.221890
    12  N    0.488041
    13  O   -0.466618
    14  O   -0.455375
    15  C   -0.170192
    16  C   -0.218831
    17  C   -0.171591
    18  C    0.162032
    19  C   -0.157816
    20  C   -0.217417
    21  H    0.220781
    22  H    0.217999
    23  H    0.270992
    24  H    0.277884
    25  H    0.219989
    26  N    0.490549
    27  O   -0.454164
    28  O   -0.470257
 Sum of Mulliken charges =  -0.00000

 Dipole moment (field-independent basis, Debye):
    X=              2.7899    Y=             -3.4425    Z=              0.5807  Tot=              4.4690
 Quadrupole moment (field-independent basis, Debye-Ang):
   XX=            -62.3289   YY=           -106.8159   ZZ=           -100.8435
   XY=             13.9550   XZ=              1.9790   YZ=             -2.2614

 Normal termination of Gaussian 16 at Fri May  7 03:27:52 2021.
