 Gaussian 16, Revision A.03,
 Gaussian 16:  EM64L-G16RevA.03 25-Dec-2016

 -------------
 #p 6-31g* mp2
 -------------

 ------------------------------------------------------
 Input file generated by CHIRIPA (05-May-2021 14:57:23)
 ------------------------------------------------------
 Symbolic Z-matrix:
 Charge =  0 Multiplicity = 1

                         Standard orientation:
 ---------------------------------------------------------------------
 Center     Atomic      Atomic             Coordinates (Angstroms)
 Number     Number       Type             X           Y           Z
 ---------------------------------------------------------------------
      1          6           0        4.587387   -1.809035    0.786800
      2          6           0        4.669885   -1.366605   -0.537575
      3          6           0        4.026166   -0.190848   -0.934779
      4          6           0        3.305324    0.520972    0.022816
      5          6           0        3.204431    0.106102    1.349841
      6          6           0        3.856212   -1.072568    1.724628
      7          1           0        5.090574   -2.723523    1.086651
      8          1           0        5.237017   -1.936526   -1.268052
      9          1           0        4.073535    0.174551   -1.953434
     10          1           0        2.631634    0.695610    2.055392
     11          1           0        3.790414   -1.413767    2.753850
     12          7           0        2.619580    1.767235   -0.385820
     13          8           0        1.990807    2.376296    0.476923
     14          8           0        2.723851    2.111396   -1.561115
     15          6           0       -1.365013   -1.598905   -0.799262
     16          6           0       -2.606143   -2.241245   -0.739973
     17          6           0       -3.750516   -1.540063   -0.348435
     18          6           0       -3.616851   -0.191504   -0.021611
     19          6           0       -2.394295    0.476498   -0.070826
     20          6           0       -1.263230   -0.244471   -0.465089
     21          1           0       -0.481206   -2.151285   -1.104477
     22          1           0       -2.688172   -3.293033   -0.998931
     23          1           0       -4.723722   -2.012616   -0.293838
     24          1           0       -2.343960    1.525846    0.193282
     25          1           0       -0.300648    0.256970   -0.510223
     26          7           0       -4.821303    0.561279    0.394335
     27          8           0       -4.677004    1.748623    0.677229
     28          8           0       -5.886846   -0.050287    0.429584
 ---------------------------------------------------------------------

 SCF Done:  E(RHF) =  -868.338327258     A.U. after   16 cycles
 E2 =    -0.2599342468D+01 EUMP2 =    -0.87093766972587D+03

 The electronic state is 1-A.
 Alpha  occ. eigenvalues --  -20.61766 -20.61759 -20.60410 -20.60393 -15.86802
 Alpha  occ. eigenvalues --  -15.85456 -11.32085 -11.30807 -11.28628 -11.28614
 Alpha  occ. eigenvalues --  -11.28324 -11.27600 -11.27577 -11.27419 -11.27298
 Alpha  occ. eigenvalues --  -11.27167 -11.26460 -11.26337  -1.60856  -1.59481
 Alpha  occ. eigenvalues --   -1.40400  -1.39033  -1.20244  -1.18988  -1.09651
 Alpha  occ. eigenvalues --   -1.08400  -1.05610  -1.04373  -0.96494  -0.95230
 Alpha  occ. eigenvalues --   -0.87010  -0.85787  -0.83310  -0.82048  -0.78380
 Alpha  occ. eigenvalues --   -0.77088  -0.72996  -0.72214  -0.71675  -0.71313
 Alpha  occ. eigenvalues --   -0.70805  -0.70114  -0.65875  -0.65586  -0.64639
 Alpha  occ. eigenvalues --   -0.64377  -0.62942  -0.61705  -0.56093  -0.54924
 Alpha  occ. eigenvalues --   -0.53973  -0.53679  -0.52728  -0.52462  -0.49773
 Alpha  occ. eigenvalues --   -0.49757  -0.48439  -0.48425  -0.45804  -0.44441
 Alpha  occ. eigenvalues --   -0.38227  -0.37220  -0.37001  -0.35976
 Alpha virt. eigenvalues --    0.04111   0.05429   0.10423   0.11669   0.15618
 Alpha virt. eigenvalues --    0.16913   0.20668   0.21604   0.26605   0.27000
 Alpha virt. eigenvalues --    0.27679   0.28658   0.30184   0.31056   0.31834

 Mulliken charges:
               1
     1  C   -0.170877
     2  C   -0.219502
     3  C   -0.172958
     4  C    0.151628
     5  C   -0.172757
     6  C   -0.218700
     7  H    0.228449
     8  H    0.225841
     9  H    0.277208
    10  H    0.278174
    11  H    0.226966
    12  N    0.485468
    13  O   -0.459863
    14  O   -0.456678
    15  C   -0.171848
    16  C   -0.218929
    17  C   -0.171815
    18  C    0.158078
    19  C   -0.171686
    20  C   -0.219431
    21  H    0.222213
    22  H    0.220639
    23  H    0.274124
    24  H    0.282302
    25  H    0.227007
    26  N    0.487928
    27  O   -0.458470
    28  O   -0.462511
 Sum of Mulliken charges =  -0.00000

 Dipole moment (field-independent basis, Debye):
    X=              6.9172    Y=             -6.9564    Z=              0.0376  Tot=              9.8103
 Quadrupole moment (field-independent basis, Debye-Ang):
   XX=           -118.1564   YY=           -105.7291   ZZ=           -100.9906
   XY=             -2.8093   XZ=              8.7546   YZ=              2.0554

 Normal termination of Gaussian 16 at Thu May  6 11:19:08 2021.
