 Gaussian 16, Revision A.03,
 Gaussian 16:  EM64L-G16RevA.03 25-Dec-2016

 -------------
 #p 6-31g* mp2
 -------------

 ------------------------------------------------------
 Input file generated by CHIRIPA (05-May-2021 14:57:26)
 ------------------------------------------------------
 Symbolic Z-matrix:
 Charge =  0 Multiplicity = 1

                         Standard orientation:
 ---------------------------------------------------------------------
 Center     Atomic      Atomic             Coordinates (Angstroms)
 Number     Number       Type             X           Y           Z
 ---------------------------------------------------------------------
      1          6           0        2.184066   -0.973720    2.142374
      2          6           0        2.819011   -1.883715    1.290744
      3          6           0        3.458587   -1.441474    0.128886
      4          6           0        3.443747   -0.076111   -0.151921
      5          6           0        2.819781    0.855208    0.676693
      6          6           0        2.186473    0.390432    1.833176
      7          1           0        1.689663   -1.326016    3.042846
      8          1           0        2.818736   -2.943710    1.528350
      9          1           0        3.957768   -2.124196   -0.547965
     10          1           0        2.836854    1.905796    0.413273
     11          1           0        1.694166    1.099428    2.492724
     12          7           0        4.117519    0.403998   -1.379083
     13          8           0        4.090262    1.612006   -1.604049
     14          8           0        4.660121   -0.436792   -2.092730
     15          6           0       -1.991658    2.054959    0.928746
     16          6           0       -1.590359    0.732081    1.141992
     17          6           0       -2.325748   -0.328412    0.604305
     18          6           0       -3.462348   -0.028419   -0.144984
     19          6           0       -3.887787    1.279003   -0.375065
     20          6           0       -3.137072    2.323725    0.172233
     21          1           0       -1.414437    2.872649    1.350166
     22          1           0       -0.701241    0.520375    1.729100
     23          1           0       -2.037678   -1.361887    0.753848
     24          1           0       -4.778591    1.458648   -0.964653
     25          1           0       -3.451094    3.350109    0.004993
     26          7           0       -4.248984   -1.142767   -0.719294
     27          8           0       -5.246543   -0.851967   -1.375762
     28          8           0       -3.853096   -2.285891   -0.502098
 ---------------------------------------------------------------------

 SCF Done:  E(RHF) =  -868.336490067     A.U. after   16 cycles
 E2 =    -0.2600932057D+01 EUMP2 =    -0.87093742212457D+03

 The electronic state is 1-A.
 Alpha  occ. eigenvalues --  -20.61323 -20.61310 -20.61014 -20.61003 -15.86381
 Alpha  occ. eigenvalues --  -15.86066 -11.31934 -11.31482 -11.28594 -11.28482
 Alpha  occ. eigenvalues --  -11.28361 -11.28074 -11.28027 -11.27847 -11.27709
 Alpha  occ. eigenvalues --  -11.27518 -11.27090 -11.27069  -1.60389  -1.60084
 Alpha  occ. eigenvalues --   -1.39938  -1.39637  -1.20146  -1.19660  -1.09519
 Alpha  occ. eigenvalues --   -1.09057  -1.05586  -1.05069  -0.96307  -0.95884
 Alpha  occ. eigenvalues --   -0.87000  -0.86468  -0.83138  -0.82713  -0.78155
 Alpha  occ. eigenvalues --   -0.77741  -0.72597  -0.72286  -0.71712  -0.71405
 Alpha  occ. eigenvalues --   -0.71251  -0.70803  -0.65817  -0.65714  -0.65319
 Alpha  occ. eigenvalues --   -0.65024  -0.62940  -0.62397  -0.56087  -0.55620
 Alpha  occ. eigenvalues --   -0.53981  -0.53695  -0.53386  -0.53057  -0.49371
 Alpha  occ. eigenvalues --   -0.49338  -0.49047  -0.49035  -0.45301  -0.45031
 Alpha  occ. eigenvalues --   -0.38153  -0.37679  -0.37179  -0.36613
 Alpha virt. eigenvalues --    0.04392   0.04794   0.10241   0.11005   0.15811
 Alpha virt. eigenvalues --    0.16275   0.19305   0.21928   0.25526   0.26821
 Alpha virt. eigenvalues --    0.28070   0.28589   0.30337   0.30776   0.31817

 Mulliken charges:
               1
     1  C   -0.174667
     2  C   -0.217570
     3  C   -0.168369
     4  C    0.159496
     5  C   -0.168637
     6  C   -0.224551
     7  H    0.226902
     8  H    0.228059
     9  H    0.279631
    10  H    0.275963
    11  H    0.217602
    12  N    0.488164
    13  O   -0.459610
    14  O   -0.456954
    15  C   -0.172572
    16  C   -0.217321
    17  C   -0.172331
    18  C    0.159502
    19  C   -0.170584
    20  C   -0.217463
    21  H    0.221824
    22  H    0.219494
    23  H    0.273859
    24  H    0.276960
    25  H    0.224925
    26  N    0.488165
    27  O   -0.458903
    28  O   -0.461012
 Sum of Mulliken charges =  -0.00000

 Dipole moment (field-independent basis, Debye):
    X=              0.5798    Y=              2.1214    Z=              6.1462  Tot=              6.5278
 Quadrupole moment (field-independent basis, Debye-Ang):
   XX=           -138.0373   YY=            -98.3439   ZZ=           -107.2408
   XY=            -23.7239   XZ=              8.9722   YZ=             -1.2172

 Normal termination of Gaussian 16 at Fri May  7 02:00:58 2021.
