 Gaussian 16, Revision A.03,
 Gaussian 16:  EM64L-G16RevA.03 25-Dec-2016

 -------------
 #p 6-31g* mp2
 -------------

 ------------------------------------------------------
 Input file generated by CHIRIPA (05-May-2021 14:57:27)
 ------------------------------------------------------
 Symbolic Z-matrix:
 Charge =  0 Multiplicity = 1

                         Standard orientation:
 ---------------------------------------------------------------------
 Center     Atomic      Atomic             Coordinates (Angstroms)
 Number     Number       Type             X           Y           Z
 ---------------------------------------------------------------------
      1          6           0        4.245342   -2.044101    0.901680
      2          6           0        3.022689   -1.915404    0.234537
      3          6           0        2.628589   -0.682578   -0.294021
      4          6           0        3.485526    0.405607   -0.136538
      5          6           0        4.709877    0.309221    0.522981
      6          6           0        5.083556   -0.933336    1.043522
      7          1           0        4.543556   -3.005570    1.309162
      8          1           0        2.369705   -2.776328    0.122886
      9          1           0        1.687516   -0.554852   -0.815063
     10          1           0        5.339555    1.185460    0.618530
     11          1           0        6.033656   -1.030339    1.561156
     12          7           0        3.079120    1.715896   -0.691856
     13          8           0        3.852022    2.659370   -0.539816
     14          8           0        1.995371    1.774616   -1.268638
     15          6           0       -5.000084    1.712483    0.852672
     16          6           0       -3.608314    1.795461    0.964977
     17          6           0       -2.796421    0.747566    0.520799
     18          6           0       -3.412561   -0.373548   -0.033066
     19          6           0       -4.796356   -0.485948   -0.158627
     20          6           0       -5.588626    0.574050    0.292217
     21          1           0       -5.623160    2.531215    1.200309
     22          1           0       -3.148493    2.678369    1.399814
     23          1           0       -1.716438    0.785575    0.595680
     24          1           0       -5.225725   -1.378875   -0.596510
     25          1           0       -6.669228    0.506859    0.203735
     26          7           0       -2.563434   -1.489315   -0.506825
     27          8           0       -3.130739   -2.466210   -0.991053
     28          8           0       -1.346660   -1.365830   -0.384959
 ---------------------------------------------------------------------

 SCF Done:  E(RHF) =  -868.340462646     A.U. after   16 cycles
 E2 =    -0.2598177434D+01 EUMP2 =    -0.87093864008053D+03

 The electronic state is 1-A.
 Alpha  occ. eigenvalues --  -20.61086 -20.61049 -20.60355 -20.60349 -15.86112
 Alpha  occ. eigenvalues --  -15.85397 -11.31185 -11.30528 -11.27751 -11.27684
 Alpha  occ. eigenvalues --  -11.27439 -11.27158 -11.26917 -11.26828 -11.26713
 Alpha  occ. eigenvalues --  -11.26648 -11.26145 -11.25934  -1.60132  -1.59437
 Alpha  occ. eigenvalues --   -1.39695  -1.38993  -1.19338  -1.18696  -1.08791
 Alpha  occ. eigenvalues --   -1.08150  -1.04696  -1.04036  -0.95673  -0.95010
 Alpha  occ. eigenvalues --   -0.86111  -0.85460  -0.82519  -0.81830  -0.77589
 Alpha  occ. eigenvalues --   -0.76889  -0.72362  -0.71621  -0.71429  -0.70760
 Alpha  occ. eigenvalues --   -0.70451  -0.69799  -0.65000  -0.64699  -0.64340
 Alpha  occ. eigenvalues --   -0.64026  -0.62041  -0.61350  -0.55224  -0.54592
 Alpha  occ. eigenvalues --   -0.53045  -0.52784  -0.52425  -0.52103  -0.49105
 Alpha  occ. eigenvalues --   -0.49070  -0.48382  -0.48360  -0.45161  -0.44451
 Alpha  occ. eigenvalues --   -0.37314  -0.36713  -0.36284  -0.35639
 Alpha virt. eigenvalues --    0.04921   0.05585   0.11372   0.11995   0.16459
 Alpha virt. eigenvalues --    0.17118   0.21409   0.22218   0.27287   0.27748
 Alpha virt. eigenvalues --    0.28427   0.29227   0.31009   0.31723   0.32288

 Mulliken charges:
               1
     1  C   -0.171357
     2  C   -0.221374
     3  C   -0.175922
     4  C    0.155926
     5  C   -0.172295
     6  C   -0.219567
     7  H    0.224021
     8  H    0.232820
     9  H    0.291611
    10  H    0.272382
    11  H    0.220452
    12  N    0.487609
    13  O   -0.463719
    14  O   -0.462120
    15  C   -0.170042
    16  C   -0.218682
    17  C   -0.168944
    18  C    0.157212
    19  C   -0.170910
    20  C   -0.218863
    21  H    0.226372
    22  H    0.226861
    23  H    0.279099
    24  H    0.274675
    25  H    0.223323
    26  N    0.492800
    27  O   -0.459277
    28  O   -0.472094
 Sum of Mulliken charges =  -0.00000

 Dipole moment (field-independent basis, Debye):
    X=             -1.8639    Y=             -0.7439    Z=              3.6083  Tot=              4.1288
 Quadrupole moment (field-independent basis, Debye-Ang):
   XX=            -68.5994   YY=           -110.3505   ZZ=           -106.1066
   XY=            -24.4420   XZ=              3.7609   YZ=              2.4548

 Normal termination of Gaussian 16 at Fri May  7 09:44:35 2021.
