 Gaussian 16, Revision A.03,
 Gaussian 16:  EM64L-G16RevA.03 25-Dec-2016

 -------------
 #p 6-31g* mp2
 -------------

 ------------------------------------------------------
 Input file generated by CHIRIPA (05-May-2021 14:53:15)
 ------------------------------------------------------
 Symbolic Z-matrix:
 Charge =  0 Multiplicity = 1

                         Standard orientation:
 ---------------------------------------------------------------------
 Center     Atomic      Atomic             Coordinates (Angstroms)
 Number     Number       Type             X           Y           Z
 ---------------------------------------------------------------------
      1          6           0        3.725023    0.903494    0.358711
      2          6           0        2.542585    1.500189   -0.405344
      3          6           0        1.958692    2.735841    0.280243
      4          1           0        3.401916    0.642041    1.375662
      5          1           0        4.506750    1.668204    0.466018
      6          1           0        1.763891    0.734164   -0.512384
      7          1           0        2.868494    1.760075   -1.420655
      8          1           0        2.717554    3.519461    0.373350
      9          1           0        1.606675    2.487720    1.286782
     10          1           0        1.114620    3.146162   -0.282818
     11          6           0        4.319562   -0.332402   -0.314203
     12          6           0        5.502000   -0.929098    0.449851
     13          6           0        6.085893   -2.164749   -0.235736
     14          1           0        3.537835   -1.097113   -0.421511
     15          1           0        4.642669   -0.070949   -1.331154
     16          1           0        5.176090   -1.188984    1.465163
     17          1           0        6.280694   -0.163073    0.556891
     18          1           0        6.437910   -1.916629   -1.242275
     19          1           0        5.327030   -2.948369   -0.328842
     20          1           0        6.929965   -2.575070    0.327326
     21          6           0       -5.627562   -0.646790    0.084808
     22          6           0       -5.145184    0.658797   -0.054039
     23          6           0       -3.770254    0.905339   -0.111757
     24          6           0       -2.902161   -0.182120   -0.027265
     25          6           0       -3.351953   -1.494273    0.111420
     26          6           0       -4.730987   -1.717269    0.166950
     27          1           0       -6.697235   -0.829164    0.128795
     28          1           0       -5.839146    1.492080   -0.118076
     29          1           0       -3.369625    1.906051   -0.218940
     30          1           0       -2.635631   -2.304549    0.172671
     31          1           0       -5.102758   -2.732256    0.274812
     32          7           0       -1.444412    0.066420   -0.087211
     33          8           0       -0.700344   -0.908839   -0.010591
     34          8           0       -1.073497    1.231778   -0.209681
 ---------------------------------------------------------------------

 SCF Done:  E(RHF) =  -669.536681855     A.U. after   15 cycles
 E2 =    -0.2092520192D+01 EUMP2 =    -0.67162920204712D+03

 The electronic state is 1-A.
 Alpha  occ. eigenvalues --  -20.61196 -20.61185 -15.86175 -11.31430 -11.27976
 Alpha  occ. eigenvalues --  -11.27972 -11.27699 -11.26964 -11.26954 -11.20552
 Alpha  occ. eigenvalues --  -11.20214 -11.20026 -11.19772 -11.19400 -11.19033
 Alpha  occ. eigenvalues --   -1.60220  -1.39779  -1.19584  -1.09004  -1.06937
 Alpha  occ. eigenvalues --   -1.04967  -1.01978  -0.95861  -0.94475  -0.86371
 Alpha  occ. eigenvalues --   -0.85521  -0.82693  -0.78133  -0.77755  -0.76656
 Alpha  occ. eigenvalues --   -0.72390  -0.71517  -0.70692  -0.65240  -0.64973
 Alpha  occ. eigenvalues --   -0.63573  -0.62314  -0.59385  -0.57929  -0.56061
 Alpha  occ. eigenvalues --   -0.55463  -0.53807  -0.53302  -0.53055  -0.51204
 Alpha  occ. eigenvalues --   -0.50919  -0.49170  -0.49077  -0.48467  -0.46422
 Alpha  occ. eigenvalues --   -0.45244  -0.45111  -0.44246  -0.43958  -0.42243
 Alpha  occ. eigenvalues --   -0.37558  -0.36563
 Alpha virt. eigenvalues --    0.04770   0.11094   0.16286   0.21226   0.24262
 Alpha virt. eigenvalues --    0.25924   0.27163   0.28027   0.28168   0.29042
 Alpha virt. eigenvalues --    0.29406   0.30827   0.32331   0.32796   0.33098

 Mulliken charges:
               1
     1  C   -0.296291
     2  C   -0.308843
     3  C   -0.466374
     4  H    0.147569
     5  H    0.141962
     6  H    0.180560
     7  H    0.140703
     8  H    0.139962
     9  H    0.151147
    10  H    0.165903
    11  C   -0.298562
    12  C   -0.298330
    13  C   -0.474850
    14  H    0.155096
    15  H    0.145685
    16  H    0.150444
    17  H    0.148945
    18  H    0.153331
    19  H    0.154674
    20  H    0.156384
    21  C   -0.170282
    22  C   -0.218593
    23  C   -0.170600
    24  C    0.159051
    25  C   -0.170353
    26  C   -0.218630
    27  H    0.226504
    28  H    0.224355
    29  H    0.276137
    30  H    0.276010
    31  H    0.224285
    32  N    0.490968
    33  O   -0.459524
    34  O   -0.458442
 Sum of Mulliken charges =  -0.00000

 Dipole moment (field-independent basis, Debye):
    X=             -5.7628    Y=             -0.9985    Z=              0.1793  Tot=              5.8514
 Quadrupole moment (field-independent basis, Debye-Ang):
   XX=            -67.1268   YY=            -90.7686   ZZ=            -95.6991
   XY=              3.0065   XZ=             -0.6113   YZ=             -1.2916

 Normal termination of Gaussian 16 at Thu May  6 12:08:53 2021.
