 Gaussian 16, Revision A.03,
 Gaussian 16:  EM64L-G16RevA.03 25-Dec-2016

 -------------
 #p 6-31g* mp2
 -------------

 ------------------------------------------------------
 Input file generated by CHIRIPA (05-May-2021 14:55:24)
 ------------------------------------------------------
 Symbolic Z-matrix:
 Charge =  0 Multiplicity = 1

                         Standard orientation:
 ---------------------------------------------------------------------
 Center     Atomic      Atomic             Coordinates (Angstroms)
 Number     Number       Type             X           Y           Z
 ---------------------------------------------------------------------
      1          6           0       -3.336811   -2.034845    0.926472
      2          6           0       -3.386881   -0.950103    1.808145
      3          6           0       -3.108235    0.343938    1.358298
      4          6           0       -2.781563    0.517784    0.014292
      5          6           0       -2.723385   -0.542710   -0.888624
      6          6           0       -3.005807   -1.828052   -0.416731
      7          1           0       -3.554737   -3.036708    1.284487
      8          1           0       -3.643655   -1.107724    2.851825
      9          1           0       -3.139679    1.201588    2.019257
     10          1           0       -2.464383   -0.354216   -1.923422
     11          1           0       -2.966156   -2.668603   -1.103714
     12          7           0       -2.484574    1.883122   -0.473611
     13          8           0       -2.199340    2.009796   -1.662405
     14          8           0       -2.542652    2.800748    0.342004
     15          6           0        2.859539   -0.396018   -0.126261
     16          6           0        2.290076   -1.525044   -0.985910
     17          6           0        0.761376   -1.554574   -0.985935
     18          1           0        2.493518   -0.507525    0.903565
     19          1           0        2.473320    0.565127   -0.492907
     20          1           0        2.678347   -2.483667   -0.618616
     21          1           0        2.657649   -1.410947   -2.013766
     22          1           0        0.357888   -0.613103   -1.372498
     23          1           0        0.378705   -1.691918    0.030579
     24          1           0        0.375584   -2.369284   -1.606636
     25          6           0        4.386567   -0.353445   -0.116183
     26          6           0        4.956030    0.775579    0.743468
     27          6           0        6.484730    0.805109    0.743492
     28          1           0        4.772787   -1.314591    0.250464
     29          1           0        4.752588   -0.241939   -1.146007
     30          1           0        4.588458    0.661482    1.771324
     31          1           0        4.567759    1.734202    0.376174
     32          1           0        6.867402    0.942453   -0.273021
     33          1           0        6.888218   -0.136362    1.130056
     34          1           0        6.870522    1.619821    1.364193
 ---------------------------------------------------------------------

 SCF Done:  E(RHF) =  -669.535434357     A.U. after   15 cycles
 E2 =    -0.2092094764D+01 EUMP2 =    -0.67162752912108D+03

 The electronic state is 1-A.
 Alpha  occ. eigenvalues --  -20.60777 -20.60772 -15.85824 -11.31145 -11.27732
 Alpha  occ. eigenvalues --  -11.27719 -11.27479 -11.26742 -11.26723 -11.21607
 Alpha  occ. eigenvalues --  -11.21460 -11.21311 -11.21251 -11.21182 -11.20950
 Alpha  occ. eigenvalues --   -1.59848  -1.39404  -1.19335  -1.08736  -1.08356
 Alpha  occ. eigenvalues --   -1.04737  -1.03485  -0.95952  -0.95571  -0.86974
 Alpha  occ. eigenvalues --   -0.86135  -0.82407  -0.79556  -0.78159  -0.77454
 Alpha  occ. eigenvalues --   -0.72044  -0.71169  -0.70452  -0.64991  -0.64984
 Alpha  occ. eigenvalues --   -0.64739  -0.62091  -0.60875  -0.59328  -0.57564
 Alpha  occ. eigenvalues --   -0.55281  -0.55191  -0.53284  -0.52833  -0.52611
 Alpha  occ. eigenvalues --   -0.52212  -0.49878  -0.48802  -0.48799  -0.47858
 Alpha  occ. eigenvalues --   -0.46572  -0.45706  -0.45616  -0.44809  -0.43750
 Alpha  occ. eigenvalues --   -0.37310  -0.36268
 Alpha virt. eigenvalues --    0.05070   0.11286   0.16533   0.21209   0.22953
 Alpha virt. eigenvalues --    0.24253   0.26554   0.26884   0.27478   0.28066
 Alpha virt. eigenvalues --    0.28734   0.30012   0.31380   0.31881   0.32154

 Mulliken charges:
               1
     1  C   -0.171720
     2  C   -0.219008
     3  C   -0.171171
     4  C    0.158189
     5  C   -0.166076
     6  C   -0.216257
     7  H    0.225448
     8  H    0.223149
     9  H    0.275391
    10  H    0.275561
    11  H    0.223452
    12  N    0.488245
    13  O   -0.461556
    14  O   -0.460240
    15  C   -0.299456
    16  C   -0.300159
    17  C   -0.477602
    18  H    0.148255
    19  H    0.154878
    20  H    0.149787
    21  H    0.152857
    22  H    0.159762
    23  H    0.156335
    24  H    0.151653
    25  C   -0.298265
    26  C   -0.299992
    27  C   -0.475730
    28  H    0.147933
    29  H    0.150258
    30  H    0.151227
    31  H    0.154748
    32  H    0.155472
    33  H    0.154052
    34  H    0.160579
 Sum of Mulliken charges =  -0.00000

 Dipole moment (field-independent basis, Debye):
    X=             -1.0700    Y=             -4.7515    Z=              1.7186  Tot=              5.1649
 Quadrupole moment (field-independent basis, Debye-Ang):
   XX=            -90.8754   YY=            -99.4913   ZZ=            -90.0035
   XY=             12.7759   XZ=             -5.8225   YZ=              2.1207

 Normal termination of Gaussian 16 at Thu May  6 16:00:18 2021.
