 Gaussian 16, Revision A.03,
 Gaussian 16:  EM64L-G16RevA.03 25-Dec-2016

 -------------
 #p 6-31g* mp2
 -------------

 ------------------------------------------------------
 Input file generated by CHIRIPA (05-May-2021 14:55:25)
 ------------------------------------------------------
 Symbolic Z-matrix:
 Charge =  0 Multiplicity = 1

                         Standard orientation:
 ---------------------------------------------------------------------
 Center     Atomic      Atomic             Coordinates (Angstroms)
 Number     Number       Type             X           Y           Z
 ---------------------------------------------------------------------
      1          6           0        1.735607   -1.943830   -1.233958
      2          6           0        2.775444   -2.085444   -0.309185
      3          6           0        3.421300   -0.959857    0.210884
      4          6           0        2.999800    0.297895   -0.217702
      5          6           0        1.966991    0.471647   -1.137705
      6          6           0        1.335404   -0.667985   -1.644543
      7          1           0        1.239433   -2.823668   -1.632821
      8          1           0        3.088353   -3.075042    0.011485
      9          1           0        4.229137   -1.040673    0.928022
     10          1           0        1.677258    1.471190   -1.438351
     11          1           0        0.528150   -0.554985   -2.362606
     12          7           0        3.675985    1.496938    0.325868
     13          8           0        3.285908    2.593992   -0.067771
     14          8           0        4.583252    1.316991    1.135264
     15          6           0       -4.279406    0.356364    0.490249
     16          6           0       -5.206924    0.440102   -0.722469
     17          6           0       -6.367019    1.413871   -0.513309
     18          1           0       -4.862696    0.050555    1.369566
     19          1           0       -3.883790    1.357580    0.710360
     20          1           0       -5.599585   -0.561219   -0.941074
     21          1           0       -4.621322    0.745561   -1.599043
     22          1           0       -5.991899    2.423592   -0.317480
     23          1           0       -6.975723    1.109386    0.344228
     24          1           0       -7.017461    1.458164   -1.392413
     25          6           0       -3.114786   -0.613076    0.296411
     26          6           0       -2.187268   -0.696815    1.509130
     27          6           0       -1.027172   -1.670583    1.299970
     28          1           0       -3.510400   -1.614293    0.076301
     29          1           0       -2.531496   -0.307268   -0.582905
     30          1           0       -2.772870   -1.002274    2.385703
     31          1           0       -1.794605    0.304506    1.727734
     32          1           0       -0.418469   -1.366099    0.442433
     33          1           0       -1.402292   -2.680304    1.104139
     34          1           0       -0.376731   -1.714877    2.179073
 ---------------------------------------------------------------------

 SCF Done:  E(RHF) =  -669.534349081     A.U. after   15 cycles
 E2 =    -0.2092991546D+01 EUMP2 =    -0.67162734062669D+03

 The electronic state is 1-A.
 Alpha  occ. eigenvalues --  -20.60816 -20.60811 -15.85872 -11.31257 -11.27847
 Alpha  occ. eigenvalues --  -11.27840 -11.27556 -11.26829 -11.26819 -11.21905
 Alpha  occ. eigenvalues --  -11.21834 -11.21763 -11.21652 -11.21298 -11.21181
 Alpha  occ. eigenvalues --   -1.59892  -1.39445  -1.19447  -1.08845  -1.08721
 Alpha  occ. eigenvalues --   -1.04850  -1.03784  -0.96244  -0.95657  -0.87262
 Alpha  occ. eigenvalues --   -0.86243  -0.82489  -0.79860  -0.78559  -0.77532
 Alpha  occ. eigenvalues --   -0.72089  -0.71215  -0.70541  -0.65368  -0.65092
 Alpha  occ. eigenvalues --   -0.64841  -0.62190  -0.61206  -0.59606  -0.57876
 Alpha  occ. eigenvalues --   -0.55650  -0.55336  -0.53407  -0.52933  -0.52889
 Alpha  occ. eigenvalues --   -0.52477  -0.50115  -0.48849  -0.48843  -0.48165
 Alpha  occ. eigenvalues --   -0.46879  -0.46098  -0.46022  -0.44846  -0.44057
 Alpha  occ. eigenvalues --   -0.37306  -0.36436
 Alpha virt. eigenvalues --    0.04993   0.11110   0.16442   0.21003   0.22684
 Alpha virt. eigenvalues --    0.24155   0.25868   0.26899   0.27600   0.27906
 Alpha virt. eigenvalues --    0.28538   0.30654   0.31382   0.31727   0.31849

 Mulliken charges:
               1
     1  C   -0.169576
     2  C   -0.215543
     3  C   -0.170531
     4  C    0.158940
     5  C   -0.169588
     6  C   -0.223072
     7  H    0.227365
     8  H    0.224170
     9  H    0.276064
    10  H    0.275865
    11  H    0.224677
    12  N    0.488089
    13  O   -0.460410
    14  O   -0.460195
    15  C   -0.298634
    16  C   -0.299408
    17  C   -0.475915
    18  H    0.151141
    19  H    0.151459
    20  H    0.151330
    21  H    0.149714
    22  H    0.156427
    23  H    0.156019
    24  H    0.160478
    25  C   -0.296815
    26  C   -0.299083
    27  C   -0.485014
    28  H    0.148117
    29  H    0.142533
    30  H    0.152473
    31  H    0.154518
    32  H    0.165052
    33  H    0.148555
    34  H    0.160800
 Sum of Mulliken charges =  -0.00000

 Dipole moment (field-independent basis, Debye):
    X=             -2.3007    Y=             -4.2072    Z=             -1.9154  Tot=              5.1636
 Quadrupole moment (field-independent basis, Debye-Ang):
   XX=           -108.0981   YY=            -95.8969   ZZ=            -92.8356
   XY=            -14.7959   XZ=             -3.6495   YZ=             -1.6397

 Normal termination of Gaussian 16 at Thu May  6 04:47:14 2021.
