 Gaussian 16, Revision A.03,
 Gaussian 16:  EM64L-G16RevA.03 25-Dec-2016

 -------------
 #p 6-31g* mp2
 -------------

 ------------------------------------------------------
 Input file generated by CHIRIPA (05-May-2021 14:53:18)
 ------------------------------------------------------
 Symbolic Z-matrix:
 Charge =  0 Multiplicity = 1

                         Standard orientation:
 ---------------------------------------------------------------------
 Center     Atomic      Atomic             Coordinates (Angstroms)
 Number     Number       Type             X           Y           Z
 ---------------------------------------------------------------------
      1          6           0        2.204050   -1.378620   -0.129556
      2          6           0        1.093773   -1.619372    0.893825
      3          6           0        0.153248   -2.755040    0.489518
      4          1           0        1.752117   -1.152623   -1.105070
      5          1           0        2.780721   -2.304910   -0.259298
      6          1           0        0.520231   -0.692509    1.022624
      7          1           0        1.548402   -1.844634    1.867059
      8          1           0        0.706856   -3.693191    0.380011
      9          1           0       -0.327158   -2.534520   -0.469222
     10          1           0       -0.632800   -2.910016    1.235153
     11          6           0        3.152435   -0.246326    0.260578
     12          6           0        4.262712   -0.005574   -0.762803
     13          6           0        5.203238    1.130094   -0.358497
     14          1           0        2.575764    0.679964    0.390319
     15          1           0        3.604368   -0.472324    1.236091
     16          1           0        3.808083    0.219688   -1.736038
     17          1           0        4.836255   -0.932438   -0.891603
     18          1           0        5.683643    0.909573    0.600243
     19          1           0        4.649629    2.068245   -0.248990
     20          1           0        5.989285    1.285070   -1.104132
     21          6           0       -0.993723    2.802350    0.627326
     22          6           0       -1.312512    1.845695    1.596710
     23          6           0       -1.921399    0.641137    1.232232
     24          6           0       -2.198590    0.425189   -0.116776
     25          6           0       -1.893162    1.358731   -1.105968
     26          6           0       -1.284553    2.556248   -0.718547
     27          1           0       -0.520833    3.735344    0.919373
     28          1           0       -1.087812    2.034116    2.642680
     29          1           0       -2.178949   -0.116764    1.962075
     30          1           0       -2.129403    1.142400   -2.140767
     31          1           0       -1.038104    3.297386   -1.473545
     32          7           0       -2.843045   -0.846296   -0.514777
     33          8           0       -3.076911   -1.012481   -1.709904
     34          8           0       -3.102100   -1.652625    0.375931
 ---------------------------------------------------------------------

 SCF Done:  E(RHF) =  -669.534470204     A.U. after   15 cycles
 E2 =    -0.2095129572D+01 EUMP2 =    -0.67162959977658D+03

 The electronic state is 1-A.
 Alpha  occ. eigenvalues --  -20.60892 -20.60885 -15.85910 -11.31287 -11.27882
 Alpha  occ. eigenvalues --  -11.27858 -11.27632 -11.26891 -11.26879 -11.21686
 Alpha  occ. eigenvalues --  -11.21407 -11.21258 -11.21250 -11.21187 -11.20371
 Alpha  occ. eigenvalues --   -1.59953  -1.39507  -1.19493  -1.08874  -1.08342
 Alpha  occ. eigenvalues --   -1.04898  -1.03389  -0.95832  -0.95695  -0.86820
 Alpha  occ. eigenvalues --   -0.86284  -0.82541  -0.79470  -0.78156  -0.77585
 Alpha  occ. eigenvalues --   -0.72153  -0.71313  -0.70590  -0.65139  -0.64992
 Alpha  occ. eigenvalues --   -0.64879  -0.62238  -0.60817  -0.59203  -0.57429
 Alpha  occ. eigenvalues --   -0.55389  -0.55122  -0.53262  -0.52973  -0.52462
 Alpha  occ. eigenvalues --   -0.52233  -0.49768  -0.48911  -0.48904  -0.47759
 Alpha  occ. eigenvalues --   -0.46530  -0.45674  -0.45610  -0.44889  -0.43561
 Alpha  occ. eigenvalues --   -0.37451  -0.36409
 Alpha virt. eigenvalues --    0.04905   0.11124   0.16371   0.21215   0.22858
 Alpha virt. eigenvalues --    0.24312   0.26653   0.26950   0.27563   0.27716
 Alpha virt. eigenvalues --    0.28631   0.30848   0.31329   0.31738   0.31904

 Mulliken charges:
               1
     1  C   -0.296241
     2  C   -0.310209
     3  C   -0.479371
     4  H    0.149297
     5  H    0.150188
     6  H    0.154012
     7  H    0.147688
     8  H    0.153217
     9  H    0.157192
    10  H    0.171827
    11  C   -0.297806
    12  C   -0.299359
    13  C   -0.475061
    14  H    0.145955
    15  H    0.148429
    16  H    0.151299
    17  H    0.153350
    18  H    0.155239
    19  H    0.151465
    20  H    0.160504
    21  C   -0.171045
    22  C   -0.216541
    23  C   -0.175637
    24  C    0.162315
    25  C   -0.171607
    26  C   -0.218516
    27  H    0.226456
    28  H    0.224769
    29  H    0.276597
    30  H    0.276030
    31  H    0.224030
    32  N    0.488801
    33  O   -0.460125
    34  O   -0.457143
 Sum of Mulliken charges =  -0.00000

 Dipole moment (field-independent basis, Debye):
    X=              2.0655    Y=              4.4517    Z=              1.4010  Tot=              5.1036
 Quadrupole moment (field-independent basis, Debye-Ang):
   XX=           -106.0154   YY=            -91.0412   ZZ=            -90.3384
   XY=             -9.8276   XZ=             -3.4095   YZ=             -1.9531

 Normal termination of Gaussian 16 at Wed May  5 15:48:02 2021.
