 Gaussian 16, Revision A.03,
 Gaussian 16:  EM64L-G16RevA.03 25-Dec-2016

 -------------
 #p 6-31g* mp2
 -------------

 ------------------------------------------------------
 Input file generated by CHIRIPA (05-May-2021 14:55:22)
 ------------------------------------------------------
 Symbolic Z-matrix:
 Charge =  0 Multiplicity = 1

                         Standard orientation:
 ---------------------------------------------------------------------
 Center     Atomic      Atomic             Coordinates (Angstroms)
 Number     Number       Type             X           Y           Z
 ---------------------------------------------------------------------
      1          6           0        1.374724   -2.445474   -0.111581
      2          6           0        2.685590   -2.583004    0.356647
      3          6           0        3.551520   -1.485576    0.375746
      4          6           0        3.071331   -0.259842   -0.082819
      5          6           0        1.770736   -0.090983   -0.555293
      6          6           0        0.922279   -1.202094   -0.565257
      7          1           0        0.708835   -3.303297   -0.122869
      8          1           0        3.039684   -3.547419    0.709584
      9          1           0        4.571161   -1.563958    0.732969
     10          1           0        1.446416    0.883137   -0.900728
     11          1           0       -0.095252   -1.092342   -0.929441
     12          7           0        3.978804    0.909199   -0.067435
     13          8           0        3.531560    1.978315   -0.476828
     14          8           0        5.120141    0.734241    0.353723
     15          6           0       -4.449978    0.383737   -0.093123
     16          6           0       -4.789707   -1.074147    0.218555
     17          6           0       -6.213724   -1.450106   -0.192082
     18          1           0       -5.166465    1.038615    0.421393
     19          1           0       -4.581202    0.561482   -1.169498
     20          1           0       -4.656548   -1.249445    1.293802
     21          1           0       -4.072211   -1.725624   -0.296608
     22          1           0       -6.355946   -1.303352   -1.267646
     23          1           0       -6.943603   -0.824468    0.331801
     24          1           0       -6.435377   -2.496514    0.039780
     25          6           0       -3.029748    0.774698    0.311631
     26          6           0       -2.690019    2.232582   -0.000048
     27          6           0       -1.266002    2.608542    0.410590
     28          1           0       -2.898524    0.596953    1.388005
     29          1           0       -2.313261    0.119821   -0.202885
     30          1           0       -3.407515    2.884059    0.515117
     31          1           0       -2.823178    2.407880   -1.075294
     32          1           0       -0.536123    1.982903   -0.113294
     33          1           0       -1.123779    2.461787    1.486153
     34          1           0       -1.044349    3.654950    0.178727
 ---------------------------------------------------------------------

 SCF Done:  E(RHF) =  -669.535029743     A.U. after   15 cycles
 E2 =    -0.2092063981D+01 EUMP2 =    -0.67162709372434D+03

 The electronic state is 1-A.
 Alpha  occ. eigenvalues --  -20.60727 -20.60721 -15.85780 -11.31153 -11.27731
 Alpha  occ. eigenvalues --  -11.27716 -11.27474 -11.26749 -11.26737 -11.22228
 Alpha  occ. eigenvalues --  -11.22127 -11.22069 -11.21960 -11.21582 -11.21500
 Alpha  occ. eigenvalues --   -1.59802  -1.39355  -1.19332  -1.09036  -1.08724
 Alpha  occ. eigenvalues --   -1.04743  -1.04071  -0.96516  -0.95558  -0.87528
 Alpha  occ. eigenvalues --   -0.86135  -0.82395  -0.80136  -0.78869  -0.77434
 Alpha  occ. eigenvalues --   -0.72000  -0.71125  -0.70452  -0.65690  -0.64986
 Alpha  occ. eigenvalues --   -0.64755  -0.62172  -0.61412  -0.59870  -0.58125
 Alpha  occ. eigenvalues --   -0.55835  -0.55237  -0.53177  -0.53121  -0.53029
 Alpha  occ. eigenvalues --   -0.52676  -0.50444  -0.48763  -0.48753  -0.48440
 Alpha  occ. eigenvalues --   -0.47179  -0.46406  -0.46314  -0.44758  -0.44335
 Alpha  occ. eigenvalues --   -0.37310  -0.36324
 Alpha virt. eigenvalues --    0.05075   0.11272   0.16494   0.19183   0.22683
 Alpha virt. eigenvalues --    0.23767   0.24795   0.25882   0.26608   0.28553
 Alpha virt. eigenvalues --    0.29084   0.30398   0.31273   0.31528   0.31562

 Mulliken charges:
               1
     1  C   -0.171621
     2  C   -0.218521
     3  C   -0.170867
     4  C    0.159173
     5  C   -0.175702
     6  C   -0.221527
     7  H    0.225797
     8  H    0.223351
     9  H    0.275537
    10  H    0.279961
    11  H    0.227689
    12  N    0.487891
    13  O   -0.459967
    14  O   -0.460705
    15  C   -0.298591
    16  C   -0.298873
    17  C   -0.475952
    18  H    0.152939
    19  H    0.150236
    20  H    0.153119
    21  H    0.146032
    22  H    0.155945
    23  H    0.157283
    24  H    0.160749
    25  C   -0.299775
    26  C   -0.301324
    27  C   -0.475753
    28  H    0.152719
    29  H    0.140101
    30  H    0.155482
    31  H    0.152363
    32  H    0.146008
    33  H    0.159108
    34  H    0.167692
 Sum of Mulliken charges =  -0.00000

 Dipole moment (field-independent basis, Debye):
    X=             -3.3227    Y=             -4.0072    Z=              0.0282  Tot=              5.2056
 Quadrupole moment (field-independent basis, Debye-Ang):
   XX=           -112.3833   YY=            -91.0705   ZZ=            -93.9580
   XY=            -15.0768   XZ=              1.0034   YZ=             -0.6609

 Normal termination of Gaussian 16 at Thu May  6 14:14:41 2021.
