 Gaussian 16, Revision A.03,
 Gaussian 16:  EM64L-G16RevA.03 25-Dec-2016

 -------------
 #p 6-31g* mp2
 -------------

 ------------------------------------------------------
 Input file generated by CHIRIPA (05-May-2021 14:55:22)
 ------------------------------------------------------
 Symbolic Z-matrix:
 Charge =  0 Multiplicity = 1

                         Standard orientation:
 ---------------------------------------------------------------------
 Center     Atomic      Atomic             Coordinates (Angstroms)
 Number     Number       Type             X           Y           Z
 ---------------------------------------------------------------------
      1          6           0       -1.032776   -1.201393    0.166487
      2          6           0       -1.246961    0.004104   -0.509843
      3          6           0       -2.540858    0.509591   -0.667512
      4          6           0       -3.602279   -0.219677   -0.133804
      5          6           0       -3.421201   -1.423660    0.545111
      6          6           0       -2.118665   -1.910178    0.690881
      7          1           0       -0.024290   -1.586700    0.284346
      8          1           0       -0.405539    0.556691   -0.918134
      9          1           0       -2.735190    1.440273   -1.186630
     10          1           0       -4.279929   -1.952005    0.941161
     11          1           0       -1.955316   -2.846653    1.216598
     12          7           0       -4.976643    0.305418   -0.294423
     13          8           0       -5.894908   -0.356064    0.185023
     14          8           0       -5.109582    1.368528   -0.896720
     15          6           0        3.825624    0.966666    0.049266
     16          6           0        2.713797    0.975191    1.098911
     17          6           0        1.730724    2.130800    0.909362
     18          1           0        4.367508    1.921443    0.090596
     19          1           0        3.375347    0.905874   -0.951210
     20          1           0        3.166087    1.034554    2.097172
     21          1           0        2.174619    0.020208    1.055207
     22          1           0        1.252595    2.072501   -0.073794
     23          1           0        2.249697    3.092611    0.974092
     24          1           0        0.944264    2.117768    1.670395
     25          6           0        4.816342   -0.182744    0.225505
     26          6           0        5.928168   -0.191269   -0.824140
     27          6           0        6.911241   -1.346879   -0.634591
     28          1           0        5.266618   -0.121952    1.225980
     29          1           0        4.274457   -1.137521    0.184175
     30          1           0        6.467346    0.763714   -0.780435
     31          1           0        5.475878   -0.250633   -1.822401
     32          1           0        6.392268   -2.308689   -0.699322
     33          1           0        7.389371   -1.288579    0.348564
     34          1           0        7.697701   -1.333846   -1.395624
 ---------------------------------------------------------------------

 SCF Done:  E(RHF) =  -669.535164099     A.U. after   15 cycles
 E2 =    -0.2091700624D+01 EUMP2 =    -0.67162686472292D+03

 The electronic state is 1-A.
 Alpha  occ. eigenvalues --  -20.60742 -20.60737 -15.85795 -11.31162 -11.27727
 Alpha  occ. eigenvalues --  -11.27716 -11.27470 -11.26749 -11.26715 -11.22647
 Alpha  occ. eigenvalues --  -11.22285 -11.22253 -11.22155 -11.22059 -11.21630
 Alpha  occ. eigenvalues --   -1.59817  -1.39370  -1.19332  -1.09280  -1.08727
 Alpha  occ. eigenvalues --   -1.04738  -1.04350  -0.96789  -0.95563  -0.87807
 Alpha  occ. eigenvalues --   -0.86131  -0.82397  -0.80423  -0.79072  -0.77444
 Alpha  occ. eigenvalues --   -0.72013  -0.71140  -0.70449  -0.65960  -0.64983
 Alpha  occ. eigenvalues --   -0.64753  -0.62196  -0.61640  -0.60152  -0.58388
 Alpha  occ. eigenvalues --   -0.56104  -0.55247  -0.53477  -0.53224  -0.53045
 Alpha  occ. eigenvalues --   -0.52808  -0.50714  -0.48779  -0.48768  -0.48717
 Alpha  occ. eigenvalues --   -0.47470  -0.46612  -0.46536  -0.44776  -0.44594
 Alpha  occ. eigenvalues --   -0.37308  -0.36327
 Alpha virt. eigenvalues --    0.05083   0.11258   0.16541   0.18758   0.22685
 Alpha virt. eigenvalues --    0.23828   0.24559   0.25497   0.26995   0.28313
 Alpha virt. eigenvalues --    0.28670   0.29731   0.30995   0.31697   0.31869

 Mulliken charges:
               1
     1  C   -0.174060
     2  C   -0.218682
     3  C   -0.172536
     4  C    0.158645
     5  C   -0.171095
     6  C   -0.218642
     7  H    0.227033
     8  H    0.227822
     9  H    0.275682
    10  H    0.275467
    11  H    0.223363
    12  N    0.488067
    13  O   -0.460554
    14  O   -0.460384
    15  C   -0.298343
    16  C   -0.301988
    17  C   -0.476906
    18  H    0.153836
    19  H    0.146221
    20  H    0.157424
    21  H    0.142972
    22  H    0.146295
    23  H    0.160798
    24  H    0.166486
    25  C   -0.297906
    26  C   -0.300191
    27  C   -0.476055
    28  H    0.151878
    29  H    0.145945
    30  H    0.153925
    31  H    0.152037
    32  H    0.154724
    33  H    0.156315
    34  H    0.162406
 Sum of Mulliken charges =  -0.00000

 Dipole moment (field-independent basis, Debye):
    X=              5.0338    Y=             -1.7703    Z=              0.6343  Tot=              5.3736
 Quadrupole moment (field-independent basis, Debye-Ang):
   XX=           -129.0380   YY=            -91.1682   ZZ=            -93.8762
   XY=              8.4470   XZ=             -3.2599   YZ=             -1.6497

 Normal termination of Gaussian 16 at Thu May  6 06:13:38 2021.
