 Gaussian 16, Revision A.03,
 Gaussian 16:  EM64L-G16RevA.03 25-Dec-2016

 -------------
 #p 6-31g* mp2
 -------------

 ------------------------------------------------------
 Input file generated by CHIRIPA (05-May-2021 14:51:08)
 ------------------------------------------------------
 Symbolic Z-matrix:
 Charge =  0 Multiplicity = 1

                         Standard orientation:
 ---------------------------------------------------------------------
 Center     Atomic      Atomic             Coordinates (Angstroms)
 Number     Number       Type             X           Y           Z
 ---------------------------------------------------------------------
      1          6           0        3.159540   -0.478260    0.759187
      2          6           0        1.696692   -0.620025    0.337327
      3          6           0        0.809092   -1.166236    1.456082
      4          1           0        3.537392   -1.457379    1.083994
      5          1           0        3.219255    0.185353    1.632941
      6          1           0        1.639893   -1.282072   -0.536220
      7          1           0        1.322334    0.359506    0.013304
      8          1           0        0.836030   -0.503843    2.327351
      9          1           0        1.155393   -2.154748    1.774705
     10          1           0       -0.232404   -1.259526    1.132906
     11          6           0        4.059411    0.066632   -0.348537
     12          6           0        5.522258    0.208396    0.073323
     13          6           0        6.409858    0.754607   -1.045432
     14          1           0        3.999696   -0.596982   -1.222291
     15          1           0        3.681558    1.045750   -0.673345
     16          1           0        5.896616   -0.771135    0.397346
     17          1           0        5.579057    0.870443    0.946870
     18          1           0        6.063557    1.743119   -1.364055
     19          1           0        6.382920    0.092214   -1.916701
     20          1           0        7.451355    0.847898   -0.722256
     21          6           0       -3.986982   -0.456297   -0.155035
     22          6           0       -3.167053   -1.658885   -0.623524
     23          6           0       -3.935846   -2.976223   -0.516884
     24          1           0       -4.299626   -0.616807    0.885847
     25          1           0       -4.907502   -0.394044   -0.751830
     26          1           0       -2.247696   -1.718039   -0.026951
     27          1           0       -2.856163   -1.495408   -1.663350
     28          1           0       -4.844857   -2.942173   -1.126097
     29          1           0       -4.232933   -3.166069    0.519600
     30          1           0       -3.331059   -3.822666   -0.856922
     31          6           0       -3.231968    0.867926   -0.255615
     32          6           0       -4.051898    2.070514    0.212874
     33          6           0       -3.283104    3.387851    0.106235
     34          1           0       -2.311449    0.805673    0.341181
     35          1           0       -2.919324    1.028435   -1.296497
     36          1           0       -4.362788    1.907036    1.252700
     37          1           0       -4.971255    2.129668   -0.383699
     38          1           0       -2.986018    3.577698   -0.930250
     39          1           0       -2.374094    3.353802    0.715447
     40          1           0       -3.887892    4.234295    0.446272
 ---------------------------------------------------------------------

 SCF Done:  E(RHF) =  -470.733346870     A.U. after   11 cycles
 E2 =    -0.1582746273D+01 EUMP2 =    -0.47231609314321D+03

 The electronic state is 1-A.
 Alpha  occ. eigenvalues --  -11.21606 -11.21605 -11.21604 -11.21601 -11.21407
 Alpha  occ. eigenvalues --  -11.21407 -11.21348 -11.21348 -11.21095 -11.21078
 Alpha  occ. eigenvalues --  -11.21072 -11.21070  -1.08444  -1.08426  -1.03549
 Alpha  occ. eigenvalues --   -1.03523  -0.95992  -0.95981  -0.87022  -0.86987
 Alpha  occ. eigenvalues --   -0.79630  -0.79569  -0.78254  -0.78241  -0.65084
 Alpha  occ. eigenvalues --   -0.65059  -0.60965  -0.60923  -0.59442  -0.59272
 Alpha  occ. eigenvalues --   -0.57612  -0.57583  -0.55295  -0.55248  -0.52763
 Alpha  occ. eigenvalues --   -0.52640  -0.52436  -0.52384  -0.49940  -0.49911
 Alpha  occ. eigenvalues --   -0.48011  -0.47839  -0.46630  -0.46621  -0.45789
 Alpha  occ. eigenvalues --   -0.45782  -0.45717  -0.45689  -0.43801  -0.43736
 Alpha virt. eigenvalues --    0.20811   0.23099   0.23817   0.24361   0.26108
 Alpha virt. eigenvalues --    0.26657   0.27043   0.27568   0.27935   0.29185
 Alpha virt. eigenvalues --    0.30242   0.31411   0.31675   0.31899   0.31971

 Mulliken charges:
               1
     1  C   -0.298468
     2  C   -0.299043
     3  C   -0.485333
     4  H    0.149643
     5  H    0.149446
     6  H    0.152339
     7  H    0.152465
     8  H    0.154994
     9  H    0.155451
    10  H    0.168093
    11  C   -0.298271
    12  C   -0.299656
    13  C   -0.475714
    14  H    0.149573
    15  H    0.149779
    16  H    0.151923
    17  H    0.151917
    18  H    0.155222
    19  H    0.155185
    20  H    0.160249
    21  C   -0.297633
    22  C   -0.308776
    23  C   -0.475039
    24  H    0.149614
    25  H    0.149655
    26  H    0.159742
    27  H    0.152155
    28  H    0.155224
    29  H    0.155258
    30  H    0.160249
    31  C   -0.300563
    32  C   -0.299615
    33  C   -0.475703
    34  H    0.151368
    35  H    0.149720
    36  H    0.152056
    37  H    0.152023
    38  H    0.155150
    39  H    0.155044
    40  H    0.160276
 Sum of Mulliken charges =  -0.00000

 Dipole moment (field-independent basis, Debye):
    X=             -0.0020    Y=             -0.0023    Z=             -0.0077  Tot=              0.0082
 Quadrupole moment (field-independent basis, Debye-Ang):
   XX=            -85.4075   YY=            -85.0541   ZZ=            -84.2830
   XY=             -0.9584   XZ=              0.8128   YZ=              0.4797

 Normal termination of Gaussian 16 at Wed May  5 15:04:56 2021.
