 Gaussian 16, Revision A.03,
 Gaussian 16:  EM64L-G16RevA.03 25-Dec-2016

 -------------
 #p 6-31g* mp2
 -------------

 ------------------------------------------------------
 Input file generated by CHIRIPA (05-May-2021 14:53:17)
 ------------------------------------------------------
 Symbolic Z-matrix:
 Charge =  0 Multiplicity = 1

                         Standard orientation:
 ---------------------------------------------------------------------
 Center     Atomic      Atomic             Coordinates (Angstroms)
 Number     Number       Type             X           Y           Z
 ---------------------------------------------------------------------
      1          6           0       -2.835533   -0.887920   -0.179199
      2          6           0       -2.365822   -1.778112    0.971850
      3          6           0       -1.052805   -2.498590    0.664127
      4          1           0       -2.955047   -1.500819   -1.083089
      5          1           0       -2.054419   -0.148499   -0.403954
      6          1           0       -3.148163   -2.514750    1.195284
      7          1           0       -2.247596   -1.163058    1.873152
      8          1           0       -0.255232   -1.776328    0.462103
      9          1           0       -1.160916   -3.135700   -0.219617
     10          1           0       -0.735457   -3.129382    1.500340
     11          6           0       -4.146886   -0.160957    0.113384
     12          6           0       -4.616597    0.729236   -1.037665
     13          6           0       -5.929614    1.449714   -0.729942
     14          1           0       -4.927999   -0.900378    0.338139
     15          1           0       -4.027372    0.451942    1.017274
     16          1           0       -4.734823    0.114181   -1.938967
     17          1           0       -3.834255    1.465873   -1.261098
     18          1           0       -5.821503    2.086823    0.153802
     19          1           0       -6.727187    0.727451   -0.527918
     20          1           0       -6.246962    2.080505   -1.566155
     21          6           0        1.740268    2.484328    1.068432
     22          6           0        2.585150    2.592700   -0.041050
     23          6           0        3.137823    1.449967   -0.626935
     24          6           0        2.822949    0.209152   -0.075098
     25          6           0        1.984540    0.068513    1.029701
     26          6           0        1.443183    1.224801    1.599331
     27          1           0        1.315334    3.377296    1.517248
     28          1           0        2.817615    3.569562   -0.455470
     29          1           0        3.794873    1.505041   -1.486394
     30          1           0        1.771206   -0.918998    1.420507
     31          1           0        0.787348    1.137617    2.460913
     32          7           0        3.402050   -1.007784   -0.686743
     33          8           0        3.109113   -2.089355   -0.181741
     34          8           0        4.137920   -0.857004   -1.659573
 ---------------------------------------------------------------------

 SCF Done:  E(RHF) =  -669.535254061     A.U. after   15 cycles
 E2 =    -0.2091961352D+01 EUMP2 =    -0.67162721541326D+03

 The electronic state is 1-A.
 Alpha  occ. eigenvalues --  -20.60789 -20.60779 -15.85836 -11.31235 -11.27808
 Alpha  occ. eigenvalues --  -11.27780 -11.27558 -11.26838 -11.26826 -11.21813
 Alpha  occ. eigenvalues --  -11.21797 -11.21612 -11.21530 -11.21289 -11.21085
 Alpha  occ. eigenvalues --   -1.59858  -1.39410  -1.19417  -1.08802  -1.08626
 Alpha  occ. eigenvalues --   -1.04826  -1.03709  -0.96147  -0.95629  -0.87160
 Alpha  occ. eigenvalues --   -0.86214  -0.82459  -0.79770  -0.78437  -0.77501
 Alpha  occ. eigenvalues --   -0.72053  -0.71181  -0.70528  -0.65277  -0.65063
 Alpha  occ. eigenvalues --   -0.64825  -0.62219  -0.61084  -0.59512  -0.57753
 Alpha  occ. eigenvalues --   -0.55523  -0.55251  -0.53162  -0.52960  -0.52804
 Alpha  occ. eigenvalues --   -0.52509  -0.50063  -0.48817  -0.48808  -0.48074
 Alpha  occ. eigenvalues --   -0.46814  -0.45974  -0.45910  -0.44795  -0.43960
 Alpha  occ. eigenvalues --   -0.37395  -0.36402
 Alpha virt. eigenvalues --    0.04992   0.11134   0.16485   0.20909   0.22762
 Alpha virt. eigenvalues --    0.24081   0.26277   0.26954   0.27203   0.27833
 Alpha virt. eigenvalues --    0.28951   0.30614   0.31341   0.31724   0.31861

 Mulliken charges:
               1
     1  C   -0.298952
     2  C   -0.299267
     3  C   -0.479815
     4  H    0.152579
     5  H    0.149209
     6  H    0.153596
     7  H    0.144125
     8  H    0.155003
     9  H    0.162003
    10  H    0.160344
    11  C   -0.297787
    12  C   -0.299602
    13  C   -0.475624
    14  H    0.150606
    15  H    0.146316
    16  H    0.153713
    17  H    0.150636
    18  H    0.153617
    19  H    0.156090
    20  H    0.160653
    21  C   -0.170865
    22  C   -0.218248
    23  C   -0.170897
    24  C    0.158081
    25  C   -0.172550
    26  C   -0.220287
    27  H    0.225770
    28  H    0.223711
    29  H    0.275871
    30  H    0.279693
    31  H    0.224057
    32  N    0.488428
    33  O   -0.459918
    34  O   -0.460291
 Sum of Mulliken charges =  -0.00000

 Dipole moment (field-independent basis, Debye):
    X=             -2.0126    Y=              4.2334    Z=              2.0783  Tot=              5.1275
 Quadrupole moment (field-independent basis, Debye-Ang):
   XX=           -106.4185   YY=            -91.2128   ZZ=            -93.1568
   XY=             14.4262   XZ=              4.8862   YZ=             -1.6630

 Normal termination of Gaussian 16 at Thu May  6 15:35:52 2021.
