 Gaussian 16, Revision A.03,
 Gaussian 16:  EM64L-G16RevA.03 25-Dec-2016

 -------------
 #p 6-31g* mp2
 -------------

 ------------------------------------------------------
 Input file generated by CHIRIPA (05-May-2021 14:51:10)
 ------------------------------------------------------
 Symbolic Z-matrix:
 Charge =  0 Multiplicity = 1

                         Standard orientation:
 ---------------------------------------------------------------------
 Center     Atomic      Atomic             Coordinates (Angstroms)
 Number     Number       Type             X           Y           Z
 ---------------------------------------------------------------------
      1          6           0        4.253374    0.017456    0.122920
      2          6           0        5.406987   -0.246986   -0.845188
      3          6           0        6.540466    0.769683   -0.705899
      4          1           0        3.863076    1.029807   -0.049583
      5          1           0        4.636952    0.001575    1.152488
      6          1           0        5.021092   -0.231983   -1.872552
      7          1           0        5.794459   -1.258896   -0.670490
      8          1           0        6.952819    0.750392    0.308100
      9          1           0        6.175057    1.783140   -0.900791
     10          1           0        7.354600    0.561865   -1.407224
     11          6           0        3.112580   -0.990579   -0.004288
     12          6           0        1.958968   -0.726137    0.963820
     13          6           0        0.825488   -1.742807    0.824530
     14          1           0        2.729002   -0.974698   -1.033857
     15          1           0        3.502879   -2.002931    0.168215
     16          1           0        1.571495    0.285772    0.789122
     17          1           0        2.344863   -0.741141    1.991183
     18          1           0        1.190897   -2.756263    1.019423
     19          1           0        0.413136   -1.723516   -0.189469
     20          1           0        0.011354   -1.534988    1.525856
     21          6           0       -3.167729    0.745341    0.441668
     22          6           0       -1.973682    1.435626   -0.218441
     23          6           0       -0.951580    1.947903    0.796780
     24          1           0       -3.654474    1.448563    1.131235
     25          1           0       -2.805745   -0.092460    1.053594
     26          1           0       -2.337929    2.271022   -0.830040
     27          1           0       -1.489838    0.730738   -0.906659
     28          1           0       -0.560310    1.122102    1.399742
     29          1           0       -1.413219    2.671137    1.476796
     30          1           0       -0.106402    2.437810    0.303299
     31          6           0       -4.198225    0.227783   -0.560299
     32          6           0       -5.392272   -0.462503    0.099809
     33          6           0       -6.414375   -0.974779   -0.915412
     34          1           0       -4.560210    1.065583   -1.172226
     35          1           0       -3.711481   -0.475440   -1.249865
     36          1           0       -5.876117    0.242384    0.788028
     37          1           0       -5.028027   -1.297899    0.711410
     38          1           0       -5.952736   -1.698014   -1.595428
     39          1           0       -6.805644   -0.148979   -1.518374
     40          1           0       -7.259553   -1.464687   -0.421930
 ---------------------------------------------------------------------

 SCF Done:  E(RHF) =  -470.732703013     A.U. after   11 cycles
 E2 =    -0.1583505016D+01 EUMP2 =    -0.47231620802881D+03

 The electronic state is 1-A.
 Alpha  occ. eigenvalues --  -11.21608 -11.21595 -11.21593 -11.21527 -11.21401
 Alpha  occ. eigenvalues --  -11.21391 -11.21341 -11.21332 -11.21128 -11.21065
 Alpha  occ. eigenvalues --  -11.21063 -11.21050  -1.08446  -1.08401  -1.03592
 Alpha  occ. eigenvalues --   -1.03470  -0.96043  -0.95931  -0.87019  -0.86988
 Alpha  occ. eigenvalues --   -0.79675  -0.79517  -0.78264  -0.78205  -0.65185
 Alpha  occ. eigenvalues --   -0.64951  -0.61230  -0.60682  -0.59362  -0.59335
 Alpha  occ. eigenvalues --   -0.57680  -0.57530  -0.55425  -0.55077  -0.52697
 Alpha  occ. eigenvalues --   -0.52685  -0.52448  -0.52359  -0.50061  -0.49814
 Alpha  occ. eigenvalues --   -0.47918  -0.47887  -0.46817  -0.46421  -0.45814
 Alpha  occ. eigenvalues --   -0.45744  -0.45736  -0.45572  -0.43799  -0.43756
 Alpha virt. eigenvalues --    0.20379   0.23093   0.23623   0.25415   0.25801
 Alpha virt. eigenvalues --    0.26355   0.26529   0.27506   0.28168   0.29208
 Alpha virt. eigenvalues --    0.29993   0.31110   0.31657   0.32077   0.32391

 Mulliken charges:
               1
     1  C   -0.298242
     2  C   -0.299638
     3  C   -0.475698
     4  H    0.149557
     5  H    0.149600
     6  H    0.151847
     7  H    0.151929
     8  H    0.155203
     9  H    0.155161
    10  H    0.160215
    11  C   -0.297779
    12  C   -0.307040
    13  C   -0.477933
    14  H    0.149071
    15  H    0.149265
    16  H    0.161232
    17  H    0.151474
    18  H    0.155797
    19  H    0.155343
    20  H    0.159911
    21  C   -0.299437
    22  C   -0.300086
    23  C   -0.481346
    24  H    0.149598
    25  H    0.150587
    26  H    0.151867
    27  H    0.152562
    28  H    0.162642
    29  H    0.155306
    30  H    0.158952
    31  C   -0.298275
    32  C   -0.299712
    33  C   -0.475716
    34  H    0.149431
    35  H    0.149757
    36  H    0.151863
    37  H    0.152132
    38  H    0.155244
    39  H    0.155107
    40  H    0.160251
 Sum of Mulliken charges =  -0.00000

 Dipole moment (field-independent basis, Debye):
    X=             -0.0037    Y=              0.0093    Z=              0.0106  Tot=              0.0146
 Quadrupole moment (field-independent basis, Debye-Ang):
   XX=            -85.9130   YY=            -84.2886   ZZ=            -84.6770
   XY=             -1.6159   XZ=             -0.1858   YZ=             -0.6128

 Normal termination of Gaussian 16 at Wed May  5 18:12:39 2021.
