 Gaussian 16, Revision A.03,
 Gaussian 16:  EM64L-G16RevA.03 25-Dec-2016

 -------------
 #p 6-31g* mp2
 -------------

 ------------------------------------------------------
 Input file generated by CHIRIPA (05-May-2021 14:55:21)
 ------------------------------------------------------
 Symbolic Z-matrix:
 Charge =  0 Multiplicity = 1

                         Standard orientation:
 ---------------------------------------------------------------------
 Center     Atomic      Atomic             Coordinates (Angstroms)
 Number     Number       Type             X           Y           Z
 ---------------------------------------------------------------------
      1          6           0       -0.507332   -0.723100    0.455673
      2          6           0       -1.265735   -0.064868    1.429365
      3          6           0       -2.629466    0.168941    1.229069
      4          6           0       -3.205016   -0.270998    0.038067
      5          6           0       -2.476083   -0.929554   -0.950999
      6          6           0       -1.113857   -1.152585   -0.729313
      7          1           0        0.551463   -0.900542    0.619576
      8          1           0       -0.797358    0.269788    2.350600
      9          1           0       -3.240142    0.676101    1.966146
     10          1           0       -2.971000   -1.251430   -1.859224
     11          1           0       -0.527339   -1.664030   -1.487248
     12          7           0       -4.647940   -0.029180   -0.185301
     13          8           0       -5.131347   -0.426668   -1.243109
     14          8           0       -5.268175    0.553265    0.701662
     15          6           0        3.202586    0.857101    0.038373
     16          6           0        3.380001    2.263373   -0.535134
     17          6           0        2.180518    3.170288   -0.258480
     18          1           0        2.294920    0.406695   -0.386152
     19          1           0        3.038281    0.928817    1.122466
     20          1           0        3.545301    2.188938   -1.617608
     21          1           0        4.287455    2.710412   -0.109340
     22          1           0        2.016547    3.274220    0.818978
     23          1           0        1.270177    2.749783   -0.697861
     24          1           0        2.328535    4.170613   -0.677168
     25          6           0        4.393457   -0.061318   -0.230067
     26          6           0        4.216042   -1.467589    0.343441
     27          6           0        5.415525   -2.374504    0.066786
     28          1           0        4.557762   -0.133034   -1.314159
     29          1           0        5.301124    0.389089    0.194459
     30          1           0        3.308588   -1.914628   -0.082353
     31          1           0        4.050742   -1.393154    1.425915
     32          1           0        6.325867   -1.954000    0.506167
     33          1           0        5.579495   -2.478436   -1.010671
     34          1           0        5.267508   -3.374830    0.485475
 ---------------------------------------------------------------------

 SCF Done:  E(RHF) =  -669.535500521     A.U. after   15 cycles
 E2 =    -0.2091851636D+01 EUMP2 =    -0.67162735215609D+03

 The electronic state is 1-A.
 Alpha  occ. eigenvalues --  -20.60730 -20.60725 -15.85785 -11.31143 -11.27720
 Alpha  occ. eigenvalues --  -11.27710 -11.27393 -11.26729 -11.26706 -11.22679
 Alpha  occ. eigenvalues --  -11.22464 -11.22366 -11.22314 -11.21903 -11.21701
 Alpha  occ. eigenvalues --   -1.59806  -1.39360  -1.19315  -1.09394  -1.08704
 Alpha  occ. eigenvalues --   -1.04719  -1.04389  -0.96823  -0.95542  -0.87834
 Alpha  occ. eigenvalues --   -0.86114  -0.82382  -0.80470  -0.79259  -0.77429
 Alpha  occ. eigenvalues --   -0.72002  -0.71130  -0.70418  -0.66018  -0.64963
 Alpha  occ. eigenvalues --   -0.64721  -0.62069  -0.61781  -0.60195  -0.58455
 Alpha  occ. eigenvalues --   -0.56120  -0.55215  -0.53481  -0.53234  -0.53042
 Alpha  occ. eigenvalues --   -0.52809  -0.50759  -0.48777  -0.48761  -0.48757
 Alpha  occ. eigenvalues --   -0.47511  -0.46725  -0.46684  -0.44767  -0.44670
 Alpha  occ. eigenvalues --   -0.37264  -0.36329
 Alpha virt. eigenvalues --    0.05079   0.11309   0.16484   0.19731   0.22561
 Alpha virt. eigenvalues --    0.23392   0.25017   0.25594   0.27128   0.27508
 Alpha virt. eigenvalues --    0.29949   0.30426   0.30806   0.31215   0.32126

 Mulliken charges:
               1
     1  C   -0.173782
     2  C   -0.220133
     3  C   -0.170779
     4  C    0.158295
     5  C   -0.170703
     6  C   -0.221228
     7  H    0.234030
     8  H    0.223628
     9  H    0.275432
    10  H    0.275347
    11  H    0.222546
    12  N    0.488089
    13  O   -0.460647
    14  O   -0.460503
    15  C   -0.302991
    16  C   -0.299733
    17  C   -0.477287
    18  H    0.145298
    19  H    0.146681
    20  H    0.154208
    21  H    0.154580
    22  H    0.153562
    23  H    0.158081
    24  H    0.163904
    25  C   -0.298135
    26  C   -0.301500
    27  C   -0.475959
    28  H    0.152055
    29  H    0.153729
    30  H    0.144428
    31  H    0.151717
    32  H    0.158377
    33  H    0.157185
    34  H    0.162212
 Sum of Mulliken charges =  -0.00000

 Dipole moment (field-independent basis, Debye):
    X=              5.2994    Y=             -0.7754    Z=              0.7622  Tot=              5.4098
 Quadrupole moment (field-independent basis, Debye-Ang):
   XX=           -127.5364   YY=            -94.1554   ZZ=            -90.1090
   XY=              1.9626   XZ=             -2.3165   YZ=              2.1889

 Normal termination of Gaussian 16 at Wed May  5 18:59:54 2021.
