 Gaussian 16, Revision A.03,
 Gaussian 16:  EM64L-G16RevA.03 25-Dec-2016

 -------------
 #p 6-31g* mp2
 -------------

 ------------------------------------------------------
 Input file generated by CHIRIPA (05-May-2021 14:55:21)
 ------------------------------------------------------
 Symbolic Z-matrix:
 Charge =  0 Multiplicity = 1

                         Standard orientation:
 ---------------------------------------------------------------------
 Center     Atomic      Atomic             Coordinates (Angstroms)
 Number     Number       Type             X           Y           Z
 ---------------------------------------------------------------------
      1          6           0       -4.440095   -1.358293    1.247069
      2          6           0       -3.553848   -1.800316    0.259293
      3          6           0       -2.724402   -0.893778   -0.407608
      4          6           0       -2.807691    0.453637   -0.060010
      5          6           0       -3.680340    0.924882    0.919634
      6          6           0       -4.500406    0.000500    1.573512
      7          1           0       -5.080785   -2.069445    1.760076
      8          1           0       -3.504864   -2.854983    0.003706
      9          1           0       -2.029174   -1.208760   -1.176284
     10          1           0       -3.706560    1.982447    1.152630
     11          1           0       -5.187721    0.346634    2.340216
     12          7           0       -1.934559    1.422794   -0.759134
     13          8           0       -2.027026    2.604616   -0.434507
     14          8           0       -1.174264    0.982246   -1.618498
     15          6           0        4.361273    0.112641   -0.005072
     16          6           0        5.275341   -0.189870    1.182763
     17          6           0        6.437449    0.796733    1.300717
     18          1           0        4.954295    0.095121   -0.929714
     19          1           0        3.967880    1.133764    0.094653
     20          1           0        5.665799   -1.210612    1.081542
     21          1           0        4.680037   -0.171817    2.104665
     22          1           0        6.064281    1.818278    1.426381
     23          1           0        7.055643    0.773580    0.397445
     24          1           0        7.078148    0.561926    2.156424
     25          6           0        3.194808   -0.865047   -0.136277
     26          6           0        2.280740   -0.562535   -1.324111
     27          6           0        1.118632   -1.549138   -1.442066
     28          1           0        3.588201   -1.886169   -0.236002
     29          1           0        2.601787   -0.847526    0.788365
     30          1           0        2.876044   -0.580589   -2.246013
     31          1           0        1.890282    0.458206   -1.222891
     32          1           0        0.500438   -1.525986   -0.538794
     33          1           0        1.491800   -2.570683   -1.567729
     34          1           0        0.477933   -1.314331   -2.297772
 ---------------------------------------------------------------------

 SCF Done:  E(RHF) =  -669.535714679     A.U. after   15 cycles
 E2 =    -0.2092305025D+01 EUMP2 =    -0.67162801970373D+03

 The electronic state is 1-A.
 Alpha  occ. eigenvalues --  -20.60898 -20.60892 -15.85927 -11.31233 -11.27806
 Alpha  occ. eigenvalues --  -11.27752 -11.27540 -11.26810 -11.26789 -11.21192
 Alpha  occ. eigenvalues --  -11.20855 -11.20792 -11.20723 -11.20702 -11.20452
 Alpha  occ. eigenvalues --   -1.59962  -1.39517  -1.19405  -1.08814  -1.07854
 Alpha  occ. eigenvalues --   -1.04797  -1.02951  -0.95686  -0.95418  -0.86500
 Alpha  occ. eigenvalues --   -0.86184  -0.82490  -0.79042  -0.77659  -0.77533
 Alpha  occ. eigenvalues --   -0.72164  -0.71278  -0.70514  -0.65065  -0.64809
 Alpha  occ. eigenvalues --   -0.64475  -0.62161  -0.60333  -0.58789  -0.57018
 Alpha  occ. eigenvalues --   -0.55320  -0.54748  -0.53136  -0.52911  -0.52113
 Alpha  occ. eigenvalues --   -0.51870  -0.49450  -0.48905  -0.48866  -0.47341
 Alpha  occ. eigenvalues --   -0.46040  -0.45232  -0.45125  -0.44852  -0.43213
 Alpha  occ. eigenvalues --   -0.37388  -0.36390
 Alpha virt. eigenvalues --    0.04947   0.11191   0.16434   0.21231   0.23448
 Alpha virt. eigenvalues --    0.24748   0.26719   0.27236   0.27733   0.28113
 Alpha virt. eigenvalues --    0.29164   0.30677   0.31651   0.31705   0.32352

 Mulliken charges:
               1
     1  C   -0.170334
     2  C   -0.220813
     3  C   -0.172068
     4  C    0.155799
     5  C   -0.170651
     6  C   -0.218784
     7  H    0.225801
     8  H    0.224369
     9  H    0.283179
    10  H    0.275485
    11  H    0.223546
    12  N    0.489767
    13  O   -0.459751
    14  O   -0.461942
    15  C   -0.298467
    16  C   -0.299033
    17  C   -0.475495
    18  H    0.149196
    19  H    0.152597
    20  H    0.150158
    21  H    0.150617
    22  H    0.155984
    23  H    0.154888
    24  H    0.158420
    25  C   -0.298288
    26  C   -0.302134
    27  C   -0.475641
    28  H    0.145583
    29  H    0.146787
    30  H    0.149707
    31  H    0.169870
    32  H    0.145869
    33  H    0.146109
    34  H    0.169667
 Sum of Mulliken charges =  -0.00000

 Dipole moment (field-independent basis, Debye):
    X=             -3.2206    Y=             -3.2439    Z=              2.3765  Tot=              5.1520
 Quadrupole moment (field-independent basis, Debye-Ang):
   XX=            -78.2705   YY=            -95.7608   ZZ=            -93.7833
   XY=              6.1948   XZ=             -8.8913   YZ=              3.7298

 Normal termination of Gaussian 16 at Wed May  5 22:13:14 2021.
