 Gaussian 16, Revision A.03,
 Gaussian 16:  EM64L-G16RevA.03 25-Dec-2016

 -------------
 #p 6-31g* mp2
 -------------

 ------------------------------------------------------
 Input file generated by CHIRIPA (05-May-2021 14:51:08)
 ------------------------------------------------------
 Symbolic Z-matrix:
 Charge =  0 Multiplicity = 1

                         Standard orientation:
 ---------------------------------------------------------------------
 Center     Atomic      Atomic             Coordinates (Angstroms)
 Number     Number       Type             X           Y           Z
 ---------------------------------------------------------------------
      1          6           0        4.360821   -0.592360   -0.200203
      2          6           0        5.683287    0.165313   -0.077721
      3          6           0        6.816215   -0.491570   -0.866880
      4          1           0        4.502932   -1.624102    0.149450
      5          1           0        4.080459   -0.657530   -1.260649
      6          1           0        5.960370    0.230238    0.982291
      7          1           0        5.537963    1.195426   -0.427526
      8          1           0        6.565197   -0.542420   -1.931307
      9          1           0        6.990004   -1.513091   -0.513480
     10          1           0        7.752277    0.066407   -0.765340
     11          6           0        3.218601    0.052081    0.583223
     12          6           0        1.896135   -0.705591    0.460741
     13          6           0        0.763207   -0.048709    1.249900
     14          1           0        3.498963    0.117252    1.643669
     15          1           0        3.076490    1.083824    0.233570
     16          1           0        2.041459   -1.735704    0.810546
     17          1           0        1.619052   -0.770517   -0.599271
     18          1           0        0.589418    0.972813    0.896500
     19          1           0        1.014225    0.002141    2.314327
     20          1           0       -0.172855   -0.606685    1.148360
     21          6           0       -3.783980    1.032094   -0.138367
     22          6           0       -2.388175    1.639502   -0.282478
     23          6           0       -2.393064    3.164619   -0.173914
     24          1           0       -4.441995    1.453962   -0.910369
     25          1           0       -4.207761    1.330282    0.830596
     26          1           0       -1.966598    1.339118   -1.250289
     27          1           0       -1.733356    1.215996    0.489836
     28          1           0       -2.789143    3.480475    0.796631
     29          1           0       -3.023710    3.604297   -0.953382
     30          1           0       -1.385156    3.577869   -0.279771
     31          6           0       -3.795442   -0.491816   -0.244654
     32          6           0       -5.191247   -1.099224   -0.100541
     33          6           0       -5.186358   -2.624341   -0.209106
     34          1           0       -3.371661   -0.790005   -1.213616
     35          1           0       -3.137426   -0.913683    0.527349
     36          1           0       -5.846066   -0.675717   -0.872857
     37          1           0       -5.612824   -0.798840    0.867270
     38          1           0       -4.555712   -3.064018    0.570362
     39          1           0       -4.790279   -2.940196   -1.179651
     40          1           0       -6.194266   -3.037591   -0.103248
 ---------------------------------------------------------------------

 SCF Done:  E(RHF) =  -470.732420687     A.U. after   11 cycles
 E2 =    -0.1583175122D+01 EUMP2 =    -0.47231559580853D+03

 The electronic state is 1-A.
 Alpha  occ. eigenvalues --  -11.21608 -11.21607 -11.21586 -11.21423 -11.21414
 Alpha  occ. eigenvalues --  -11.21373 -11.21354 -11.21293 -11.21076 -11.21067
 Alpha  occ. eigenvalues --  -11.21062 -11.21019  -1.08444  -1.08379  -1.03561
 Alpha  occ. eigenvalues --   -1.03462  -0.96008  -0.95933  -0.87049  -0.86933
 Alpha  occ. eigenvalues --   -0.79709  -0.79463  -0.78274  -0.78168  -0.65100
 Alpha  occ. eigenvalues --   -0.64997  -0.61047  -0.60803  -0.59421  -0.59255
 Alpha  occ. eigenvalues --   -0.57640  -0.57526  -0.55333  -0.55181  -0.52779
 Alpha  occ. eigenvalues --   -0.52594  -0.52417  -0.52355  -0.50047  -0.49814
 Alpha  occ. eigenvalues --   -0.47948  -0.47822  -0.46781  -0.46437  -0.45834
 Alpha  occ. eigenvalues --   -0.45746  -0.45697  -0.45538  -0.43769  -0.43690
 Alpha virt. eigenvalues --    0.21899   0.22993   0.23750   0.24345   0.25678
 Alpha virt. eigenvalues --    0.26492   0.26898   0.27165   0.27814   0.29185
 Alpha virt. eigenvalues --    0.30923   0.31267   0.31736   0.31842   0.32165

 Mulliken charges:
               1
     1  C   -0.298305
     2  C   -0.299651
     3  C   -0.475710
     4  H    0.149692
     5  H    0.149569
     6  H    0.151926
     7  H    0.151942
     8  H    0.155194
     9  H    0.155191
    10  H    0.160275
    11  C   -0.298785
    12  C   -0.299384
    13  C   -0.480688
    14  H    0.149499
    15  H    0.149802
    16  H    0.151848
    17  H    0.152488
    18  H    0.158914
    19  H    0.154667
    20  H    0.162572
    21  C   -0.297659
    22  C   -0.308213
    23  C   -0.475787
    24  H    0.149025
    25  H    0.149121
    26  H    0.150136
    27  H    0.164557
    28  H    0.155033
    29  H    0.154848
    30  H    0.158991
    31  C   -0.299785
    32  C   -0.299569
    33  C   -0.475698
    34  H    0.149399
    35  H    0.150089
    36  H    0.152093
    37  H    0.151968
    38  H    0.155023
    39  H    0.155131
    40  H    0.160238
 Sum of Mulliken charges =  -0.00000

 Dipole moment (field-independent basis, Debye):
    X=              0.0337    Y=             -0.0154    Z=              0.0203  Tot=              0.0422
 Quadrupole moment (field-independent basis, Debye-Ang):
   XX=            -85.7409   YY=            -85.9260   ZZ=            -83.3592
   XY=              0.0610   XZ=              0.7524   YZ=             -0.7504

 Normal termination of Gaussian 16 at Wed May  5 16:35:10 2021.
