 Gaussian 16, Revision A.03,
 Gaussian 16:  EM64L-G16RevA.03 25-Dec-2016

 -------------
 #p 6-31g* mp2
 -------------

 ------------------------------------------------------
 Input file generated by CHIRIPA (05-May-2021 14:55:25)
 ------------------------------------------------------
 Symbolic Z-matrix:
 Charge =  0 Multiplicity = 1

                         Standard orientation:
 ---------------------------------------------------------------------
 Center     Atomic      Atomic             Coordinates (Angstroms)
 Number     Number       Type             X           Y           Z
 ---------------------------------------------------------------------
      1          6           0       -5.387862    1.242103   -0.950552
      2          6           0       -4.620961    1.936961   -0.009512
      3          6           0       -3.536240    1.318031    0.618862
      4          6           0       -3.245332   -0.002721    0.280815
      5          6           0       -3.990458   -0.721531   -0.652668
      6          6           0       -5.070722   -0.082590   -1.268566
      7          1           0       -6.228769    1.730675   -1.433843
      8          1           0       -4.864938    2.965820    0.239422
      9          1           0       -2.925803    1.832578    1.351001
     10          1           0       -3.722821   -1.746245   -0.880155
     11          1           0       -5.664555   -0.624676   -1.999011
     12          7           0       -2.099345   -0.668547    0.939443
     13          8           0       -1.863680   -1.832895    0.624178
     14          8           0       -1.458486   -0.013465    1.758470
     15          6           0        3.903767   -0.573706   -0.608602
     16          6           0        2.721987   -1.052675    0.235180
     17          6           0        1.746462   -1.925283   -0.555201
     18          1           0        3.524874   -0.011866   -1.473310
     19          1           0        4.435269   -1.446866   -1.011706
     20          1           0        2.193691   -0.178894    0.637705
     21          1           0        3.103745   -1.613277    1.098083
     22          1           0        2.253099   -2.814531   -0.943991
     23          1           0        1.337875   -1.371999   -1.406985
     24          1           0        0.909367   -2.256629    0.067166
     25          6           0        4.887796    0.299747    0.167603
     26          6           0        6.069577    0.778717   -0.676178
     27          6           0        7.045101    1.651325    0.114203
     28          1           0        4.356294    1.172908    0.570707
     29          1           0        5.266689   -0.262092    1.032312
     30          1           0        5.687818    1.339319   -1.539082
     31          1           0        6.597872   -0.095064   -1.078703
     32          1           0        7.453687    1.098040    0.965986
     33          1           0        6.538464    2.540574    0.502992
     34          1           0        7.882195    1.982671   -0.508164
 ---------------------------------------------------------------------

 SCF Done:  E(RHF) =  -669.536448365     A.U. after   15 cycles
 E2 =    -0.2091042673D+01 EUMP2 =    -0.67162749103827D+03

 The electronic state is 1-A.
 Alpha  occ. eigenvalues --  -20.60988 -20.60966 -15.85997 -11.31308 -11.27868
 Alpha  occ. eigenvalues --  -11.27862 -11.27604 -11.26871 -11.26861 -11.21025
 Alpha  occ. eigenvalues --  -11.20634 -11.20594 -11.20452 -11.20305 -11.19514
 Alpha  occ. eigenvalues --   -1.60028  -1.39585  -1.19473  -1.08880  -1.07563
 Alpha  occ. eigenvalues --   -1.04866  -1.02582  -0.95725  -0.95030  -0.86268
 Alpha  occ. eigenvalues --   -0.86054  -0.82557  -0.78685  -0.77612  -0.77332
 Alpha  occ. eigenvalues --   -0.72217  -0.71339  -0.70581  -0.65128  -0.64870
 Alpha  occ. eigenvalues --   -0.64209  -0.62213  -0.59999  -0.58433  -0.56601
 Alpha  occ. eigenvalues --   -0.55371  -0.54356  -0.53200  -0.52959  -0.51689
 Alpha  occ. eigenvalues --   -0.51469  -0.49042  -0.48974  -0.48934  -0.46971
 Alpha  occ. eigenvalues --   -0.45759  -0.45018  -0.44877  -0.44764  -0.42784
 Alpha  occ. eigenvalues --   -0.37450  -0.36467
 Alpha virt. eigenvalues --    0.04893   0.11189   0.16385   0.21325   0.23655
 Alpha virt. eigenvalues --    0.25312   0.27244   0.27460   0.28186   0.28344
 Alpha virt. eigenvalues --    0.29007   0.30897   0.32266   0.32408   0.32581

 Mulliken charges:
               1
     1  C   -0.170535
     2  C   -0.218615
     3  C   -0.170800
     4  C    0.158452
     5  C   -0.170619
     6  C   -0.218598
     7  H    0.226044
     8  H    0.223836
     9  H    0.275789
    10  H    0.276130
    11  H    0.223931
    12  N    0.488933
    13  O   -0.459322
    14  O   -0.459543
    15  C   -0.297233
    16  C   -0.299048
    17  C   -0.485717
    18  H    0.145847
    19  H    0.146679
    20  H    0.157238
    21  H    0.150602
    22  H    0.146916
    23  H    0.145540
    24  H    0.188949
    25  C   -0.297447
    26  C   -0.298795
    27  C   -0.475155
    28  H    0.149053
    29  H    0.149251
    30  H    0.150095
    31  H    0.150838
    32  H    0.154897
    33  H    0.154347
    34  H    0.158060
 Sum of Mulliken charges =  -0.00000

 Dipole moment (field-independent basis, Debye):
    X=             -4.3930    Y=              2.3174    Z=             -2.1933  Tot=              5.4294
 Quadrupole moment (field-independent basis, Debye-Ang):
   XX=            -70.4400   YY=            -91.2173   ZZ=            -95.5977
   XY=             -7.8904   XZ=              7.3494   YZ=              2.5097

 Normal termination of Gaussian 16 at Thu May  6 17:46:11 2021.
