 Gaussian 16, Revision A.03,
 Gaussian 16:  EM64L-G16RevA.03 25-Dec-2016

 -------------
 #p 6-31g* mp2
 -------------

 ------------------------------------------------------
 Input file generated by CHIRIPA (05-May-2021 14:53:15)
 ------------------------------------------------------
 Symbolic Z-matrix:
 Charge =  0 Multiplicity = 1

                         Standard orientation:
 ---------------------------------------------------------------------
 Center     Atomic      Atomic             Coordinates (Angstroms)
 Number     Number       Type             X           Y           Z
 ---------------------------------------------------------------------
      1          6           0       -3.554707    0.766193   -0.290071
      2          6           0       -4.330981    1.782918    0.547578
      3          6           0       -3.877413    3.221986    0.300283
      4          1           0       -2.483084    0.858005   -0.066152
      5          1           0       -3.673723    1.011338   -1.354558
      6          1           0       -4.211669    1.535112    1.610109
      7          1           0       -5.400899    1.688545    0.321780
      8          1           0       -4.012436    3.493055   -0.751806
      9          1           0       -2.816448    3.338751    0.543843
     10          1           0       -4.445444    3.932208    0.909205
     11          6           0       -3.996724   -0.676922   -0.053921
     12          6           0       -3.220451   -1.693648   -0.891569
     13          6           0       -3.674019   -3.132716   -0.644275
     14          1           0       -3.877709   -0.922067    1.010567
     15          1           0       -5.068347   -0.768734   -0.277839
     16          1           0       -2.150533   -1.599274   -0.665772
     17          1           0       -3.339763   -1.445842   -1.954100
     18          1           0       -4.734983   -3.249480   -0.887834
     19          1           0       -3.538996   -3.403784    0.407815
     20          1           0       -3.105987   -3.842937   -1.253196
     21          6           0        0.709052   -0.838403    0.970675
     22          6           0        1.859252   -1.596994    1.211711
     23          6           0        3.106043   -1.161496    0.753016
     24          6           0        3.166403    0.042812    0.053521
     25          6           0        2.038496    0.821001   -0.202478
     26          6           0        0.802180    0.366050    0.265593
     27          1           0       -0.255417   -1.184264    1.330642
     28          1           0        1.789926   -2.532784    1.759010
     29          1           0        4.012431   -1.729018    0.925632
     30          1           0        2.139205    1.749672   -0.750973
     31          1           0       -0.089410    0.957253    0.076935
     32          7           0        4.480780    0.514151   -0.437042
     33          8           0        4.507278    1.578668   -1.050832
     34          8           0        5.459603   -0.189856   -0.198467
 ---------------------------------------------------------------------

 SCF Done:  E(RHF) =  -669.535397167     A.U. after   15 cycles
 E2 =    -0.2092091016D+01 EUMP2 =    -0.67162748818219D+03

 The electronic state is 1-A.
 Alpha  occ. eigenvalues --  -20.60760 -20.60755 -15.85813 -11.31190 -11.27754
 Alpha  occ. eigenvalues --  -11.27746 -11.27500 -11.26776 -11.26754 -11.22556
 Alpha  occ. eigenvalues --  -11.22529 -11.22464 -11.22371 -11.21904 -11.21867
 Alpha  occ. eigenvalues --   -1.59835  -1.39388  -1.19360  -1.09430  -1.08755
 Alpha  occ. eigenvalues --   -1.04762  -1.04434  -0.96884  -0.95589  -0.87894
 Alpha  occ. eigenvalues --   -0.86166  -0.82420  -0.80492  -0.79261  -0.77462
 Alpha  occ. eigenvalues --   -0.72032  -0.71158  -0.70481  -0.66126  -0.65010
 Alpha  occ. eigenvalues --   -0.64738  -0.62124  -0.61832  -0.60242  -0.58488
 Alpha  occ. eigenvalues --   -0.56189  -0.55268  -0.53533  -0.53317  -0.53090
 Alpha  occ. eigenvalues --   -0.52854  -0.50826  -0.48830  -0.48786  -0.48763
 Alpha  occ. eigenvalues --   -0.47537  -0.46773  -0.46707  -0.44791  -0.44714
 Alpha  occ. eigenvalues --   -0.37334  -0.36361
 Alpha virt. eigenvalues --    0.05044   0.11240   0.16461   0.18332   0.22444
 Alpha virt. eigenvalues --    0.23151   0.24830   0.26099   0.26975   0.27791
 Alpha virt. eigenvalues --    0.29449   0.30521   0.30995   0.31404   0.31963

 Mulliken charges:
               1
     1  C   -0.303224
     2  C   -0.299940
     3  C   -0.475909
     4  H    0.141235
     5  H    0.154483
     6  H    0.152153
     7  H    0.155937
     8  H    0.157688
     9  H    0.151313
    10  H    0.164353
    11  C   -0.299095
    12  C   -0.303342
    13  C   -0.476053
    14  H    0.146799
    15  H    0.154757
    16  H    0.147135
    17  H    0.156590
    18  H    0.158691
    19  H    0.152592
    20  H    0.163428
    21  C   -0.174120
    22  C   -0.218810
    23  C   -0.171214
    24  C    0.159162
    25  C   -0.171892
    26  C   -0.224717
    27  H    0.226689
    28  H    0.223579
    29  H    0.275638
    30  H    0.276327
    31  H    0.232533
    32  N    0.487890
    33  O   -0.460242
    34  O   -0.460415
 Sum of Mulliken charges =  -0.00000

 Dipole moment (field-independent basis, Debye):
    X=             -4.8484    Y=             -1.6507    Z=              1.6613  Tot=              5.3844
 Quadrupole moment (field-independent basis, Debye-Ang):
   XX=           -122.0973   YY=            -92.7017   ZZ=            -93.8885
   XY=             -7.9563   XZ=              7.0345   YZ=             -1.7955

 Normal termination of Gaussian 16 at Thu May  6 04:15:45 2021.
