 Gaussian 16, Revision A.03,
 Gaussian 16:  EM64L-G16RevA.03 25-Dec-2016

 -------------
 #p 6-31g* mp2
 -------------

 ------------------------------------------------------
 Input file generated by CHIRIPA (05-May-2021 14:53:11)
 ------------------------------------------------------
 Symbolic Z-matrix:
 Charge =  0 Multiplicity = 1

                         Standard orientation:
 ---------------------------------------------------------------------
 Center     Atomic      Atomic             Coordinates (Angstroms)
 Number     Number       Type             X           Y           Z
 ---------------------------------------------------------------------
      1          6           0       -2.780790    0.773262    0.031107
      2          6           0       -2.040198    2.085177   -0.230402
      3          6           0       -2.740700    3.293589    0.391557
      4          1           0       -3.802367    0.850932   -0.365495
      5          1           0       -2.876971    0.624463    1.115544
      6          1           0       -1.944225    2.230772   -1.314011
      7          1           0       -1.020205    2.004307    0.166698
      8          1           0       -2.823162    3.174676    1.476758
      9          1           0       -3.752433    3.402428   -0.012364
     10          1           0       -2.194332    4.220779    0.192410
     11          6           0       -2.092768   -0.443906   -0.584404
     12          6           0       -2.833360   -1.755821   -0.322894
     13          6           0       -2.132858   -2.964233   -0.944854
     14          1           0       -1.996587   -0.295107   -1.668840
     15          1           0       -1.071191   -0.521576   -0.187802
     16          1           0       -3.853354   -1.674951   -0.719995
     17          1           0       -2.929333   -1.901416    0.760714
     18          1           0       -1.121126   -3.073072   -0.540932
     19          1           0       -2.050397   -2.845320   -2.030054
     20          1           0       -2.679226   -3.891423   -0.745706
     21          6           0        2.796498    0.836275   -1.937425
     22          6           0        2.229667   -0.442425   -1.925235
     23          6           0        1.731836   -0.987097   -0.737781
     24          6           0        1.817425   -0.221940    0.424329
     25          6           0        2.376449    1.054923    0.444398
     26          6           0        2.867955    1.579557   -0.754655
     27          1           0        3.180767    1.251606   -2.864373
     28          1           0        2.172841   -1.021944   -2.842282
     29          1           0        1.287965   -1.974498   -0.699918
     30          1           0        2.419068    1.608636    1.374454
     31          1           0        3.307634    2.572877   -0.761142
     32          7           0        1.293743   -0.787954    1.687573
     33          8           0        1.380989   -0.093606    2.697972
     34          8           0        0.805950   -1.915227    1.643386
 ---------------------------------------------------------------------

 SCF Done:  E(RHF) =  -669.535211305     A.U. after   15 cycles
 E2 =    -0.2095187491D+01 EUMP2 =    -0.67163039879596D+03

 The electronic state is 1-A.
 Alpha  occ. eigenvalues --  -20.60998 -20.60983 -15.86003 -11.31271 -11.27863
 Alpha  occ. eigenvalues --  -11.27824 -11.27574 -11.26844 -11.26821 -11.21430
 Alpha  occ. eigenvalues --  -11.21156 -11.21080 -11.21009 -11.20920 -11.20741
 Alpha  occ. eigenvalues --   -1.60047  -1.39605  -1.19460  -1.08870  -1.08126
 Alpha  occ. eigenvalues --   -1.04845  -1.03240  -0.95725  -0.95700  -0.86733
 Alpha  occ. eigenvalues --   -0.86254  -0.82548  -0.79321  -0.78004  -0.77580
 Alpha  occ. eigenvalues --   -0.72234  -0.71387  -0.70568  -0.65126  -0.64877
 Alpha  occ. eigenvalues --   -0.64693  -0.62209  -0.60606  -0.59080  -0.57337
 Alpha  occ. eigenvalues --   -0.55352  -0.55001  -0.53225  -0.52939  -0.52399
 Alpha  occ. eigenvalues --   -0.52141  -0.49656  -0.49013  -0.48982  -0.47650
 Alpha  occ. eigenvalues --   -0.46347  -0.45628  -0.45429  -0.44784  -0.43494
 Alpha  occ. eigenvalues --   -0.37378  -0.36391
 Alpha virt. eigenvalues --    0.04885   0.11109   0.16388   0.20889   0.23102
 Alpha virt. eigenvalues --    0.24152   0.26118   0.26958   0.27610   0.27749
 Alpha virt. eigenvalues --    0.29190   0.30324   0.31428   0.32021   0.32116

 Mulliken charges:
               1
     1  C   -0.299569
     2  C   -0.299488
     3  C   -0.475739
     4  H    0.148196
     5  H    0.155530
     6  H    0.148303
     7  H    0.150167
     8  H    0.158503
     9  H    0.154675
    10  H    0.156872
    11  C   -0.302221
    12  C   -0.296738
    13  C   -0.483544
    14  H    0.143056
    15  H    0.152413
    16  H    0.148773
    17  H    0.161180
    18  H    0.164229
    19  H    0.146884
    20  H    0.161638
    21  C   -0.170067
    22  C   -0.218495
    23  C   -0.172430
    24  C    0.155814
    25  C   -0.171179
    26  C   -0.218173
    27  H    0.226091
    28  H    0.224407
    29  H    0.280248
    30  H    0.275857
    31  H    0.223931
    32  N    0.490611
    33  O   -0.458378
    34  O   -0.461354
 Sum of Mulliken charges =  -0.00000

 Dipole moment (field-independent basis, Debye):
    X=              1.9558    Y=              1.9454    Z=             -4.3073  Tot=              5.1149
 Quadrupole moment (field-independent basis, Debye-Ang):
   XX=            -88.2340   YY=            -93.4721   ZZ=            -97.3132
   XY=              5.0142   XZ=             -6.5998   YZ=              3.4735

 Normal termination of Gaussian 16 at Thu May  6 04:03:32 2021.
