 Gaussian 16, Revision A.03,
 Gaussian 16:  EM64L-G16RevA.03 25-Dec-2016

 -------------
 #p 6-31g* mp2
 -------------

 ------------------------------------------------------
 Input file generated by CHIRIPA (05-May-2021 14:55:24)
 ------------------------------------------------------
 Symbolic Z-matrix:
 Charge =  0 Multiplicity = 1

                         Standard orientation:
 ---------------------------------------------------------------------
 Center     Atomic      Atomic             Coordinates (Angstroms)
 Number     Number       Type             X           Y           Z
 ---------------------------------------------------------------------
      1          6           0        2.681031   -2.682399    0.330156
      2          6           0        3.849645   -1.981498    0.014559
      3          6           0        3.818278   -0.596322   -0.172125
      4          6           0        2.595604    0.059075   -0.034963
      5          6           0        1.414239   -0.611185    0.278755
      6          6           0        1.469195   -1.996216    0.461016
      7          1           0        2.714560   -3.758381    0.473458
      8          1           0        4.792188   -2.511784   -0.087696
      9          1           0        4.707938   -0.028944   -0.417084
     10          1           0        0.489568   -0.055025    0.374077
     11          1           0        0.560057   -2.537949    0.706046
     12          7           0        2.549910    1.525421   -0.230255
     13          8           0        1.460152    2.079570   -0.103834
     14          8           0        3.604720    2.092829   -0.506050
     15          6           0       -3.430745    0.988342   -0.061534
     16          6           0       -2.240159    1.801762    0.447227
     17          6           0       -2.452706    3.309703    0.310356
     18          1           0       -3.615280    1.239946   -1.114904
     19          1           0       -4.331966    1.284371    0.493049
     20          1           0       -1.341187    1.503301   -0.107196
     21          1           0       -2.058317    1.548051    1.499454
     22          1           0       -3.333215    3.627724    0.877953
     23          1           0       -2.612012    3.582720   -0.737826
     24          1           0       -1.589528    3.871987    0.679975
     25          6           0       -3.233279   -0.520893    0.068641
     26          6           0       -4.423865   -1.334314   -0.440121
     27          6           0       -4.211318   -2.842254   -0.303249
     28          1           0       -2.332059   -0.816922   -0.485942
     29          1           0       -3.048744   -0.772497    1.122011
     30          1           0       -4.605708   -1.080602   -1.492347
     31          1           0       -5.322837   -1.035851    0.114303
     32          1           0       -4.052012   -3.115272    0.744932
     33          1           0       -3.330809   -3.160276   -0.870846
     34          1           0       -5.074498   -3.404538   -0.672868
 ---------------------------------------------------------------------

 SCF Done:  E(RHF) =  -669.535923531     A.U. after   15 cycles
 E2 =    -0.2092342361D+01 EUMP2 =    -0.67162826589278D+03

 The electronic state is 1-A.
 Alpha  occ. eigenvalues --  -20.60841 -20.60829 -15.85879 -11.31185 -11.27761
 Alpha  occ. eigenvalues --  -11.27710 -11.27494 -11.26768 -11.26739 -11.21872
 Alpha  occ. eigenvalues --  -11.21697 -11.21466 -11.21282 -11.21162 -11.20393
 Alpha  occ. eigenvalues --   -1.59907  -1.39463  -1.19358  -1.08767  -1.08475
 Alpha  occ. eigenvalues --   -1.04750  -1.03442  -0.95912  -0.95608  -0.86931
 Alpha  occ. eigenvalues --   -0.86154  -0.82443  -0.79581  -0.78317  -0.77448
 Alpha  occ. eigenvalues --   -0.72105  -0.71223  -0.70470  -0.65127  -0.65008
 Alpha  occ. eigenvalues --   -0.64744  -0.62108  -0.60822  -0.59318  -0.57484
 Alpha  occ. eigenvalues --   -0.55264  -0.55221  -0.53088  -0.52864  -0.52541
 Alpha  occ. eigenvalues --   -0.52335  -0.49879  -0.48904  -0.48852  -0.47839
 Alpha  occ. eigenvalues --   -0.46623  -0.45779  -0.45651  -0.44862  -0.43715
 Alpha  occ. eigenvalues --   -0.37344  -0.36353
 Alpha virt. eigenvalues --    0.05012   0.11285   0.16513   0.20341   0.22980
 Alpha virt. eigenvalues --    0.24136   0.25029   0.26734   0.27848   0.27978
 Alpha virt. eigenvalues --    0.29858   0.30378   0.31541   0.31615   0.32463

 Mulliken charges:
               1
     1  C   -0.170286
     2  C   -0.219108
     3  C   -0.170086
     4  C    0.155146
     5  C   -0.175610
     6  C   -0.223077
     7  H    0.225704
     8  H    0.223385
     9  H    0.275442
    10  H    0.288116
    11  H    0.225534
    12  N    0.490644
    13  O   -0.465579
    14  O   -0.459758
    15  C   -0.297665
    16  C   -0.311475
    17  C   -0.474889
    18  H    0.151121
    19  H    0.149628
    20  H    0.168791
    21  H    0.146937
    22  H    0.150008
    23  H    0.155044
    24  H    0.172888
    25  C   -0.300194
    26  C   -0.298928
    27  C   -0.476081
    28  H    0.142263
    29  H    0.146355
    30  H    0.154289
    31  H    0.154255
    32  H    0.153230
    33  H    0.151672
    34  H    0.162285
 Sum of Mulliken charges =  -0.00000

 Dipole moment (field-independent basis, Debye):
    X=              0.2020    Y=             -5.0040    Z=              0.6479  Tot=              5.0498
 Quadrupole moment (field-independent basis, Debye-Ang):
   XX=            -88.9358   YY=            -96.8441   ZZ=            -94.7006
   XY=            -13.6483   XZ=              0.5324   YZ=              0.2219

 Normal termination of Gaussian 16 at Thu May  6 12:40:23 2021.
