 Gaussian 16, Revision A.03,
 Gaussian 16:  EM64L-G16RevA.03 25-Dec-2016

 -------------
 #p 6-31g* mp2
 -------------

 ------------------------------------------------------
 Input file generated by CHIRIPA (05-May-2021 14:53:16)
 ------------------------------------------------------
 Symbolic Z-matrix:
 Charge =  0 Multiplicity = 1

                         Standard orientation:
 ---------------------------------------------------------------------
 Center     Atomic      Atomic             Coordinates (Angstroms)
 Number     Number       Type             X           Y           Z
 ---------------------------------------------------------------------
      1          6           0        3.772507    0.865701   -0.127553
      2          6           0        2.506364    1.696415   -0.339170
      3          6           0        2.737957    3.192345   -0.123877
      4          1           0        4.150041    1.037056    0.889821
      5          1           0        4.553764    1.219336   -0.814556
      6          1           0        1.727290    1.340405    0.347064
      7          1           0        2.131692    1.522915   -1.356094
      8          1           0        3.496397    3.568574   -0.818011
      9          1           0        3.089697    3.385028    0.894825
     10          1           0        1.819905    3.767314   -0.280248
     11          6           0        3.556984   -0.631791   -0.339198
     12          6           0        4.823127   -1.462504   -0.127580
     13          6           0        4.591534   -2.958435   -0.342873
     14          1           0        2.775726   -0.985426    0.347806
     15          1           0        3.179449   -0.803146   -1.356572
     16          1           0        5.197799   -1.289004    0.889344
     17          1           0        5.602201   -1.106495   -0.813814
     18          1           0        4.239794   -3.151117   -1.361575
     19          1           0        3.833094   -3.334664    0.351260
     20          1           0        5.509585   -3.533404   -0.186502
     21          6           0       -4.343974   -0.405560   -1.836132
     22          6           0       -3.215181    0.416488   -1.917257
     23          6           0       -2.387526    0.597858   -0.805213
     24          6           0       -2.719915   -0.060997    0.377462
     25          6           0       -3.837628   -0.886467    0.489738
     26          6           0       -4.651054   -1.053272   -0.635011
     27          1           0       -4.981390   -0.540796   -2.704930
     28          1           0       -2.974254    0.920761   -2.848765
     29          1           0       -1.507534    1.228576   -0.840265
     30          1           0       -4.052031   -1.375972    1.431988
     31          1           0       -5.527048   -1.692283   -0.569100
     32          7           0       -1.851246    0.123302    1.561457
     33          8           0       -2.165834   -0.468276    2.591849
     34          8           0       -0.872244    0.855844    1.436664
 ---------------------------------------------------------------------

 SCF Done:  E(RHF) =  -669.536243126     A.U. after   15 cycles
 E2 =    -0.2091028056D+01 EUMP2 =    -0.67162727118147D+03

 The electronic state is 1-A.
 Alpha  occ. eigenvalues --  -20.60930 -20.60917 -15.85966 -11.31264 -11.27831
 Alpha  occ. eigenvalues --  -11.27819 -11.27568 -11.26835 -11.26824 -11.21133
 Alpha  occ. eigenvalues --  -11.20814 -11.20764 -11.20701 -11.20688 -11.20415
 Alpha  occ. eigenvalues --   -1.59991  -1.39547  -1.19434  -1.08843  -1.07816
 Alpha  occ. eigenvalues --   -1.04828  -1.02934  -0.95689  -0.95410  -0.86429
 Alpha  occ. eigenvalues --   -0.86229  -0.82525  -0.79005  -0.77679  -0.77518
 Alpha  occ. eigenvalues --   -0.72193  -0.71304  -0.70544  -0.65094  -0.64832
 Alpha  occ. eigenvalues --   -0.64432  -0.62175  -0.60316  -0.58783  -0.57018
 Alpha  occ. eigenvalues --   -0.55336  -0.54696  -0.53162  -0.52920  -0.52117
 Alpha  occ. eigenvalues --   -0.51839  -0.49354  -0.48951  -0.48941  -0.47324
 Alpha  occ. eigenvalues --   -0.46018  -0.45227  -0.45152  -0.44779  -0.43193
 Alpha  occ. eigenvalues --   -0.37415  -0.36429
 Alpha virt. eigenvalues --    0.04932   0.11225   0.16413   0.21157   0.23455
 Alpha virt. eigenvalues --    0.24562   0.26820   0.27264   0.27620   0.28528
 Alpha virt. eigenvalues --    0.28915   0.30741   0.31737   0.31963   0.32498

 Mulliken charges:
               1
     1  C   -0.297080
     2  C   -0.313010
     3  C   -0.473465
     4  H    0.151430
     5  H    0.145356
     6  H    0.181034
     7  H    0.140319
     8  H    0.150134
     9  H    0.157701
    10  H    0.157126
    11  C   -0.299098
    12  C   -0.299198
    13  C   -0.475548
    14  H    0.155631
    15  H    0.144858
    16  H    0.152997
    17  H    0.149890
    18  H    0.152766
    19  H    0.156441
    20  H    0.158840
    21  C   -0.170517
    22  C   -0.218762
    23  C   -0.170954
    24  C    0.157727
    25  C   -0.170812
    26  C   -0.218642
    27  H    0.225902
    28  H    0.223890
    29  H    0.277323
    30  H    0.275672
    31  H    0.223693
    32  N    0.493107
    33  O   -0.459255
    34  O   -0.465495
 Sum of Mulliken charges =  -0.00000

 Dipole moment (field-independent basis, Debye):
    X=             -3.2572    Y=             -0.6838    Z=             -4.0090  Tot=              5.2105
 Quadrupole moment (field-independent basis, Debye-Ang):
   XX=            -77.2941   YY=            -95.0117   ZZ=            -96.0774
   XY=              4.1041   XZ=              8.9131   YZ=             -1.9447

 Normal termination of Gaussian 16 at Wed May  5 21:59:16 2021.
