 Gaussian 16, Revision A.03,
 Gaussian 16:  EM64L-G16RevA.03 25-Dec-2016

 -------------
 #p 6-31g* mp2
 -------------

 ------------------------------------------------------
 Input file generated by CHIRIPA (05-May-2021 14:57:22)
 ------------------------------------------------------
 Symbolic Z-matrix:
 Charge =  0 Multiplicity = 1

                         Standard orientation:
 ---------------------------------------------------------------------
 Center     Atomic      Atomic             Coordinates (Angstroms)
 Number     Number       Type             X           Y           Z
 ---------------------------------------------------------------------
      1          6           0        6.345424    0.895378   -0.893385
      2          6           0        6.371157   -0.457979   -0.540846
      3          6           0        5.237039   -1.073107   -0.002383
      4          6           0        4.089013   -0.301513    0.170736
      5          6           0        4.032089    1.048845   -0.170707
      6          6           0        5.178030    1.643152   -0.707519
      7          1           0        7.231026    1.365137   -1.311035
      8          1           0        7.276376   -1.041168   -0.684077
      9          1           0        5.229355   -2.119088    0.279188
     10          1           0        3.115028    1.604304   -0.016170
     11          1           0        5.155152    2.694369   -0.980399
     12          7           0        2.882115   -0.941700    0.739908
     13          8           0        1.883109   -0.240066    0.882500
     14          8           0        2.958007   -2.132992    1.032656
     15          6           0       -2.532491    1.923056    0.472310
     16          6           0       -3.889337    2.249354    0.567281
     17          6           0       -4.870616    1.300401    0.265407
     18          6           0       -4.457634    0.029038   -0.130028
     19          6           0       -3.113738   -0.326463   -0.234199
     20          6           0       -2.149696    0.638453    0.072577
     21          1           0       -1.776905    2.666425    0.708717
     22          1           0       -4.189542    3.246206    0.877457
     23          1           0       -5.928066    1.526188    0.330506
     24          1           0       -2.845269   -1.328475   -0.546154
     25          1           0       -1.096689    0.382233   -0.002062
     26          7           0       -5.487345   -0.984026   -0.452204
     27          8           0       -5.097512   -2.097092   -0.798255
     28          8           0       -6.664768   -0.645817   -0.352572
 ---------------------------------------------------------------------

 SCF Done:  E(RHF) =  -868.339571289     A.U. after   16 cycles
 E2 =    -0.2598331253D+01 EUMP2 =    -0.87093790254176D+03

 The electronic state is 1-A.
 Alpha  occ. eigenvalues --  -20.61694 -20.61621 -20.60118 -20.60106 -15.86699
 Alpha  occ. eigenvalues --  -15.85159 -11.31865 -11.30407 -11.28446 -11.28377
 Alpha  occ. eigenvalues --  -11.28097 -11.27389 -11.27348 -11.26989 -11.26859
 Alpha  occ. eigenvalues --  -11.26657 -11.26021 -11.25746  -1.60717  -1.59192
 Alpha  occ. eigenvalues --   -1.40281  -1.38748  -1.20014  -1.18549  -1.09441
 Alpha  occ. eigenvalues --   -1.07971  -1.05390  -1.03912  -0.96312  -0.94833
 Alpha  occ. eigenvalues --   -0.86796  -0.85316  -0.83157  -0.81652  -0.78231
 Alpha  occ. eigenvalues --   -0.76712  -0.72929  -0.72022  -0.71382  -0.71119
 Alpha  occ. eigenvalues --   -0.70512  -0.69677  -0.65673  -0.65388  -0.64194
 Alpha  occ. eigenvalues --   -0.63875  -0.62745  -0.61240  -0.55887  -0.54444
 Alpha  occ. eigenvalues --   -0.53724  -0.53480  -0.52277  -0.51972  -0.49692
 Alpha  occ. eigenvalues --   -0.49644  -0.48144  -0.48127  -0.45726  -0.44180
 Alpha  occ. eigenvalues --   -0.37974  -0.36983  -0.36544  -0.35512
 Alpha virt. eigenvalues --    0.04280   0.05783   0.10675   0.12135   0.15800
 Alpha virt. eigenvalues --    0.17315   0.20787   0.22321   0.26725   0.27453
 Alpha virt. eigenvalues --    0.28472   0.29063   0.30418   0.31635   0.32146

 Mulliken charges:
               1
     1  C   -0.169961
     2  C   -0.218306
     3  C   -0.170142
     4  C    0.158179
     5  C   -0.170300
     6  C   -0.218134
     7  H    0.227878
     8  H    0.225940
     9  H    0.277390
    10  H    0.270880
    11  H    0.224351
    12  N    0.491813
    13  O   -0.472940
    14  O   -0.454156
    15  C   -0.172412
    16  C   -0.218603
    17  C   -0.172972
    18  C    0.158348
    19  C   -0.172752
    20  C   -0.224664
    21  H    0.222755
    22  H    0.219621
    23  H    0.272680
    24  H    0.276978
    25  H    0.244296
    26  N    0.488050
    27  O   -0.460609
    28  O   -0.463207
 Sum of Mulliken charges =  -0.00000

 Dipole moment (field-independent basis, Debye):
    X=              8.4251    Y=              5.6900    Z=             -0.8878  Tot=             10.2052
 Quadrupole moment (field-independent basis, Debye-Ang):
   XX=            -99.2107   YY=           -100.5446   ZZ=           -107.2697
   XY=            -12.9288   XZ=            -13.9988   YZ=              0.8624

 Normal termination of Gaussian 16 at Thu May  6 04:56:28 2021.
