 Gaussian 16, Revision A.03,
 Gaussian 16:  EM64L-G16RevA.03 25-Dec-2016

 -------------
 #p 6-31g* mp2
 -------------

 ------------------------------------------------------
 Input file generated by CHIRIPA (05-May-2021 14:55:23)
 ------------------------------------------------------
 Symbolic Z-matrix:
 Charge =  0 Multiplicity = 1

                         Standard orientation:
 ---------------------------------------------------------------------
 Center     Atomic      Atomic             Coordinates (Angstroms)
 Number     Number       Type             X           Y           Z
 ---------------------------------------------------------------------
      1          6           0        5.004539    0.420179    1.120676
      2          6           0        3.824813    1.157675    1.265121
      3          6           0        2.652053    0.754766    0.619484
      4          6           0        2.695026   -0.395795   -0.166425
      5          6           0        3.854779   -1.151787   -0.329948
      6          6           0        5.015738   -0.730171    0.325005
      7          1           0        5.910983    0.740434    1.625840
      8          1           0        3.813173    2.051462    1.882417
      9          1           0        1.724950    1.307000    0.714007
     10          1           0        3.835375   -2.038431   -0.951963
     11          1           0        5.930482   -1.304882    0.211013
     12          7           0        1.459725   -0.832239   -0.854863
     13          8           0        1.523763   -1.849537   -1.541623
     14          8           0        0.450849   -0.148761   -0.694664
     15          6           0       -3.348607    0.795031   -0.487087
     16          6           0       -2.510889    1.966211    0.027259
     17          6           0       -1.793526    2.717581   -1.094626
     18          1           0       -2.698476    0.101353   -1.037618
     19          1           0       -4.087178    1.170620   -1.208781
     20          1           0       -1.775032    1.588721    0.748808
     21          1           0       -3.163055    2.657086    0.576794
     22          1           0       -2.516056    3.121424   -1.811188
     23          1           0       -1.120147    2.046990   -1.638197
     24          1           0       -1.200571    3.550743   -0.704620
     25          6           0       -4.071858    0.034059    0.622668
     26          6           0       -4.909576   -1.137120    0.108323
     27          6           0       -5.626939   -1.888490    1.230207
     28          1           0       -3.333287   -0.341529    1.344363
     29          1           0       -4.721989    0.727739    1.173200
     30          1           0       -4.257410   -1.827995   -0.441212
     31          1           0       -5.645432   -0.759630   -0.613226
     32          1           0       -6.300319   -1.217899    1.773779
     33          1           0       -4.904409   -2.292334    1.946770
     34          1           0       -6.219894   -2.721653    0.840201
 ---------------------------------------------------------------------

 SCF Done:  E(RHF) =  -669.536486753     A.U. after   15 cycles
 E2 =    -0.2091694783D+01 EUMP2 =    -0.67162818153657D+03

 The electronic state is 1-A.
 Alpha  occ. eigenvalues --  -20.61062 -20.61055 -15.86085 -11.31348 -11.27906
 Alpha  occ. eigenvalues --  -11.27899 -11.27636 -11.26902 -11.26891 -11.20700
 Alpha  occ. eigenvalues --  -11.20484 -11.20375 -11.20356 -11.20070 -11.19913
 Alpha  occ. eigenvalues --   -1.60117  -1.39675  -1.19513  -1.08929  -1.07341
 Alpha  occ. eigenvalues --   -1.04900  -1.02516  -0.95781  -0.94973  -0.86303
 Alpha  occ. eigenvalues --   -0.85997  -0.82617  -0.78605  -0.77676  -0.77147
 Alpha  occ. eigenvalues --   -0.72329  -0.71424  -0.70622  -0.65180  -0.64903
 Alpha  occ. eigenvalues --   -0.63922  -0.62247  -0.59867  -0.58371  -0.56604
 Alpha  occ. eigenvalues --   -0.55408  -0.54230  -0.53235  -0.52991  -0.51729
 Alpha  occ. eigenvalues --   -0.51411  -0.49102  -0.49059  -0.48865  -0.46928
 Alpha  occ. eigenvalues --   -0.45656  -0.45049  -0.44710  -0.44516  -0.42766
 Alpha  occ. eigenvalues --   -0.37489  -0.36498
 Alpha virt. eigenvalues --    0.04826   0.11157   0.16316   0.20943   0.23675
 Alpha virt. eigenvalues --    0.24706   0.27000   0.27504   0.28452   0.28697
 Alpha virt. eigenvalues --    0.29103   0.30816   0.31752   0.32606   0.32825

 Mulliken charges:
               1
     1  C   -0.170353
     2  C   -0.218738
     3  C   -0.171155
     4  C    0.157423
     5  C   -0.170520
     6  C   -0.218660
     7  H    0.226245
     8  H    0.224287
     9  H    0.277229
    10  H    0.275868
    11  H    0.223991
    12  N    0.493480
    13  O   -0.458343
    14  O   -0.465952
    15  C   -0.303393
    16  C   -0.294285
    17  C   -0.482138
    18  H    0.170606
    19  H    0.143510
    20  H    0.152160
    21  H    0.143538
    22  H    0.149867
    23  H    0.175279
    24  H    0.147787
    25  C   -0.297370
    26  C   -0.299901
    27  C   -0.475040
    28  H    0.149514
    29  H    0.144198
    30  H    0.156489
    31  H    0.149604
    32  H    0.152518
    33  H    0.154124
    34  H    0.158130
 Sum of Mulliken charges =  -0.00000

 Dipole moment (field-independent basis, Debye):
    X=              4.6999    Y=              1.3316    Z=              2.3119  Tot=              5.4044
 Quadrupole moment (field-independent basis, Debye-Ang):
   XX=            -71.2515   YY=            -94.1311   ZZ=            -96.0282
   XY=             -0.1758   XZ=              5.7624   YZ=              1.1350

 Normal termination of Gaussian 16 at Wed May  5 23:57:58 2021.
