 Gaussian 16, Revision A.03,
 Gaussian 16:  EM64L-G16RevA.03 25-Dec-2016

 -------------
 #p 6-31g* mp2
 -------------

 ------------------------------------------------------
 Input file generated by CHIRIPA (05-May-2021 14:55:22)
 ------------------------------------------------------
 Symbolic Z-matrix:
 Charge =  0 Multiplicity = 1

                         Standard orientation:
 ---------------------------------------------------------------------
 Center     Atomic      Atomic             Coordinates (Angstroms)
 Number     Number       Type             X           Y           Z
 ---------------------------------------------------------------------
      1          6           0       -1.518007    1.917165    1.479446
      2          6           0       -2.846234    1.976254    1.044886
      3          6           0       -3.397792    0.927645    0.302759
      4          6           0       -2.588944   -0.169813    0.011828
      5          6           0       -1.262238   -0.258100    0.430573
      6          6           0       -0.731634    0.802143    1.171445
      7          1           0       -1.097682    2.736269    2.055461
      8          1           0       -3.459287    2.840949    1.282610
      9          1           0       -4.423095    0.947434   -0.046208
     10          1           0       -0.675837   -1.133195    0.178066
     11          1           0        0.300195    0.753533    1.507615
     12          7           0       -3.161762   -1.286087   -0.773164
     13          8           0       -2.428296   -2.241869   -1.016362
     14          8           0       -4.333356   -1.184103   -1.130380
     15          6           0        3.315533    0.501808   -0.726715
     16          6           0        2.722212    1.873177   -0.402217
     17          6           0        2.975584    2.902619   -1.503964
     18          1           0        4.396731    0.606679   -0.890907
     19          1           0        2.889340    0.140187   -1.672752
     20          1           0        3.148360    2.231486    0.543631
     21          1           0        1.642332    1.764997   -0.238590
     22          1           0        2.535425    2.570780   -2.449873
     23          1           0        4.050010    3.039920   -1.663207
     24          1           0        2.542975    3.875710   -1.251370
     25          6           0        3.070480   -0.538062    0.365232
     26          6           0        3.663803   -1.909432    0.040734
     27          6           0        3.410430   -2.938874    1.142480
     28          1           0        3.496674   -0.176442    1.311269
     29          1           0        1.989283   -0.642934    0.529424
     30          1           0        4.743682   -1.801252   -0.122894
     31          1           0        3.237655   -2.267741   -0.905115
     32          1           0        2.336005   -3.076175    1.301724
     33          1           0        3.850589   -2.607036    2.088389
     34          1           0        3.843040   -3.911965    0.889885
 ---------------------------------------------------------------------

 SCF Done:  E(RHF) =  -669.534610701     A.U. after   15 cycles
 E2 =    -0.2093424142D+01 EUMP2 =    -0.67162803484254D+03

 The electronic state is 1-A.
 Alpha  occ. eigenvalues --  -20.60787 -20.60781 -15.85839 -11.31209 -11.27771
 Alpha  occ. eigenvalues --  -11.27767 -11.27497 -11.26783 -11.26702 -11.22263
 Alpha  occ. eigenvalues --  -11.22255 -11.22107 -11.22004 -11.21599 -11.21491
 Alpha  occ. eigenvalues --   -1.59861  -1.39415  -1.19377  -1.09117  -1.08763
 Alpha  occ. eigenvalues --   -1.04783  -1.04105  -0.96555  -0.95603  -0.87566
 Alpha  occ. eigenvalues --   -0.86178  -0.82451  -0.80191  -0.79011  -0.77461
 Alpha  occ. eigenvalues --   -0.72057  -0.71184  -0.70481  -0.65817  -0.65019
 Alpha  occ. eigenvalues --   -0.64749  -0.62121  -0.61493  -0.59927  -0.58177
 Alpha  occ. eigenvalues --   -0.55837  -0.55268  -0.53264  -0.53108  -0.52972
 Alpha  occ. eigenvalues --   -0.52850  -0.50493  -0.48824  -0.48813  -0.48495
 Alpha  occ. eigenvalues --   -0.47216  -0.46431  -0.46382  -0.44820  -0.44393
 Alpha  occ. eigenvalues --   -0.37338  -0.36343
 Alpha virt. eigenvalues --    0.05039   0.11167   0.16455   0.19760   0.22658
 Alpha virt. eigenvalues --    0.23484   0.25184   0.25851   0.27286   0.28054
 Alpha virt. eigenvalues --    0.29893   0.30998   0.31084   0.31366   0.31727

 Mulliken charges:
               1
     1  C   -0.172782
     2  C   -0.218389
     3  C   -0.170709
     4  C    0.159239
     5  C   -0.176064
     6  C   -0.220471
     7  H    0.226428
     8  H    0.223565
     9  H    0.275669
    10  H    0.275873
    11  H    0.232077
    12  N    0.488414
    13  O   -0.460760
    14  O   -0.460292
    15  C   -0.297693
    16  C   -0.308973
    17  C   -0.475072
    18  H    0.152934
    19  H    0.154322
    20  H    0.148420
    21  H    0.153737
    22  H    0.158875
    23  H    0.156934
    24  H    0.159388
    25  C   -0.304219
    26  C   -0.300620
    27  C   -0.476231
    28  H    0.149345
    29  H    0.141565
    30  H    0.154673
    31  H    0.157046
    32  H    0.154514
    33  H    0.154611
    34  H    0.164644
 Sum of Mulliken charges =  -0.00000

 Dipole moment (field-independent basis, Debye):
    X=              2.1337    Y=              3.8860    Z=              2.6822  Tot=              5.1815
 Quadrupole moment (field-independent basis, Debye-Ang):
   XX=           -100.2097   YY=            -95.8260   ZZ=            -95.6530
   XY=            -13.2544   XZ=             -6.7710   YZ=              0.1893

 Normal termination of Gaussian 16 at Wed May  5 15:59:12 2021.
