 Gaussian 16, Revision A.03,
 Gaussian 16:  EM64L-G16RevA.03 25-Dec-2016

 -------------
 #p 6-31g* mp2
 -------------

 ------------------------------------------------------
 Input file generated by CHIRIPA (05-May-2021 14:57:26)
 ------------------------------------------------------
 Symbolic Z-matrix:
 Charge =  0 Multiplicity = 1

                         Standard orientation:
 ---------------------------------------------------------------------
 Center     Atomic      Atomic             Coordinates (Angstroms)
 Number     Number       Type             X           Y           Z
 ---------------------------------------------------------------------
      1          6           0       -2.746225    2.533202    0.613086
      2          6           0       -2.756010    2.161552   -0.735358
      3          6           0       -2.848024    0.815053   -1.100080
      4          6           0       -2.929060   -0.137829   -0.085812
      5          6           0       -2.921685    0.200883    1.266412
      6          6           0       -2.828949    1.553408    1.607914
      7          1           0       -2.674466    3.581535    0.887391
      8          1           0       -2.691894    2.920317   -1.510091
      9          1           0       -2.857693    0.499477   -2.136292
     10          1           0       -2.986947   -0.578210    2.016195
     11          1           0       -2.821570    1.839115    2.655941
     12          7           0       -3.026854   -1.566497   -0.459635
     13          8           0       -3.097109   -2.386807    0.452939
     14          8           0       -3.031397   -1.838924   -1.658134
     15          6           0        5.392789    0.318891   -0.182652
     16          6           0        4.481866    1.240182   -0.709872
     17          6           0        3.105611    1.019667   -0.601051
     18          6           0        2.673200   -0.137901    0.044200
     19          6           0        3.555864   -1.074584    0.579755
     20          6           0        4.927701   -0.833520    0.459348
     21          1           0        6.460182    0.498175   -0.271686
     22          1           0        4.840195    2.136028   -1.208977
     23          1           0        2.378422    1.716330   -1.000144
     24          1           0        3.168483   -1.958455    1.071818
     25          1           0        5.632832   -1.550743    0.869744
     26          7           0        1.218558   -0.382228    0.165536
     27          8           0        0.863085   -1.409775    0.738619
     28          8           0        0.461428    0.458441   -0.314741
 ---------------------------------------------------------------------

 SCF Done:  E(RHF) =  -868.337446509     A.U. after   16 cycles
 E2 =    -0.2601446827D+01 EUMP2 =    -0.87093889333573D+03

 The electronic state is 1-A.
 Alpha  occ. eigenvalues --  -20.60931 -20.60896 -20.59172 -20.59139 -15.85937
 Alpha  occ. eigenvalues --  -15.84208 -11.31302 -11.29422 -11.27898 -11.27842
 Alpha  occ. eigenvalues --  -11.27613 -11.26901 -11.26862 -11.26094 -11.26084
 Alpha  occ. eigenvalues --  -11.25973 -11.25188 -11.25178  -1.59983  -1.58214
 Alpha  occ. eigenvalues --   -1.39535  -1.37782  -1.19475  -1.17643  -1.08873
 Alpha  occ. eigenvalues --   -1.07110  -1.04877  -1.03112  -0.95710  -0.93966
 Alpha  occ. eigenvalues --   -0.86275  -0.84548  -0.82540  -0.80844  -0.77591
 Alpha  occ. eigenvalues --   -0.75861  -0.72169  -0.71293  -0.70584  -0.70476
 Alpha  occ. eigenvalues --   -0.69481  -0.68924  -0.65129  -0.64883  -0.63393
 Alpha  occ. eigenvalues --   -0.63228  -0.62226  -0.60521  -0.55386  -0.53740
 Alpha  occ. eigenvalues --   -0.53206  -0.52974  -0.51508  -0.51300  -0.48925
 Alpha  occ. eigenvalues --   -0.48732  -0.47216  -0.47205  -0.44938  -0.43227
 Alpha  occ. eigenvalues --   -0.37456  -0.36481  -0.35590  -0.34645
 Alpha virt. eigenvalues --    0.04942   0.06739   0.11175   0.12975   0.16448
 Alpha virt. eigenvalues --    0.18208   0.21311   0.22728   0.27213   0.28207
 Alpha virt. eigenvalues --    0.28593   0.29636   0.30862   0.32169   0.32427

 Mulliken charges:
               1
     1  C   -0.169468
     2  C   -0.215102
     3  C   -0.159236
     4  C    0.175829
     5  C   -0.163856
     6  C   -0.218400
     7  H    0.216664
     8  H    0.214187
     9  H    0.269262
    10  H    0.272091
    11  H    0.215479
    12  N    0.489983
    13  O   -0.461811
    14  O   -0.467808
    15  C   -0.170702
    16  C   -0.218497
    17  C   -0.171059
    18  C    0.158541
    19  C   -0.170408
    20  C   -0.218544
    21  H    0.225879
    22  H    0.222708
    23  H    0.273049
    24  H    0.277872
    25  H    0.224427
    26  N    0.489841
    27  O   -0.456141
    28  O   -0.464780
 Sum of Mulliken charges =  -0.00000

 Dipole moment (field-independent basis, Debye):
    X=              5.7793    Y=              5.6583    Z=              0.9117  Tot=              8.1393
 Quadrupole moment (field-independent basis, Debye-Ang):
   XX=            -81.5332   YY=           -103.9876   ZZ=           -100.3285
   XY=            -13.8235   XZ=             -4.4437   YZ=             -4.6036

 Normal termination of Gaussian 16 at Fri May  7 09:41:53 2021.
