 Gaussian 16, Revision A.03,
 Gaussian 16:  EM64L-G16RevA.03 25-Dec-2016

 -------------
 #p 6-31g* mp2
 -------------

 ------------------------------------------------------
 Input file generated by CHIRIPA (05-May-2021 14:51:14)
 ------------------------------------------------------
 Symbolic Z-matrix:
 Charge =  0 Multiplicity = 1

                         Standard orientation:
 ---------------------------------------------------------------------
 Center     Atomic      Atomic             Coordinates (Angstroms)
 Number     Number       Type             X           Y           Z
 ---------------------------------------------------------------------
      1          6           0        4.474037   -0.549206    0.174718
      2          6           0        5.665216    0.076813   -0.551351
      3          6           0        6.930951   -0.775440   -0.454541
      4          1           0        4.735329   -0.701542    1.230874
      5          1           0        4.279441   -1.545474   -0.245970
      6          1           0        5.856637    1.072171   -0.130355
      7          1           0        5.400990    0.227853   -1.605859
      8          1           0        6.763599   -1.764848   -0.892338
      9          1           0        7.221836   -0.915733    0.591550
     10          1           0        7.770014   -0.309278   -0.980399
     11          6           0        3.201269    0.291081    0.086926
     12          6           0        2.010089   -0.334939    0.812995
     13          6           0        0.744354    0.517315    0.716185
     14          1           0        3.395864    1.287349    0.507614
     15          1           0        2.939976    0.443416   -0.969229
     16          1           0        2.274316   -0.485978    1.867503
     17          1           0        1.818668   -1.330296    0.391999
     18          1           0        0.453470    0.657607   -0.329906
     19          1           0        0.911706    1.506723    1.153982
     20          1           0       -0.094708    0.051153    1.242043
     21          6           0       -3.915854    0.878233   -0.257549
     22          6           0       -2.650214    1.680170    0.047472
     23          6           0       -2.822357    3.177292   -0.210959
     24          1           0       -4.201230    1.040364   -1.305986
     25          1           0       -4.742601    1.264273    0.354708
     26          1           0       -1.825772    1.291827   -0.564166
     27          1           0       -2.367709    1.515959    1.095251
     28          1           0       -3.626370    3.585464    0.409976
     29          1           0       -3.081353    3.360058   -1.258870
     30          1           0       -1.905656    3.731463    0.013569
     31          6           0       -3.759451   -0.620108   -0.004095
     32          6           0       -5.025091   -1.422044   -0.309116
     33          6           0       -4.852949   -2.919167   -0.050686
     34          1           0       -2.932705   -1.006147   -0.616352
     35          1           0       -3.474076   -0.782239    1.044342
     36          1           0       -5.307596   -1.257834   -1.356896
     37          1           0       -5.849534   -1.033702    0.302523
     38          1           0       -4.593952   -3.101933    0.997226
     39          1           0       -4.048937   -3.327339   -0.671620
     40          1           0       -5.769650   -3.473338   -0.275214
 ---------------------------------------------------------------------

 SCF Done:  E(RHF) =  -470.732289879     A.U. after   11 cycles
 E2 =    -0.1583203024D+01 EUMP2 =    -0.47231549290269D+03

 The electronic state is 1-A.
 Alpha  occ. eigenvalues --  -11.21595 -11.21580 -11.21548 -11.21417 -11.21390
 Alpha  occ. eigenvalues --  -11.21359 -11.21331 -11.21279 -11.21067 -11.21060
 Alpha  occ. eigenvalues --  -11.20991 -11.20977  -1.08420  -1.08363  -1.03539
 Alpha  occ. eigenvalues --   -1.03434  -0.95979  -0.95905  -0.87034  -0.86894
 Alpha  occ. eigenvalues --   -0.79748  -0.79384  -0.78274  -0.78109  -0.65074
 Alpha  occ. eigenvalues --   -0.64982  -0.60994  -0.60793  -0.59432  -0.59194
 Alpha  occ. eigenvalues --   -0.57616  -0.57487  -0.55293  -0.55183  -0.52772
 Alpha  occ. eigenvalues --   -0.52549  -0.52392  -0.52313  -0.50010  -0.49799
 Alpha  occ. eigenvalues --   -0.47984  -0.47754  -0.46751  -0.46424  -0.45860
 Alpha  occ. eigenvalues --   -0.45716  -0.45692  -0.45463  -0.43768  -0.43639
 Alpha virt. eigenvalues --    0.22005   0.23073   0.23819   0.24614   0.25758
 Alpha virt. eigenvalues --    0.26285   0.26761   0.27473   0.27924   0.29366
 Alpha virt. eigenvalues --    0.30138   0.31234   0.31388   0.32118   0.32329

 Mulliken charges:
               1
     1  C   -0.298162
     2  C   -0.299595
     3  C   -0.475686
     4  H    0.149638
     5  H    0.149440
     6  H    0.151892
     7  H    0.151834
     8  H    0.155153
     9  H    0.155175
    10  H    0.160212
    11  C   -0.298423
    12  C   -0.300935
    13  C   -0.474872
    14  H    0.149368
    15  H    0.149318
    16  H    0.151470
    17  H    0.151590
    18  H    0.155206
    19  H    0.154424
    20  H    0.163003
    21  C   -0.297902
    22  C   -0.302789
    23  C   -0.475906
    24  H    0.148911
    25  H    0.148831
    26  H    0.158123
    27  H    0.152796
    28  H    0.154480
    29  H    0.154335
    30  H    0.160196
    31  C   -0.298544
    32  C   -0.299502
    33  C   -0.475653
    34  H    0.149482
    35  H    0.148963
    36  H    0.151903
    37  H    0.151949
    38  H    0.155061
    39  H    0.155025
    40  H    0.160187
 Sum of Mulliken charges =  -0.00000

 Dipole moment (field-independent basis, Debye):
    X=              0.0109    Y=              0.0011    Z=              0.0050  Tot=              0.0121
 Quadrupole moment (field-independent basis, Debye-Ang):
   XX=            -85.9116   YY=            -86.1150   ZZ=            -83.1108
   XY=              0.6146   XZ=             -0.0695   YZ=              0.7235

 Normal termination of Gaussian 16 at Wed May  5 20:00:44 2021.
