 Gaussian 16, Revision A.03,
 Gaussian 16:  EM64L-G16RevA.03 25-Dec-2016

 -------------
 #p 6-31g* mp2
 -------------

 ------------------------------------------------------
 Input file generated by CHIRIPA (05-May-2021 14:55:25)
 ------------------------------------------------------
 Symbolic Z-matrix:
 Charge =  0 Multiplicity = 1

                         Standard orientation:
 ---------------------------------------------------------------------
 Center     Atomic      Atomic             Coordinates (Angstroms)
 Number     Number       Type             X           Y           Z
 ---------------------------------------------------------------------
      1          6           0       -1.049710   -0.425641    1.630773
      2          6           0       -0.921832   -0.494845    0.239594
      3          6           0       -2.027235   -0.272477   -0.586955
      4          6           0       -3.251017    0.018040    0.014084
      5          6           0       -3.410343    0.094012    1.396883
      6          6           0       -2.291369   -0.131951    2.203967
      7          1           0       -0.185735   -0.599778    2.265296
      8          1           0        0.041225   -0.722734   -0.208326
      9          1           0       -1.956400   -0.319856   -1.666842
     10          1           0       -4.383341    0.323224    1.814202
     11          1           0       -2.393633   -0.077557    3.284073
     12          7           0       -4.428442    0.255353   -0.850643
     13          8           0       -5.495641    0.509577   -0.296483
     14          8           0       -4.261814    0.182643   -2.066203
     15          6           0        4.137951   -0.674350    0.001878
     16          6           0        3.303454   -1.786208   -0.634811
     17          6           0        3.765810   -3.183465   -0.220451
     18          1           0        5.192025   -0.810776   -0.276081
     19          1           0        4.088358   -0.768685    1.095513
     20          1           0        3.353485   -1.688971   -1.726900
     21          1           0        2.251218   -1.647009   -0.355460
     22          1           0        3.699309   -3.304966    0.865559
     23          1           0        4.807838   -3.347166   -0.513673
     24          1           0        3.155593   -3.963071   -0.687045
     25          6           0        3.687876    0.728296   -0.402778
     26          6           0        4.522371    1.840154    0.233911
     27          6           0        4.060016    3.237411   -0.180449
     28          1           0        3.737468    0.822630   -1.496413
     29          1           0        2.633802    0.864721   -0.124818
     30          1           0        5.574608    1.700955   -0.045440
     31          1           0        4.472342    1.742916    1.326000
     32          1           0        3.017987    3.401112    0.112774
     33          1           0        4.126517    3.358911   -1.266459
     34          1           0        4.670232    4.017016    0.286146
 ---------------------------------------------------------------------

 SCF Done:  E(RHF) =  -669.535525201     A.U. after   15 cycles
 E2 =    -0.2091333366D+01 EUMP2 =    -0.67162685856644D+03

 The electronic state is 1-A.
 Alpha  occ. eigenvalues --  -20.60748 -20.60743 -15.85802 -11.31171 -11.27744
 Alpha  occ. eigenvalues --  -11.27733 -11.27491 -11.26761 -11.26728 -11.22672
 Alpha  occ. eigenvalues --  -11.22296 -11.22270 -11.22203 -11.21907 -11.21600
 Alpha  occ. eigenvalues --   -1.59824  -1.39377  -1.19344  -1.09291  -1.08741
 Alpha  occ. eigenvalues --   -1.04747  -1.04325  -0.96743  -0.95575  -0.87758
 Alpha  occ. eigenvalues --   -0.86151  -0.82406  -0.80413  -0.79107  -0.77449
 Alpha  occ. eigenvalues --   -0.72020  -0.71147  -0.70458  -0.65972  -0.64996
 Alpha  occ. eigenvalues --   -0.64738  -0.62132  -0.61691  -0.60118  -0.58359
 Alpha  occ. eigenvalues --   -0.56025  -0.55257  -0.53433  -0.53163  -0.53074
 Alpha  occ. eigenvalues --   -0.52855  -0.50688  -0.48807  -0.48775  -0.48682
 Alpha  occ. eigenvalues --   -0.47454  -0.46621  -0.46551  -0.44782  -0.44587
 Alpha  occ. eigenvalues --   -0.37330  -0.36348
 Alpha virt. eigenvalues --    0.05084   0.11253   0.16569   0.18916   0.22704
 Alpha virt. eigenvalues --    0.23655   0.24563   0.26187   0.27256   0.28194
 Alpha virt. eigenvalues --    0.29265   0.30205   0.30985   0.31276   0.31924

 Mulliken charges:
               1
     1  C   -0.173626
     2  C   -0.228415
     3  C   -0.172727
     4  C    0.159104
     5  C   -0.171221
     6  C   -0.218562
     7  H    0.224846
     8  H    0.237394
     9  H    0.276542
    10  H    0.275570
    11  H    0.223306
    12  N    0.487941
    13  O   -0.460554
    14  O   -0.460297
    15  C   -0.298414
    16  C   -0.305380
    17  C   -0.475402
    18  H    0.154236
    19  H    0.147999
    20  H    0.156197
    21  H    0.143554
    22  H    0.154765
    23  H    0.159229
    24  H    0.162855
    25  C   -0.299738
    26  C   -0.299954
    27  C   -0.476388
    28  H    0.152487
    29  H    0.143964
    30  H    0.154369
    31  H    0.151244
    32  H    0.155636
    33  H    0.157031
    34  H    0.162408
 Sum of Mulliken charges =  -0.00000

 Dipole moment (field-independent basis, Debye):
    X=              4.3639    Y=             -0.8275    Z=              3.0006  Tot=              5.3602
 Quadrupole moment (field-independent basis, Debye-Ang):
   XX=           -119.2561   YY=            -96.3072   ZZ=            -90.9284
   XY=              2.4607   XZ=            -13.3254   YZ=              1.0274

 Normal termination of Gaussian 16 at Thu May  6 04:49:35 2021.
