 Gaussian 16, Revision A.03,
 Gaussian 16:  EM64L-G16RevA.03 25-Dec-2016

 -------------
 #p 6-31g* mp2
 -------------

 ------------------------------------------------------
 Input file generated by CHIRIPA (05-May-2021 14:51:11)
 ------------------------------------------------------
 Symbolic Z-matrix:
 Charge =  0 Multiplicity = 1

                         Standard orientation:
 ---------------------------------------------------------------------
 Center     Atomic      Atomic             Coordinates (Angstroms)
 Number     Number       Type             X           Y           Z
 ---------------------------------------------------------------------
      1          6           0        2.897308   -0.415406   -0.133478
      2          6           0        3.260776   -1.764263   -0.755138
      3          6           0        2.109748   -2.769275   -0.701482
      4          1           0        2.592255   -0.570292    0.910504
      5          1           0        2.023723   -0.002053   -0.656339
      6          1           0        4.134263   -2.174303   -0.232163
      7          1           0        3.565183   -1.606125   -1.797704
      8          1           0        1.237337   -2.384936   -1.239796
      9          1           0        1.809651   -2.956343    0.334640
     10          1           0        2.391299   -3.726516   -1.151236
     11          6           0        4.037812    0.599904   -0.179571
     12          6           0        3.674343    1.948760    0.442089
     13          6           0        4.825371    2.953773    0.388433
     14          1           0        4.911396    0.186550    0.343291
     15          1           0        4.342865    0.754790   -1.223553
     16          1           0        3.369936    1.790622    1.484655
     17          1           0        2.800856    2.358801   -0.080886
     18          1           0        5.125468    3.140840   -0.647689
     19          1           0        5.697782    2.569433    0.926748
     20          1           0        4.543820    3.911014    0.838187
     21          6           0       -3.627435    0.618560   -0.072874
     22          6           0       -5.126344    0.890708   -0.203976
     23          6           0       -5.430220    2.316915   -0.663745
     24          1           0       -3.191908    1.334869    0.637170
     25          1           0       -3.142140    0.803898   -1.041138
     26          1           0       -5.608878    0.703577    0.763888
     27          1           0       -5.558388    0.173544   -0.913645
     28          1           0       -4.975228    2.512068   -1.640218
     29          1           0       -5.026005    3.045112    0.046846
     30          1           0       -6.507448    2.489736   -0.750772
     31          6           0       -3.307685   -0.803057    0.385923
     32          6           0       -1.808774   -1.075206    0.517024
     33          6           0       -1.504899   -2.501412    0.976794
     34          1           0       -3.792980   -0.988395    1.354186
     35          1           0       -3.743211   -1.519366   -0.324121
     36          1           0       -1.376731   -0.358042    1.226693
     37          1           0       -1.326242   -0.888075   -0.450839
     38          1           0       -1.909114   -3.229610    0.266203
     39          1           0       -1.959890   -2.696565    1.953267
     40          1           0       -0.427671   -2.674234    1.063821
 ---------------------------------------------------------------------

 SCF Done:  E(RHF) =  -470.732987264     A.U. after   11 cycles
 E2 =    -0.1582944941D+01 EUMP2 =    -0.47231593220510D+03

 The electronic state is 1-A.
 Alpha  occ. eigenvalues --  -11.21613 -11.21601 -11.21583 -11.21540 -11.21409
 Alpha  occ. eigenvalues --  -11.21372 -11.21350 -11.21310 -11.21085 -11.21072
 Alpha  occ. eigenvalues --  -11.21060 -11.20918  -1.08440  -1.08388  -1.03556
 Alpha  occ. eigenvalues --   -1.03464  -0.96025  -0.95894  -0.87061  -0.86894
 Alpha  occ. eigenvalues --   -0.79619  -0.79530  -0.78261  -0.78192  -0.65076
 Alpha  occ. eigenvalues --   -0.65015  -0.60964  -0.60861  -0.59473  -0.59237
 Alpha  occ. eigenvalues --   -0.57768  -0.57371  -0.55296  -0.55203  -0.52845
 Alpha  occ. eigenvalues --   -0.52677  -0.52435  -0.52109  -0.49931  -0.49868
 Alpha  occ. eigenvalues --   -0.47982  -0.47765  -0.46661  -0.46555  -0.45822
 Alpha  occ. eigenvalues --   -0.45752  -0.45704  -0.45622  -0.43793  -0.43705
 Alpha virt. eigenvalues --    0.21325   0.23112   0.23452   0.25135   0.25465
 Alpha virt. eigenvalues --    0.26633   0.26887   0.27457   0.28117   0.29122
 Alpha virt. eigenvalues --    0.29540   0.31295   0.31618   0.31955   0.32274

 Mulliken charges:
               1
     1  C   -0.298778
     2  C   -0.299874
     3  C   -0.479385
     4  H    0.149406
     5  H    0.150460
     6  H    0.151920
     7  H    0.151886
     8  H    0.157697
     9  H    0.157475
    10  H    0.160531
    11  C   -0.298281
    12  C   -0.299655
    13  C   -0.475714
    14  H    0.149512
    15  H    0.149643
    16  H    0.151879
    17  H    0.152160
    18  H    0.155173
    19  H    0.155154
    20  H    0.160260
    21  C   -0.298144
    22  C   -0.299601
    23  C   -0.475671
    24  H    0.149637
    25  H    0.149075
    26  H    0.151933
    27  H    0.151893
    28  H    0.155040
    29  H    0.155151
    30  H    0.160198
    31  C   -0.298338
    32  C   -0.299944
    33  C   -0.480748
    34  H    0.149508
    35  H    0.149498
    36  H    0.151955
    37  H    0.151577
    38  H    0.154549
    39  H    0.153777
    40  H    0.167186
 Sum of Mulliken charges =  -0.00000

 Dipole moment (field-independent basis, Debye):
    X=              0.0378    Y=             -0.0112    Z=             -0.0075  Tot=              0.0401
 Quadrupole moment (field-independent basis, Debye-Ang):
   XX=            -85.4814   YY=            -86.2629   ZZ=            -83.0919
   XY=             -0.4138   XZ=              0.1407   YZ=              0.3253

 Normal termination of Gaussian 16 at Wed May  5 18:14:44 2021.
