 Gaussian 16, Revision A.03,
 Gaussian 16:  EM64L-G16RevA.03 25-Dec-2016

 -------------
 #p 6-31g* mp2
 -------------

 ------------------------------------------------------
 Input file generated by CHIRIPA (05-May-2021 14:55:24)
 ------------------------------------------------------
 Symbolic Z-matrix:
 Charge =  0 Multiplicity = 1

                         Standard orientation:
 ---------------------------------------------------------------------
 Center     Atomic      Atomic             Coordinates (Angstroms)
 Number     Number       Type             X           Y           Z
 ---------------------------------------------------------------------
      1          6           0        5.001241    0.781285    0.160671
      2          6           0        4.883985   -0.531485    0.629081
      3          6           0        3.678366   -1.227080    0.498017
      4          6           0        2.605425   -0.576467   -0.109265
      5          6           0        2.690997    0.730696   -0.586017
      6          6           0        3.906304    1.407082   -0.444316
      7          1           0        5.941558    1.314179    0.266617
      8          1           0        5.732665   -1.019995    1.099340
      9          1           0        3.560011   -2.244073    0.851764
     10          1           0        1.827473    1.191241   -1.050392
     11          1           0        3.994476    2.426524   -0.809020
     12          7           0        1.323962   -1.302694   -0.253647
     13          8           0        0.393489   -0.707192   -0.792379
     14          8           0        1.274290   -2.453663    0.174653
     15          6           0       -2.902192    0.805768   -0.091134
     16          6           0       -2.490125    2.145126    0.520672
     17          6           0       -1.081086    2.573991    0.110211
     18          1           0       -2.180205    0.034553    0.210375
     19          1           0       -2.844066    0.877374   -1.186072
     20          1           0       -2.550340    2.071442    1.614090
     21          1           0       -3.213284    2.913204    0.217829
     22          1           0       -1.010791    2.675321   -0.977627
     23          1           0       -0.344081    1.828777    0.426567
     24          1           0       -0.806953    3.533940    0.558775
     25          6           0       -4.308370    0.363576    0.309934
     26          6           0       -4.720438   -0.975781   -0.301872
     27          6           0       -6.129476   -1.404645    0.108589
     28          1           0       -4.366496    0.291971    1.404873
     29          1           0       -5.030357    1.134792    0.008426
     30          1           0       -3.997278   -1.743858    0.000971
     31          1           0       -4.660222   -0.902096   -1.395290
     32          1           0       -6.866481   -0.659431   -0.207767
     33          1           0       -6.199770   -1.505975    1.196427
     34          1           0       -6.403610   -2.364594   -0.339976
 ---------------------------------------------------------------------

 SCF Done:  E(RHF) =  -669.535975568     A.U. after   15 cycles
 E2 =    -0.2092435965D+01 EUMP2 =    -0.67162841153301D+03

 The electronic state is 1-A.
 Alpha  occ. eigenvalues --  -20.60993 -20.60981 -15.85998 -11.31283 -11.27848
 Alpha  occ. eigenvalues --  -11.27810 -11.27577 -11.26847 -11.26826 -11.20824
 Alpha  occ. eigenvalues --  -11.20592 -11.20496 -11.20387 -11.20271 -11.20060
 Alpha  occ. eigenvalues --   -1.60047  -1.39604  -1.19450  -1.08865  -1.07427
 Alpha  occ. eigenvalues --   -1.04836  -1.02681  -0.95712  -0.95137  -0.86267
 Alpha  occ. eigenvalues --   -0.86147  -0.82548  -0.78754  -0.77623  -0.77149
 Alpha  occ. eigenvalues --   -0.72220  -0.71359  -0.70556  -0.65106  -0.64841
 Alpha  occ. eigenvalues --   -0.64060  -0.62188  -0.60091  -0.58496  -0.56737
 Alpha  occ. eigenvalues --   -0.55348  -0.54436  -0.53173  -0.52938  -0.51900
 Alpha  occ. eigenvalues --   -0.51565  -0.49220  -0.48994  -0.48841  -0.47067
 Alpha  occ. eigenvalues --   -0.45825  -0.45179  -0.44731  -0.44322  -0.42882
 Alpha  occ. eigenvalues --   -0.37430  -0.36430
 Alpha virt. eigenvalues --    0.04872   0.11154   0.16356   0.21209   0.23857
 Alpha virt. eigenvalues --    0.24912   0.26588   0.27698   0.27743   0.28823
 Alpha virt. eigenvalues --    0.29183   0.31072   0.31862   0.32088   0.32527

 Mulliken charges:
               1
     1  C   -0.170384
     2  C   -0.218665
     3  C   -0.170593
     4  C    0.156742
     5  C   -0.172871
     6  C   -0.219402
     7  H    0.225984
     8  H    0.223718
     9  H    0.275592
    10  H    0.281086
    11  H    0.224409
    12  N    0.488665
    13  O   -0.459272
    14  O   -0.459020
    15  C   -0.303156
    16  C   -0.298890
    17  C   -0.478290
    18  H    0.173381
    19  H    0.148626
    20  H    0.148753
    21  H    0.147545
    22  H    0.151680
    23  H    0.160475
    24  H    0.151810
    25  C   -0.298216
    26  C   -0.299556
    27  C   -0.475199
    28  H    0.146065
    29  H    0.144337
    30  H    0.158912
    31  H    0.151474
    32  H    0.152167
    33  H    0.153341
    34  H    0.158753
 Sum of Mulliken charges =  -0.00000

 Dipole moment (field-independent basis, Debye):
    X=              4.7678    Y=              2.3334    Z=              0.4541  Tot=              5.3275
 Quadrupole moment (field-independent basis, Debye-Ang):
   XX=            -72.7828   YY=            -95.3908   ZZ=            -94.0786
   XY=              2.1077   XZ=              2.5811   YZ=             -3.0763

 Normal termination of Gaussian 16 at Wed May  5 17:35:32 2021.
