 Gaussian 16, Revision A.03,
 Gaussian 16:  EM64L-G16RevA.03 25-Dec-2016

 -------------
 #p 6-31g* mp2
 -------------

 ------------------------------------------------------
 Input file generated by CHIRIPA (05-May-2021 14:57:24)
 ------------------------------------------------------
 Symbolic Z-matrix:
 Charge =  0 Multiplicity = 1

                         Standard orientation:
 ---------------------------------------------------------------------
 Center     Atomic      Atomic             Coordinates (Angstroms)
 Number     Number       Type             X           Y           Z
 ---------------------------------------------------------------------
      1          6           0       -4.878410   -1.403736   -0.684718
      2          6           0       -5.101391   -0.023821   -0.736042
      3          6           0       -4.083607    0.872934   -0.397671
      4          6           0       -2.849514    0.352823   -0.010645
      5          6           0       -2.596506   -1.016683    0.050429
      6          6           0       -3.628882   -1.894897   -0.292338
      7          1           0       -5.674716   -2.093155   -0.949280
      8          1           0       -6.070788    0.360466   -1.040407
      9          1           0       -4.229015    1.945928   -0.428635
     10          1           0       -1.619597   -1.369786    0.357648
     11          1           0       -3.452858   -2.966064   -0.251560
     12          7           0       -1.764308    1.292363    0.349900
     13          8           0       -0.685992    0.808839    0.687652
     14          8           0       -2.012589    2.494508    0.287915
     15          6           0        3.992157    0.250931   -2.218058
     16          6           0        3.712582    1.315632   -1.355059
     17          6           0        3.178441    1.078684   -0.084980
     18          6           0        2.935194   -0.241374    0.291275
     19          6           0        3.203048   -1.323374   -0.545874
     20          6           0        3.736947   -1.062858   -1.811430
     21          1           0        4.406995    0.444152   -3.202929
     22          1           0        3.909761    2.336964   -1.668180
     23          1           0        2.952568    1.884222    0.603138
     24          1           0        2.995746   -2.330675   -0.205592
     25          1           0        3.953079   -1.891681   -2.479550
     26          7           0        2.369851   -0.504696    1.633456
     27          8           0        2.164621   -1.676799    1.941175
     28          8           0        2.142671    0.466002    2.352324
 ---------------------------------------------------------------------

 SCF Done:  E(RHF) =  -868.338064685     A.U. after   16 cycles
 E2 =    -0.2600333290D+01 EUMP2 =    -0.87093839797517D+03

 The electronic state is 1-A.
 Alpha  occ. eigenvalues --  -20.60522 -20.60480 -20.59774 -20.59633 -15.85552
 Alpha  occ. eigenvalues --  -15.84754 -11.30922 -11.30252 -11.27521 -11.27457
 Alpha  occ. eigenvalues --  -11.27268 -11.26939 -11.26773 -11.26696 -11.26543
 Alpha  occ. eigenvalues --  -11.26503 -11.26001 -11.25890  -1.59570  -1.58748
 Alpha  occ. eigenvalues --   -1.39125  -1.38307  -1.19104  -1.18456  -1.08503
 Alpha  occ. eigenvalues --   -1.07836  -1.04507  -1.03899  -0.95334  -0.94650
 Alpha  occ. eigenvalues --   -0.85907  -0.85291  -0.82173  -0.81495  -0.77213
 Alpha  occ. eigenvalues --   -0.76500  -0.71859  -0.71007  -0.70884  -0.70235
 Alpha  occ. eigenvalues --   -0.69920  -0.69604  -0.64758  -0.64515  -0.64128
 Alpha  occ. eigenvalues --   -0.63932  -0.61848  -0.61249  -0.55023  -0.54436
 Alpha  occ. eigenvalues --   -0.52842  -0.52600  -0.52206  -0.52011  -0.48543
 Alpha  occ. eigenvalues --   -0.48529  -0.47779  -0.47718  -0.44531  -0.43655
 Alpha  occ. eigenvalues --   -0.37099  -0.36448  -0.36112  -0.35501
 Alpha virt. eigenvalues --    0.05317   0.06096   0.11540   0.12150   0.16813
 Alpha virt. eigenvalues --    0.17511   0.21658   0.22163   0.27575   0.28051
 Alpha virt. eigenvalues --    0.28526   0.29106   0.31152   0.31661   0.32818

 Mulliken charges:
               1
     1  C   -0.170997
     2  C   -0.218861
     3  C   -0.171263
     4  C    0.158084
     5  C   -0.171057
     6  C   -0.219116
     7  H    0.224628
     8  H    0.222259
     9  H    0.274556
    10  H    0.280284
    11  H    0.223813
    12  N    0.490575
    13  O   -0.460188
    14  O   -0.462865
    15  C   -0.171918
    16  C   -0.219869
    17  C   -0.162128
    18  C    0.163980
    19  C   -0.174099
    20  C   -0.219551
    21  H    0.221727
    22  H    0.222011
    23  H    0.280983
    24  H    0.270123
    25  H    0.218361
    26  N    0.492449
    27  O   -0.473165
    28  O   -0.448757
 Sum of Mulliken charges =  -0.00000

 Dipole moment (field-independent basis, Debye):
    X=             -1.9436    Y=             -2.1590    Z=             -5.7838  Tot=              6.4724
 Quadrupole moment (field-independent basis, Debye-Ang):
   XX=            -71.7665   YY=           -100.3287   ZZ=           -108.9553
   XY=              8.5419   XZ=             -8.7132   YZ=              1.4738

 Normal termination of Gaussian 16 at Fri May  7 04:56:35 2021.
