 Gaussian 16, Revision A.03,
 Gaussian 16:  EM64L-G16RevA.03 25-Dec-2016

 -------------
 #p 6-31g* mp2
 -------------

 ------------------------------------------------------
 Input file generated by CHIRIPA (05-May-2021 14:57:21)
 ------------------------------------------------------
 Symbolic Z-matrix:
 Charge =  0 Multiplicity = 1

                         Standard orientation:
 ---------------------------------------------------------------------
 Center     Atomic      Atomic             Coordinates (Angstroms)
 Number     Number       Type             X           Y           Z
 ---------------------------------------------------------------------
      1          6           0       -4.639406   -2.002731    0.140090
      2          6           0       -5.228116   -0.748200    0.330071
      3          6           0       -4.495331    0.421198    0.106280
      4          6           0       -3.170200    0.298620   -0.308802
      5          6           0       -2.555513   -0.936790   -0.506820
      6          6           0       -3.307332   -2.092863   -0.277014
      7          1           0       -5.216045   -2.905972    0.316272
      8          1           0       -6.262433   -0.675170    0.653954
      9          1           0       -4.926260    1.405217    0.245650
     10          1           0       -1.522459   -0.977646   -0.830159
     11          1           0       -2.847530   -3.065807   -0.425364
     12          7           0       -2.384358    1.529556   -0.548904
     13          8           0       -1.218602    1.394597   -0.914190
     14          8           0       -2.949052    2.606016   -0.367262
     15          6           0        1.103255    0.418393    1.399337
     16          6           0        2.007472    1.449666    1.124765
     17          6           0        3.227420    1.176421    0.498976
     18          6           0        3.512062   -0.145452    0.159976
     19          6           0        2.631910   -1.194674    0.420277
     20          6           0        1.417806   -0.898164    1.046838
     21          1           0        0.157840    0.639693    1.885765
     22          1           0        1.765848    2.473061    1.397391
     23          1           0        3.945737    1.955615    0.274710
     24          1           0        2.900796   -2.204950    0.136616
     25          1           0        0.717497   -1.701074    1.258848
     26          7           0        4.800474   -0.447039   -0.502928
     27          8           0        5.027586   -1.619967   -0.791546
     28          8           0        5.558822    0.495213   -0.721341
 ---------------------------------------------------------------------

 SCF Done:  E(RHF) =  -868.338081848     A.U. after   16 cycles
 E2 =    -0.2600654645D+01 EUMP2 =    -0.87093873649306D+03

 The electronic state is 1-A.
 Alpha  occ. eigenvalues --  -20.61625 -20.61599 -20.60331 -20.60314 -15.86636
 Alpha  occ. eigenvalues --  -15.85379 -11.31976 -11.30617 -11.28527 -11.28511
 Alpha  occ. eigenvalues --  -11.28234 -11.27533 -11.27496 -11.27302 -11.27154
 Alpha  occ. eigenvalues --  -11.26943 -11.26300 -11.26052  -1.60696  -1.59404
 Alpha  occ. eigenvalues --   -1.40243  -1.38962  -1.20139  -1.18797  -1.09536
 Alpha  occ. eigenvalues --   -1.08202  -1.05527  -1.04205  -0.96375  -0.95061
 Alpha  occ. eigenvalues --   -0.86921  -0.85608  -0.83199  -0.81914  -0.78261
 Alpha  occ. eigenvalues --   -0.76982  -0.72854  -0.72054  -0.71604  -0.71215
 Alpha  occ. eigenvalues --   -0.70725  -0.69904  -0.65778  -0.65514  -0.64466
 Alpha  occ. eigenvalues --   -0.64235  -0.62861  -0.61574  -0.56002  -0.54706
 Alpha  occ. eigenvalues --   -0.53870  -0.53606  -0.52492  -0.52316  -0.49629
 Alpha  occ. eigenvalues --   -0.49615  -0.48362  -0.48349  -0.45649  -0.44397
 Alpha  occ. eigenvalues --   -0.38114  -0.37148  -0.36651  -0.35791
 Alpha virt. eigenvalues --    0.04192   0.05631   0.10457   0.11799   0.15698
 Alpha virt. eigenvalues --    0.17169   0.20553   0.21896   0.26255   0.27377
 Alpha virt. eigenvalues --    0.28320   0.28585   0.30334   0.31316   0.31888

 Mulliken charges:
               1
     1  C   -0.170170
     2  C   -0.218342
     3  C   -0.170931
     4  C    0.155361
     5  C   -0.178273
     6  C   -0.219688
     7  H    0.228293
     8  H    0.226061
     9  H    0.277038
    10  H    0.278544
    11  H    0.224639
    12  N    0.485267
    13  O   -0.458146
    14  O   -0.459262
    15  C   -0.152970
    16  C   -0.211680
    17  C   -0.169905
    18  C    0.157886
    19  C   -0.171457
    20  C   -0.225561
    21  H    0.222013
    22  H    0.227416
    23  H    0.275308
    24  H    0.271340
    25  H    0.213343
    26  N    0.488325
    27  O   -0.463866
    28  O   -0.460584
 Sum of Mulliken charges =  -0.00000

 Dipole moment (field-independent basis, Debye):
    X=             -7.5523    Y=             -3.0354    Z=              3.1602  Tot=              8.7315
 Quadrupole moment (field-independent basis, Debye-Ang):
   XX=           -116.3079   YY=           -101.8043   ZZ=           -105.9410
   XY=             17.0496   XZ=              4.5705   YZ=              2.5936

 Normal termination of Gaussian 16 at Thu May  6 00:09:43 2021.
