 Gaussian 16, Revision A.03,
 Gaussian 16:  EM64L-G16RevA.03 25-Dec-2016

 -------------
 #p 6-31g* mp2
 -------------

 ------------------------------------------------------
 Input file generated by CHIRIPA (05-May-2021 14:57:26)
 ------------------------------------------------------
 Symbolic Z-matrix:
 Charge =  0 Multiplicity = 1

                         Standard orientation:
 ---------------------------------------------------------------------
 Center     Atomic      Atomic             Coordinates (Angstroms)
 Number     Number       Type             X           Y           Z
 ---------------------------------------------------------------------
      1          6           0       -2.041594    1.644454    0.850332
      2          6           0       -1.978094    0.266962    1.084863
      3          6           0       -3.001725   -0.576455    0.642849
      4          6           0       -4.078976   -0.006056   -0.033512
      5          6           0       -4.171039    1.362456   -0.282486
      6          6           0       -3.135935    2.186848    0.168607
      7          1           0       -1.241957    2.292250    1.197225
      8          1           0       -1.129423   -0.157043    1.614035
      9          1           0       -2.977973   -1.646319    0.810912
     10          1           0       -5.029771    1.755891   -0.812775
     11          1           0       -3.187913    3.256264   -0.014948
     12          7           0       -5.168722   -0.888873   -0.506259
     13          8           0       -6.107030   -0.361671   -1.099783
     14          8           0       -5.063921   -2.091312   -0.274321
     15          6           0        6.362919    0.022537   -0.564618
     16          6           0        5.544407    1.149296   -0.694903
     17          6           0        4.178055    1.071156   -0.409380
     18          6           0        3.661206   -0.155102    0.005891
     19          6           0        4.450788   -1.295461    0.145288
     20          6           0        5.814464   -1.194100   -0.145678
     21          1           0        7.423295    0.092259   -0.788534
     22          1           0        5.967607    2.095456   -1.020061
     23          1           0        3.521517    1.927800   -0.501778
     24          1           0        4.000083   -2.224907    0.471498
     25          1           0        6.447734   -2.070796   -0.043610
     26          7           0        2.216127   -0.250118    0.311042
     27          8           0        1.785131   -1.342047    0.675142
     28          8           0        1.541833    0.769139    0.180340
 ---------------------------------------------------------------------

 SCF Done:  E(RHF) =  -868.340941365     A.U. after   16 cycles
 E2 =    -0.2599044143D+01 EUMP2 =    -0.87093998550759D+03

 The electronic state is 1-A.
 Alpha  occ. eigenvalues --  -20.61947 -20.61915 -20.59700 -20.59688 -15.86927
 Alpha  occ. eigenvalues --  -15.84737 -11.31960 -11.29809 -11.28499 -11.28470
 Alpha  occ. eigenvalues --  -11.28161 -11.27427 -11.27406 -11.26397 -11.26227
 Alpha  occ. eigenvalues --  -11.25896 -11.25367 -11.25012  -1.60978  -1.58779
 Alpha  occ. eigenvalues --   -1.40539  -1.38340  -1.20098  -1.17923  -1.09557
 Alpha  occ. eigenvalues --   -1.07348  -1.05449  -1.03267  -0.96448  -0.94245
 Alpha  occ. eigenvalues --   -0.86863  -0.84662  -0.83292  -0.81089  -0.78377
 Alpha  occ. eigenvalues --   -0.76191  -0.73165  -0.72261  -0.71200  -0.70964
 Alpha  occ. eigenvalues --   -0.70099  -0.68989  -0.65754  -0.65450  -0.63553
 Alpha  occ. eigenvalues --   -0.63230  -0.62800  -0.60620  -0.55960  -0.53795
 Alpha  occ. eigenvalues --   -0.53719  -0.53535  -0.51649  -0.51359  -0.49924
 Alpha  occ. eigenvalues --   -0.49843  -0.47735  -0.47685  -0.46012  -0.43813
 Alpha  occ. eigenvalues --   -0.38054  -0.37035  -0.35842  -0.34859
 Alpha virt. eigenvalues --    0.04130   0.06306   0.10625   0.12802   0.15695
 Alpha virt. eigenvalues --    0.17906   0.20795   0.23022   0.26733   0.27655
 Alpha virt. eigenvalues --    0.28950   0.29742   0.30440   0.31830   0.32536

 Mulliken charges:
               1
     1  C   -0.166581
     2  C   -0.212300
     3  C   -0.175403
     4  C    0.157197
     5  C   -0.174101
     6  C   -0.220585
     7  H    0.228049
     8  H    0.238890
     9  H    0.273320
    10  H    0.269928
    11  H    0.216839
    12  N    0.488218
    13  O   -0.465220
    14  O   -0.463043
    15  C   -0.169486
    16  C   -0.218473
    17  C   -0.170321
    18  C    0.158270
    19  C   -0.170006
    20  C   -0.218509
    21  H    0.228340
    22  H    0.225393
    23  H    0.274344
    24  H    0.276923
    25  H    0.226183
    26  N    0.490289
    27  O   -0.460893
    28  O   -0.467263
 Sum of Mulliken charges =  -0.00000

 Dipole moment (field-independent basis, Debye):
    X=              9.7208    Y=              3.3583    Z=              0.6682  Tot=             10.3062
 Quadrupole moment (field-independent basis, Debye-Ang):
   XX=            -99.5467   YY=            -97.6280   ZZ=           -105.5051
   XY=            -15.0168   XZ=            -10.2093   YZ=             -2.9721

 Normal termination of Gaussian 16 at Thu May  6 00:25:28 2021.
