 Gaussian 16, Revision A.03,
 Gaussian 16:  EM64L-G16RevA.03 25-Dec-2016

 -------------
 #p 6-31g* mp2
 -------------

 ------------------------------------------------------
 Input file generated by CHIRIPA (05-May-2021 14:51:12)
 ------------------------------------------------------
 Symbolic Z-matrix:
 Charge =  0 Multiplicity = 1

                         Standard orientation:
 ---------------------------------------------------------------------
 Center     Atomic      Atomic             Coordinates (Angstroms)
 Number     Number       Type             X           Y           Z
 ---------------------------------------------------------------------
      1          6           0       -2.325725   -0.230522   -1.060864
      2          6           0       -2.017560   -1.726800   -0.996273
      3          6           0       -1.333242   -2.244588   -2.261737
      4          1           0       -2.964296   -0.031440   -1.932380
      5          1           0       -1.390655    0.322547   -1.225647
      6          1           0       -2.952750   -2.276784   -0.830279
      7          1           0       -1.379806   -1.922371   -0.124701
      8          1           0       -0.385850   -1.721937   -2.428731
      9          1           0       -1.967731   -2.078364   -3.138318
     10          1           0       -1.122096   -3.316362   -2.194087
     11          6           0       -3.009918    0.301942    0.196947
     12          6           0       -3.318084    1.798220    0.132356
     13          6           0       -4.002402    2.316007    1.397819
     14          1           0       -3.944988   -0.251127    0.361730
     15          1           0       -2.371348    0.102860    1.068462
     16          1           0       -3.955838    1.993791   -0.739216
     17          1           0       -2.382894    2.348204   -0.033638
     18          1           0       -3.367913    2.149784    2.274400
     19          1           0       -4.949793    1.793357    1.564813
     20          1           0       -4.213547    3.387782    1.330170
     21          6           0        2.138138   -0.582496    0.494351
     22          6           0        2.086269   -1.220872    1.882793
     23          6           0        1.021707   -2.312930    1.991934
     24          1           0        1.152393   -0.160896    0.254549
     25          1           0        2.334473   -1.363285   -0.253456
     26          1           0        1.891465   -0.438903    2.627905
     27          1           0        3.072305   -1.640833    2.119396
     28          1           0        1.215447   -3.113265    1.270457
     29          1           0        0.027898   -1.904506    1.781853
     30          1           0        1.001932   -2.755731    2.992632
     31          6           0        3.197505    0.511076    0.369567
     32          6           0        3.249375    1.149452   -1.018876
     33          6           0        4.313937    2.241510   -1.128017
     34          1           0        3.001171    1.291865    1.117373
     35          1           0        4.183250    0.089476    0.609368
     36          1           0        2.263339    1.569413   -1.255479
     37          1           0        3.444179    0.367484   -1.763987
     38          1           0        5.307746    1.833086   -0.917936
     39          1           0        4.120196    3.041845   -0.406539
     40          1           0        4.333712    2.684311   -2.128715
 ---------------------------------------------------------------------

 SCF Done:  E(RHF) =  -470.733255051     A.U. after   11 cycles
 E2 =    -0.1583787279D+01 EUMP2 =    -0.47231704233094D+03

 The electronic state is 1-A.
 Alpha  occ. eigenvalues --  -11.21677 -11.21661 -11.21630 -11.21510 -11.21482
 Alpha  occ. eigenvalues --  -11.21421 -11.21419 -11.21350 -11.21137 -11.21112
 Alpha  occ. eigenvalues --  -11.21094 -11.21005  -1.08510  -1.08422  -1.03604
 Alpha  occ. eigenvalues --   -1.03504  -0.96047  -0.95965  -0.87067  -0.86979
 Alpha  occ. eigenvalues --   -0.79694  -0.79549  -0.78324  -0.78237  -0.65248
 Alpha  occ. eigenvalues --   -0.64962  -0.61060  -0.60858  -0.59419  -0.59324
 Alpha  occ. eigenvalues --   -0.57681  -0.57554  -0.55356  -0.55240  -0.52734
 Alpha  occ. eigenvalues --   -0.52664  -0.52492  -0.52380  -0.50016  -0.49906
 Alpha  occ. eigenvalues --   -0.48117  -0.47808  -0.46785  -0.46521  -0.46033
 Alpha  occ. eigenvalues --   -0.45797  -0.45673  -0.45472  -0.43851  -0.43773
 Alpha virt. eigenvalues --    0.19431   0.23211   0.23766   0.24211   0.25273
 Alpha virt. eigenvalues --    0.26067   0.26564   0.28131   0.28751   0.29716
 Alpha virt. eigenvalues --    0.30967   0.31600   0.31739   0.31863   0.31965

 Mulliken charges:
               1
     1  C   -0.299640
     2  C   -0.307654
     3  C   -0.475973
     4  H    0.149838
     5  H    0.150128
     6  H    0.151461
     7  H    0.161033
     8  H    0.156280
     9  H    0.154642
    10  H    0.159825
    11  C   -0.299445
    12  C   -0.299496
    13  C   -0.475704
    14  H    0.150052
    15  H    0.148979
    16  H    0.152314
    17  H    0.151387
    18  H    0.155026
    19  H    0.155380
    20  H    0.160318
    21  C   -0.302046
    22  C   -0.299659
    23  C   -0.481201
    24  H    0.151947
    25  H    0.150409
    26  H    0.151854
    27  H    0.152471
    28  H    0.155906
    29  H    0.159913
    30  H    0.160959
    31  C   -0.298294
    32  C   -0.299795
    33  C   -0.475738
    34  H    0.149612
    35  H    0.150133
    36  H    0.151433
    37  H    0.152161
    38  H    0.155375
    39  H    0.155272
    40  H    0.160539
 Sum of Mulliken charges =  -0.00000

 Dipole moment (field-independent basis, Debye):
    X=              0.0345    Y=             -0.0131    Z=              0.0167  Tot=              0.0405
 Quadrupole moment (field-independent basis, Debye-Ang):
   XX=            -84.1466   YY=            -85.1592   ZZ=            -85.3226
   XY=             -0.6574   XZ=              0.7557   YZ=             -0.0110

 Normal termination of Gaussian 16 at Thu May  6 03:54:35 2021.
