 Gaussian 16, Revision A.03,
 Gaussian 16:  EM64L-G16RevA.03 25-Dec-2016

 -------------
 #p 6-31g* mp2
 -------------

 ------------------------------------------------------
 Input file generated by CHIRIPA (05-May-2021 14:51:08)
 ------------------------------------------------------
 Symbolic Z-matrix:
 Charge =  0 Multiplicity = 1

                         Standard orientation:
 ---------------------------------------------------------------------
 Center     Atomic      Atomic             Coordinates (Angstroms)
 Number     Number       Type             X           Y           Z
 ---------------------------------------------------------------------
      1          6           0        3.279194    0.134572   -0.389000
      2          6           0        2.824589   -1.274748   -0.769967
      3          6           0        3.992512   -2.200499   -1.111634
      4          1           0        3.858019    0.563067   -1.218638
      5          1           0        3.962311    0.072453    0.469421
      6          1           0        2.141446   -1.209874   -1.626543
      7          1           0        2.246617   -1.699866    0.060599
      8          1           0        4.671694   -2.294897   -0.258169
      9          1           0        4.565926   -1.802121   -1.954897
     10          1           0        3.644876   -3.202713   -1.381034
     11          6           0        2.122954    1.071759   -0.044740
     12          6           0        2.577559    2.481080    0.336227
     13          6           0        1.409636    3.406830    0.677894
     14          1           0        1.439837    1.133878   -0.903161
     15          1           0        1.544129    0.643264    0.784898
     16          1           0        3.155532    2.906197   -0.494339
     17          1           0        3.260702    2.416205    1.192803
     18          1           0        0.836223    3.008452    1.521157
     19          1           0        0.730454    3.501228   -0.175571
     20          1           0        1.757272    4.409044    0.947294
     21          6           0       -2.385979   -1.236805    0.504357
     22          6           0       -0.955529   -1.030007    1.003389
     23          6           0       -0.338707   -2.306662    1.575647
     24          1           0       -3.006512   -1.606390    1.332180
     25          1           0       -2.388975   -2.022720   -0.263576
     26          1           0       -0.955029   -0.243748    1.769165
     27          1           0       -0.338373   -0.660689    0.174331
     28          1           0       -0.309963   -3.094614    0.816104
     29          1           0       -0.930122   -2.675305    2.420000
     30          1           0        0.683893   -2.136147    1.926466
     31          6           0       -3.016169    0.030474   -0.070617
     32          6           0       -4.446619   -0.176324   -0.569649
     33          6           0       -5.063441    1.100330   -1.141907
     34          1           0       -3.013173    0.816389    0.697316
     35          1           0       -2.395636    0.400059   -0.898441
     36          1           0       -5.063775   -0.545642    0.259409
     37          1           0       -4.447119   -0.962583   -1.335425
     38          1           0       -4.472026    1.468973   -1.986260
     39          1           0       -5.092185    1.888283   -0.382364
     40          1           0       -6.086041    0.929816   -1.492726
 ---------------------------------------------------------------------

 SCF Done:  E(RHF) =  -470.731818403     A.U. after   11 cycles
 E2 =    -0.1584882014D+01 EUMP2 =    -0.47231670041718D+03

 The electronic state is 1-A.
 Alpha  occ. eigenvalues --  -11.21583 -11.21573 -11.21556 -11.21494 -11.21371
 Alpha  occ. eigenvalues --  -11.21369 -11.21310 -11.21292 -11.21089 -11.21060
 Alpha  occ. eigenvalues --  -11.21058 -11.21050  -1.08467  -1.08352  -1.03535
 Alpha  occ. eigenvalues --   -1.03492  -0.95984  -0.95954  -0.87028  -0.86939
 Alpha  occ. eigenvalues --   -0.79688  -0.79515  -0.78461  -0.77978  -0.65109
 Alpha  occ. eigenvalues --   -0.64995  -0.61013  -0.60833  -0.59403  -0.59276
 Alpha  occ. eigenvalues --   -0.57672  -0.57506  -0.55278  -0.55235  -0.52717
 Alpha  occ. eigenvalues --   -0.52623  -0.52473  -0.52329  -0.49971  -0.49852
 Alpha  occ. eigenvalues --   -0.48099  -0.47758  -0.46710  -0.46577  -0.46122
 Alpha  occ. eigenvalues --   -0.45770  -0.45604  -0.45090  -0.43760  -0.43748
 Alpha virt. eigenvalues --    0.21257   0.23069   0.23589   0.24301   0.24941
 Alpha virt. eigenvalues --    0.26335   0.26989   0.27975   0.28382   0.29860
 Alpha virt. eigenvalues --    0.30582   0.31004   0.31706   0.31904   0.32066

 Mulliken charges:
               1
     1  C   -0.297152
     2  C   -0.308389
     3  C   -0.475113
     4  H    0.149252
     5  H    0.148880
     6  H    0.150531
     7  H    0.162049
     8  H    0.154993
     9  H    0.154995
    10  H    0.160097
    11  C   -0.305015
    12  C   -0.299054
    13  C   -0.475553
    14  H    0.148016
    15  H    0.159096
    16  H    0.151591
    17  H    0.151568
    18  H    0.155023
    19  H    0.155265
    20  H    0.160061
    21  C   -0.297697
    22  C   -0.307232
    23  C   -0.478335
    24  H    0.149063
    25  H    0.149247
    26  H    0.149985
    27  H    0.162963
    28  H    0.155866
    29  H    0.155800
    30  H    0.159477
    31  C   -0.298082
    32  C   -0.299626
    33  C   -0.475648
    34  H    0.149651
    35  H    0.149274
    36  H    0.151928
    37  H    0.151787
    38  H    0.154985
    39  H    0.155285
    40  H    0.160168
 Sum of Mulliken charges =  -0.00000

 Dipole moment (field-independent basis, Debye):
    X=             -0.0013    Y=             -0.0037    Z=              0.0071  Tot=              0.0081
 Quadrupole moment (field-independent basis, Debye-Ang):
   XX=            -85.7434   YY=            -86.0489   ZZ=            -83.2875
   XY=              0.9105   XZ=             -0.2614   YZ=              0.1200

 Normal termination of Gaussian 16 at Wed May  5 19:41:09 2021.
