 Gaussian 16, Revision A.03,
 Gaussian 16:  EM64L-G16RevA.03 25-Dec-2016

 -------------
 #p 6-31g* mp2
 -------------

 ------------------------------------------------------
 Input file generated by CHIRIPA (05-May-2021 14:53:18)
 ------------------------------------------------------
 Symbolic Z-matrix:
 Charge =  0 Multiplicity = 1

                         Standard orientation:
 ---------------------------------------------------------------------
 Center     Atomic      Atomic             Coordinates (Angstroms)
 Number     Number       Type             X           Y           Z
 ---------------------------------------------------------------------
      1          6           0       -2.385146    0.013599    0.621094
      2          6           0       -1.810367   -0.773706    1.799128
      3          6           0       -0.330983   -0.475098    2.044177
      4          1           0       -1.807755   -0.219409   -0.284042
      5          1           0       -2.253124    1.088318    0.808029
      6          1           0       -1.944679   -1.846579    1.610660
      7          1           0       -2.389315   -0.538943    2.701526
      8          1           0       -0.182844    0.588452    2.257522
      9          1           0        0.264318   -0.726613    1.160459
     10          1           0        0.059467   -1.048522    2.890695
     11          6           0       -3.863190   -0.274174    0.363603
     12          6           0       -4.437969    0.513132   -0.814430
     13          6           0       -5.917353    0.214523   -1.059479
     14          1           0       -3.995212   -1.348893    0.176668
     15          1           0       -4.440581   -0.041166    1.268739
     16          1           0       -3.859021    0.278369   -1.716828
     17          1           0       -4.303657    1.586005   -0.625963
     18          1           0       -6.512654    0.466039   -0.175761
     19          1           0       -6.065492   -0.849027   -1.272825
     20          1           0       -6.307803    0.787948   -1.905998
     21          6           0        2.461953   -2.372091   -0.880031
     22          6           0        1.906283   -1.478410   -1.801492
     23          6           0        1.889091   -0.105617   -1.537500
     24          6           0        2.438707    0.340952   -0.336756
     25          6           0        2.999563   -0.524387    0.601285
     26          6           0        3.005860   -1.893071    0.316307
     27          1           0        2.471075   -3.436913   -1.093258
     28          1           0        1.483165   -1.847585   -2.731399
     29          1           0        1.465291    0.608348   -2.233247
     30          1           0        3.413837   -0.126466    1.519683
     31          1           0        3.438067   -2.584796    1.033772
     32          7           0        2.426274    1.792092   -0.046171
     33          8           0        2.916827    2.160269    1.018930
     34          8           0        1.926211    2.533840   -0.889013
 ---------------------------------------------------------------------

 SCF Done:  E(RHF) =  -669.534256803     A.U. after   15 cycles
 E2 =    -0.2093854567D+01 EUMP2 =    -0.67162811137064D+03

 The electronic state is 1-A.
 Alpha  occ. eigenvalues --  -20.60774 -20.60765 -15.85821 -11.31175 -11.27820
 Alpha  occ. eigenvalues --  -11.27754 -11.27580 -11.26864 -11.26805 -11.21556
 Alpha  occ. eigenvalues --  -11.21517 -11.21348 -11.21268 -11.21051 -11.20847
 Alpha  occ. eigenvalues --   -1.59843  -1.39396  -1.19428  -1.08800  -1.08363
 Alpha  occ. eigenvalues --   -1.04826  -1.03459  -0.95920  -0.95620  -0.86941
 Alpha  occ. eigenvalues --   -0.86206  -0.82457  -0.79540  -0.78179  -0.77495
 Alpha  occ. eigenvalues --   -0.72045  -0.71167  -0.70517  -0.65061  -0.65002
 Alpha  occ. eigenvalues --   -0.64818  -0.62161  -0.60886  -0.59285  -0.57565
 Alpha  occ. eigenvalues --   -0.55358  -0.55321  -0.53412  -0.52905  -0.52597
 Alpha  occ. eigenvalues --   -0.52092  -0.49746  -0.48805  -0.48797  -0.47804
 Alpha  occ. eigenvalues --   -0.46520  -0.45700  -0.45630  -0.44795  -0.43724
 Alpha  occ. eigenvalues --   -0.37372  -0.36395
 Alpha virt. eigenvalues --    0.05028   0.11179   0.16500   0.21347   0.22913
 Alpha virt. eigenvalues --    0.24351   0.26636   0.27185   0.27498   0.28093
 Alpha virt. eigenvalues --    0.28329   0.30911   0.31477   0.31901   0.31978

 Mulliken charges:
               1
     1  C   -0.298918
     2  C   -0.298203
     3  C   -0.485474
     4  H    0.145817
     5  H    0.154880
     6  H    0.147867
     7  H    0.152096
     8  H    0.161039
     9  H    0.163813
    10  H    0.154960
    11  C   -0.298114
    12  C   -0.299362
    13  C   -0.475655
    14  H    0.146998
    15  H    0.150410
    16  H    0.149525
    17  H    0.154977
    18  H    0.155756
    19  H    0.153641
    20  H    0.160443
    21  C   -0.171656
    22  C   -0.218462
    23  C   -0.172550
    24  C    0.160430
    25  C   -0.172266
    26  C   -0.215836
    27  H    0.226038
    28  H    0.223843
    29  H    0.276144
    30  H    0.276079
    31  H    0.223943
    32  N    0.488975
    33  O   -0.460507
    34  O   -0.460668
 Sum of Mulliken charges =  -0.00000

 Dipole moment (field-independent basis, Debye):
    X=              0.1326    Y=             -5.0503    Z=             -1.0293  Tot=              5.1558
 Quadrupole moment (field-independent basis, Debye-Ang):
   XX=            -95.3015   YY=            -98.1742   ZZ=            -90.2383
   XY=            -13.6627   XZ=             -0.6801   YZ=              1.1390

 Normal termination of Gaussian 16 at Thu May  6 06:02:08 2021.
