 Gaussian 16, Revision A.03,
 Gaussian 16:  EM64L-G16RevA.03 25-Dec-2016

 -------------
 #p 6-31g* mp2
 -------------

 ------------------------------------------------------
 Input file generated by CHIRIPA (05-May-2021 14:57:21)
 ------------------------------------------------------
 Symbolic Z-matrix:
 Charge =  0 Multiplicity = 1

                         Standard orientation:
 ---------------------------------------------------------------------
 Center     Atomic      Atomic             Coordinates (Angstroms)
 Number     Number       Type             X           Y           Z
 ---------------------------------------------------------------------
      1          6           0       -3.570593    2.188021   -0.871376
      2          6           0       -4.447271    1.112352   -1.047146
      3          6           0       -4.157055   -0.137983   -0.493084
      4          6           0       -2.976037   -0.277851    0.234188
      5          6           0       -2.082521    0.774668    0.426857
      6          6           0       -2.393092    2.016049   -0.136231
      7          1           0       -3.803946    3.155833   -1.305290
      8          1           0       -5.362459    1.242997   -1.617591
      9          1           0       -4.818048   -0.987667   -0.613678
     10          1           0       -1.177860    0.613764    1.000545
     11          1           0       -1.710397    2.849651    0.001897
     12          7           0       -2.658024   -1.596785    0.825526
     13          8           0       -1.611092   -1.694114    1.461999
     14          8           0       -3.461718   -2.508261    0.641348
     15          6           0        3.067601   -2.317033   -0.980440
     16          6           0        4.247026   -1.714341   -0.530727
     17          6           0        4.237127   -0.397564   -0.061102
     18          6           0        3.024665    0.290323   -0.055160
     19          6           0        1.832964   -0.282593   -0.496644
     20          6           0        1.866452   -1.600498   -0.961996
     21          1           0        3.084453   -3.340375   -1.343596
     22          1           0        5.181308   -2.268405   -0.543902
     23          1           0        5.135542    0.093338    0.292853
     24          1           0        0.916953    0.295079   -0.471392
     25          1           0        0.948959   -2.066007   -1.310640
     26          7           0        3.001699    1.684934    0.439748
     27          8           0        1.920577    2.269559    0.434750
     28          8           0        4.065255    2.166997    0.823284
 ---------------------------------------------------------------------

 SCF Done:  E(RHF) =  -868.339937284     A.U. after   16 cycles
 E2 =    -0.2599864721D+01 EUMP2 =    -0.87093980200468D+03

 The electronic state is 1-A.
 Alpha  occ. eigenvalues --  -20.61113 -20.61103 -20.61029 -20.60973 -15.86146
 Alpha  occ. eigenvalues --  -15.86041 -11.31356 -11.31101 -11.27883 -11.27802
 Alpha  occ. eigenvalues --  -11.27636 -11.27619 -11.27513 -11.27271 -11.26878
 Alpha  occ. eigenvalues --  -11.26718 -11.26589 -11.26521  -1.60193  -1.60065
 Alpha  occ. eigenvalues --   -1.39747  -1.39636  -1.19484  -1.19229  -1.08901
 Alpha  occ. eigenvalues --   -1.08676  -1.04834  -1.04583  -0.95770  -0.95569
 Alpha  occ. eigenvalues --   -0.86243  -0.86000  -0.82583  -0.82416  -0.77711
 Alpha  occ. eigenvalues --   -0.77468  -0.72360  -0.72277  -0.71527  -0.71369
 Alpha  occ. eigenvalues --   -0.70601  -0.70316  -0.65112  -0.64890  -0.64817
 Alpha  occ. eigenvalues --   -0.64559  -0.62261  -0.61843  -0.55327  -0.55088
 Alpha  occ. eigenvalues --   -0.53219  -0.52946  -0.52889  -0.52607  -0.49133
 Alpha  occ. eigenvalues --   -0.49104  -0.49045  -0.48983  -0.45184  -0.45106
 Alpha  occ. eigenvalues --   -0.37454  -0.37177  -0.36438  -0.36150
 Alpha virt. eigenvalues --    0.04744   0.05013   0.11106   0.11473   0.16306
 Alpha virt. eigenvalues --    0.16609   0.20860   0.22063   0.26206   0.27745
 Alpha virt. eigenvalues --    0.28140   0.29338   0.31088   0.31406   0.31990

 Mulliken charges:
               1
     1  C   -0.171231
     2  C   -0.217785
     3  C   -0.172647
     4  C    0.157149
     5  C   -0.183317
     6  C   -0.221200
     7  H    0.227984
     8  H    0.223869
     9  H    0.274725
    10  H    0.280867
    11  H    0.239811
    12  N    0.486598
    13  O   -0.462430
    14  O   -0.460263
    15  C   -0.169974
    16  C   -0.218286
    17  C   -0.170885
    18  C    0.158001
    19  C   -0.170215
    20  C   -0.213775
    21  H    0.227521
    22  H    0.223453
    23  H    0.274556
    24  H    0.269739
    25  H    0.228091
    26  N    0.489776
    27  O   -0.472641
    28  O   -0.457493
 Sum of Mulliken charges =  -0.00000

 Dipole moment (field-independent basis, Debye):
    X=             -1.0370    Y=             -0.2689    Z=             -3.8527  Tot=              3.9989
 Quadrupole moment (field-independent basis, Debye-Ang):
   XX=            -89.0227   YY=           -110.1682   ZZ=           -106.2497
   XY=            -27.9105   XZ=              3.5838   YZ=              2.3038

 Normal termination of Gaussian 16 at Thu May  6 17:48:39 2021.
