 Gaussian 16, Revision A.03,
 Gaussian 16:  EM64L-G16RevA.03 25-Dec-2016

 -------------
 #p 6-31g* mp2
 -------------

 ------------------------------------------------------
 Input file generated by CHIRIPA (05-May-2021 14:55:21)
 ------------------------------------------------------
 Symbolic Z-matrix:
 Charge =  0 Multiplicity = 1

                         Standard orientation:
 ---------------------------------------------------------------------
 Center     Atomic      Atomic             Coordinates (Angstroms)
 Number     Number       Type             X           Y           Z
 ---------------------------------------------------------------------
      1          6           0        4.769941    1.205094    0.232100
      2          6           0        4.658859    0.214026   -0.748699
      3          6           0        3.478247   -0.522592   -0.883232
      4          6           0        2.423746   -0.240597   -0.016170
      5          6           0        2.503762    0.740470    0.970944
      6          6           0        3.693935    1.464695    1.087284
      7          1           0        5.690782    1.772503    0.329542
      8          1           0        5.492876    0.010257   -1.414236
      9          1           0        3.365200   -1.295453   -1.633781
     10          1           0        1.655268    0.920843    1.619745
     11          1           0        3.777367    2.233783    1.849903
     12          7           0        1.168825   -1.013862   -0.148963
     13          8           0        0.254248   -0.746214    0.627278
     14          8           0        1.123556   -1.872952   -1.026774
     15          6           0       -3.522732    0.846576    0.251109
     16          6           0       -3.532030    1.909353   -0.848165
     17          6           0       -3.844824    3.308023   -0.315555
     18          1           0       -4.499751    0.839181    0.753427
     19          1           0       -2.781472    1.123930    1.013345
     20          1           0       -4.272071    1.629364   -1.608797
     21          1           0       -2.554938    1.914086   -1.348051
     22          1           0       -3.101097    3.612335    0.427995
     23          1           0       -4.827985    3.325994    0.165768
     24          1           0       -3.846344    4.052167   -1.118118
     25          6           0       -3.211534   -0.556902   -0.265742
     26          6           0       -3.202235   -1.619678    0.833532
     27          6           0       -2.889441   -3.018349    0.300921
     28          1           0       -3.952793   -0.834256   -1.027979
     29          1           0       -2.234514   -0.549506   -0.768060
     30          1           0       -4.179327   -1.624413    1.333418
     31          1           0       -2.462194   -1.339690    1.594163
     32          1           0       -1.906279   -3.036321   -0.180401
     33          1           0       -3.633168   -3.322661   -0.442627
     34          1           0       -2.887922   -3.762494    1.103484
 ---------------------------------------------------------------------

 SCF Done:  E(RHF) =  -669.536971788     A.U. after   15 cycles
 E2 =    -0.2092687880D+01 EUMP2 =    -0.67162965966795D+03

 The electronic state is 1-A.
 Alpha  occ. eigenvalues --  -20.61248 -20.61239 -15.86231 -11.31460 -11.28007
 Alpha  occ. eigenvalues --  -11.28001 -11.27724 -11.26988 -11.26978 -11.20697
 Alpha  occ. eigenvalues --  -11.20433 -11.20134 -11.19744 -11.19615 -11.19151
 Alpha  occ. eigenvalues --   -1.60275  -1.39835  -1.19614  -1.09038  -1.07014
 Alpha  occ. eigenvalues --   -1.04993  -1.02139  -0.95893  -0.94619  -0.86399
 Alpha  occ. eigenvalues --   -0.85646  -0.82733  -0.78303  -0.77799  -0.76736
 Alpha  occ. eigenvalues --   -0.72462  -0.71576  -0.70721  -0.65276  -0.65000
 Alpha  occ. eigenvalues --   -0.63610  -0.62341  -0.59513  -0.58086  -0.56219
 Alpha  occ. eigenvalues --   -0.55499  -0.53893  -0.53327  -0.53083  -0.51391
 Alpha  occ. eigenvalues --   -0.51044  -0.49230  -0.49204  -0.48520  -0.46592
 Alpha  occ. eigenvalues --   -0.45349  -0.45274  -0.44282  -0.44039  -0.42389
 Alpha  occ. eigenvalues --   -0.37585  -0.36588
 Alpha virt. eigenvalues --    0.04701   0.11069   0.16216   0.21174   0.24152
 Alpha virt. eigenvalues --    0.25815   0.27122   0.27681   0.28471   0.28787
 Alpha virt. eigenvalues --    0.29285   0.30852   0.32352   0.32750   0.32765

 Mulliken charges:
               1
     1  C   -0.170177
     2  C   -0.218627
     3  C   -0.170237
     4  C    0.157997
     5  C   -0.170504
     6  C   -0.218545
     7  H    0.226679
     8  H    0.224451
     9  H    0.276288
    10  H    0.275772
    11  H    0.224494
    12  N    0.491190
    13  O   -0.461271
    14  O   -0.458260
    15  C   -0.297630
    16  C   -0.298264
    17  C   -0.474354
    18  H    0.144203
    19  H    0.149685
    20  H    0.150106
    21  H    0.150105
    22  H    0.151497
    23  H    0.153952
    24  H    0.156382
    25  C   -0.298504
    26  C   -0.294948
    27  C   -0.481875
    28  H    0.140502
    29  H    0.165259
    30  H    0.139745
    31  H    0.162097
    32  H    0.176031
    33  H    0.145566
    34  H    0.151195
 Sum of Mulliken charges =  -0.00000

 Dipole moment (field-independent basis, Debye):
    X=              4.9911    Y=              2.6643    Z=              0.4526  Tot=              5.6758
 Quadrupole moment (field-independent basis, Debye-Ang):
   XX=            -73.7058   YY=            -97.2645   ZZ=            -92.4147
   XY=              4.8432   XZ=             -0.4312   YZ=              2.1910

 Normal termination of Gaussian 16 at Wed May  5 22:12:51 2021.
