 Gaussian 16, Revision A.03,
 Gaussian 16:  EM64L-G16RevA.03 25-Dec-2016

 -------------
 #p 6-31g* mp2
 -------------

 ------------------------------------------------------
 Input file generated by CHIRIPA (05-May-2021 14:53:16)
 ------------------------------------------------------
 Symbolic Z-matrix:
 Charge =  0 Multiplicity = 1

                         Standard orientation:
 ---------------------------------------------------------------------
 Center     Atomic      Atomic             Coordinates (Angstroms)
 Number     Number       Type             X           Y           Z
 ---------------------------------------------------------------------
      1          6           0        3.261482   -0.175070   -0.333515
      2          6           0        4.314011   -0.929687    0.479334
      3          6           0        4.481186   -2.380843    0.027681
      4          1           0        2.299357   -0.699108   -0.252003
      5          1           0        3.541706   -0.199496   -1.395717
      6          1           0        4.032607   -0.902658    1.539851
      7          1           0        5.273698   -0.403685    0.396033
      8          1           0        4.785404   -2.424654   -1.023097
      9          1           0        3.537262   -2.926462    0.127220
     10          1           0        5.238378   -2.901612    0.622089
     11          6           0        3.082909    1.277004    0.106170
     12          6           0        2.030380    2.031621   -0.706678
     13          6           0        1.863205    3.482777   -0.255025
     14          1           0        2.802685    1.301430    1.168372
     15          1           0        4.045034    1.801042    0.024659
     16          1           0        1.070693    1.505619   -0.623378
     17          1           0        2.311784    2.004592   -1.767195
     18          1           0        2.807129    4.028396   -0.354564
     19          1           0        1.558987    3.526588    0.795752
     20          1           0        1.106013    4.003546   -0.849433
     21          6           0       -4.881287    0.321847   -0.070981
     22          6           0       -4.302763   -0.400654   -1.119706
     23          6           0       -2.972165   -0.822577   -1.042001
     24          6           0       -2.245964   -0.503172    0.104254
     25          6           0       -2.794088    0.215177    1.165774
     26          6           0       -4.126434    0.626919    1.066407
     27          1           0       -5.915605    0.645653   -0.139757
     28          1           0       -4.886598   -0.639006   -2.004222
     29          1           0       -2.499345   -1.383234   -1.839199
     30          1           0       -2.186874    0.437716    2.034787
     31          1           0       -4.573108    1.187884    1.882400
     32          7           0       -0.836395   -0.944454    0.197982
     33          8           0       -0.217901   -0.650340    1.218571
     34          8           0       -0.376758   -1.576089   -0.750916
 ---------------------------------------------------------------------

 SCF Done:  E(RHF) =  -669.537046011     A.U. after   15 cycles
 E2 =    -0.2093064836D+01 EUMP2 =    -0.67163011084636D+03

 The electronic state is 1-A.
 Alpha  occ. eigenvalues --  -20.61250 -20.61237 -15.86215 -11.31444 -11.27986
 Alpha  occ. eigenvalues --  -11.27982 -11.27705 -11.26966 -11.26956 -11.20533
 Alpha  occ. eigenvalues --  -11.20313 -11.20091 -11.19974 -11.19670 -11.19442
 Alpha  occ. eigenvalues --   -1.60274  -1.39829  -1.19595  -1.09022  -1.06968
 Alpha  occ. eigenvalues --   -1.04972  -1.02261  -0.95879  -0.94696  -0.86378
 Alpha  occ. eigenvalues --   -0.85729  -0.82715  -0.78351  -0.77788  -0.76723
 Alpha  occ. eigenvalues --   -0.72421  -0.71581  -0.70703  -0.65249  -0.64979
 Alpha  occ. eigenvalues --   -0.63567  -0.62319  -0.59659  -0.58113  -0.56319
 Alpha  occ. eigenvalues --   -0.55486  -0.53981  -0.53307  -0.53062  -0.51495
 Alpha  occ. eigenvalues --   -0.51148  -0.49300  -0.49201  -0.48588  -0.46676
 Alpha  occ. eigenvalues --   -0.45413  -0.45207  -0.44291  -0.43972  -0.42434
 Alpha  occ. eigenvalues --   -0.37566  -0.36565
 Alpha virt. eigenvalues --    0.04711   0.11091   0.16216   0.21220   0.24267
 Alpha virt. eigenvalues --    0.25502   0.27165   0.27821   0.28312   0.28822
 Alpha virt. eigenvalues --    0.29231   0.30936   0.32298   0.32557   0.32769

 Mulliken charges:
               1
     1  C   -0.312442
     2  C   -0.297783
     3  C   -0.475995
     4  H    0.184744
     5  H    0.140481
     6  H    0.152363
     7  H    0.143793
     8  H    0.150892
     9  H    0.163120
    10  H    0.153386
    11  C   -0.295241
    12  C   -0.296909
    13  C   -0.475103
    14  H    0.152359
    15  H    0.141809
    16  H    0.150490
    17  H    0.148528
    18  H    0.153289
    19  H    0.153477
    20  H    0.153963
    21  C   -0.170092
    22  C   -0.218664
    23  C   -0.170344
    24  C    0.159809
    25  C   -0.170408
    26  C   -0.218623
    27  H    0.226627
    28  H    0.224434
    29  H    0.276380
    30  H    0.276087
    31  H    0.224445
    32  N    0.487590
    33  O   -0.459166
    34  O   -0.457295
 Sum of Mulliken charges =  -0.00000

 Dipole moment (field-independent basis, Debye):
    X=             -5.4437    Y=              1.3335    Z=             -0.2632  Tot=              5.6108
 Quadrupole moment (field-independent basis, Debye-Ang):
   XX=            -73.9418   YY=            -97.9352   ZZ=            -90.5682
   XY=             -0.6398   XZ=              0.3887   YZ=              2.3562

 Normal termination of Gaussian 16 at Thu May  6 09:06:11 2021.
