 Gaussian 16, Revision A.03,
 Gaussian 16:  EM64L-G16RevA.03 25-Dec-2016

 -------------
 #p 6-31g* mp2
 -------------

 ------------------------------------------------------
 Input file generated by CHIRIPA (05-May-2021 14:51:10)
 ------------------------------------------------------
 Symbolic Z-matrix:
 Charge =  0 Multiplicity = 1

                         Standard orientation:
 ---------------------------------------------------------------------
 Center     Atomic      Atomic             Coordinates (Angstroms)
 Number     Number       Type             X           Y           Z
 ---------------------------------------------------------------------
      1          6           0        4.057619   -0.360035    0.172482
      2          6           0        4.892618   -1.395975   -0.580904
      3          6           0        5.593948   -2.382559    0.353216
      4          1           0        4.706863    0.189420    0.867843
      5          1           0        3.309529   -0.879277    0.787416
      6          1           0        5.638006   -0.874887   -1.195299
      7          1           0        4.241348   -1.942897   -1.274691
      8          1           0        4.861762   -2.928364    0.957038
      9          1           0        6.266355   -1.854286    1.036882
     10          1           0        6.185206   -3.114168   -0.206268
     11          6           0        3.350346    0.633288   -0.747737
     12          6           0        2.515347    1.669228    0.005649
     13          6           0        1.814016    2.655812   -0.928472
     14          1           0        4.098436    1.152530   -1.362671
     15          1           0        2.701102    0.083834   -1.443099
     16          1           0        3.166617    2.216150    0.699436
     17          1           0        1.769959    1.148141    0.620043
     18          1           0        1.141610    2.127540   -1.612137
     19          1           0        2.546203    3.201617   -1.532294
     20          1           0        1.222759    3.387421   -0.368987
     21          6           0       -3.055811   -0.265070    0.670783
     22          6           0       -2.206757    0.991727    0.864575
     23          6           0       -0.913295    0.718654    1.632806
     24          1           0       -3.294959   -0.693463    1.653754
     25          1           0       -2.463354   -1.020552    0.136332
     26          1           0       -2.801103    1.745115    1.397282
     27          1           0       -1.969764    1.417285   -0.118964
     28          1           0       -0.297224   -0.014185    1.101765
     29          1           0       -1.133287    0.315507    2.626626
     30          1           0       -0.321721    1.630645    1.759976
     31          6           0       -4.352154   -0.008183   -0.095527
     32          6           0       -5.201207   -1.264980   -0.289320
     33          6           0       -6.494670   -0.991907   -1.057552
     34          1           0       -4.944610    0.747298    0.438923
     35          1           0       -4.113007    0.420209   -1.078499
     36          1           0       -5.438202   -1.690538    0.694220
     37          1           0       -4.606862   -2.018368   -0.822027
     38          1           0       -6.274678   -0.588761   -2.051370
     39          1           0       -7.110742   -0.259069   -0.526509
     40          1           0       -7.086244   -1.903899   -1.184721
 ---------------------------------------------------------------------

 SCF Done:  E(RHF) =  -470.732533606     A.U. after   11 cycles
 E2 =    -0.1583206194D+01 EUMP2 =    -0.47231573979927D+03

 The electronic state is 1-A.
 Alpha  occ. eigenvalues --  -11.21642 -11.21625 -11.21574 -11.21440 -11.21419
 Alpha  occ. eigenvalues --  -11.21379 -11.21353 -11.21289 -11.21122 -11.21089
 Alpha  occ. eigenvalues --  -11.21049 -11.21032  -1.08469  -1.08370  -1.03592
 Alpha  occ. eigenvalues --   -1.03454  -0.96048  -0.95916  -0.87060  -0.86942
 Alpha  occ. eigenvalues --   -0.79709  -0.79475  -0.78287  -0.78172  -0.65159
 Alpha  occ. eigenvalues --   -0.64968  -0.61154  -0.60740  -0.59505  -0.59191
 Alpha  occ. eigenvalues --   -0.57696  -0.57469  -0.55395  -0.55140  -0.52754
 Alpha  occ. eigenvalues --   -0.52604  -0.52464  -0.52339  -0.50084  -0.49800
 Alpha  occ. eigenvalues --   -0.47952  -0.47845  -0.46829  -0.46413  -0.45842
 Alpha  occ. eigenvalues --   -0.45773  -0.45715  -0.45528  -0.43794  -0.43701
 Alpha virt. eigenvalues --    0.21194   0.23104   0.23497   0.25438   0.25961
 Alpha virt. eigenvalues --    0.26631   0.26867   0.27170   0.28046   0.29313
 Alpha virt. eigenvalues --    0.30024   0.31101   0.31634   0.31987   0.32360

 Mulliken charges:
               1
     1  C   -0.298267
     2  C   -0.299543
     3  C   -0.475676
     4  H    0.149727
     5  H    0.149222
     6  H    0.151917
     7  H    0.151619
     8  H    0.155145
     9  H    0.155185
    10  H    0.160108
    11  C   -0.297706
    12  C   -0.309423
    13  C   -0.475535
    14  H    0.149019
    15  H    0.148451
    16  H    0.150729
    17  H    0.164240
    18  H    0.154298
    19  H    0.155066
    20  H    0.159576
    21  C   -0.298731
    22  C   -0.300369
    23  C   -0.479635
    24  H    0.149780
    25  H    0.149404
    26  H    0.152208
    27  H    0.153246
    28  H    0.155577
    29  H    0.155574
    30  H    0.164445
    31  C   -0.298348
    32  C   -0.299668
    33  C   -0.475730
    34  H    0.149681
    35  H    0.149761
    36  H    0.151980
    37  H    0.151864
    38  H    0.155240
    39  H    0.155250
    40  H    0.160318
 Sum of Mulliken charges =  -0.00000

 Dipole moment (field-independent basis, Debye):
    X=             -0.0521    Y=              0.0000    Z=              0.0371  Tot=              0.0640
 Quadrupole moment (field-independent basis, Debye-Ang):
   XX=            -85.2960   YY=            -85.0608   ZZ=            -84.5875
   XY=              0.8496   XZ=             -1.1797   YZ=              0.7034

 Normal termination of Gaussian 16 at Wed May  5 18:13:59 2021.
