 Gaussian 16, Revision A.03,
 Gaussian 16:  EM64L-G16RevA.03 25-Dec-2016

 -------------
 #p 6-31g* mp2
 -------------

 ------------------------------------------------------
 Input file generated by CHIRIPA (05-May-2021 14:55:20)
 ------------------------------------------------------
 Symbolic Z-matrix:
 Charge =  0 Multiplicity = 1

                         Standard orientation:
 ---------------------------------------------------------------------
 Center     Atomic      Atomic             Coordinates (Angstroms)
 Number     Number       Type             X           Y           Z
 ---------------------------------------------------------------------
      1          6           0        2.389729   -2.245158   -1.258907
      2          6           0        1.313599   -2.193385   -0.366839
      3          6           0        1.121634   -1.075126    0.449980
      4          6           0        2.029098   -0.021820    0.348266
      5          6           0        3.110947   -0.043623   -0.530606
      6          6           0        3.283393   -1.172003   -1.337804
      7          1           0        2.531271   -3.117780   -1.889694
      8          1           0        0.617987   -3.025340   -0.303430
      9          1           0        0.297066   -1.008769    1.149338
     10          1           0        3.787718    0.801211   -0.571298
     11          1           0        4.120025   -1.209456   -2.029678
     12          7           0        1.836205    1.167388    1.207903
     13          8           0        2.649739    2.082266    1.099280
     14          8           0        0.875134    1.162094    1.974031
     15          6           0       -2.095411    0.799284   -0.399330
     16          6           0       -2.627500    2.073664   -1.055701
     17          6           0       -1.530242    3.105340   -1.319257
     18          1           0       -1.600921    1.060458    0.546299
     19          1           0       -1.323114    0.357884   -1.044405
     20          1           0       -3.399542    2.511778   -0.410238
     21          1           0       -3.120947    1.809403   -1.999783
     22          1           0       -0.763280    2.691305   -1.981786
     23          1           0       -1.043457    3.397673   -0.383211
     24          1           0       -1.932651    4.008362   -1.788806
     25          6           0       -3.180465   -0.241675   -0.129533
     26          6           0       -2.648375   -1.516054    0.526837
     27          6           0       -3.745634   -2.547731    0.790394
     28          1           0       -3.952761    0.199725    0.515541
     29          1           0       -3.674954   -0.502849   -1.075162
     30          1           0       -2.154928   -1.251793    1.470920
     31          1           0       -1.876334   -1.954169   -0.118625
     32          1           0       -4.232419   -2.840064   -0.145652
     33          1           0       -4.512596   -2.133697    1.452924
     34          1           0       -3.343225   -3.450754    1.259944
 ---------------------------------------------------------------------

 SCF Done:  E(RHF) =  -669.535391988     A.U. after   15 cycles
 E2 =    -0.2094779644D+01 EUMP2 =    -0.67163017163209D+03

 The electronic state is 1-A.
 Alpha  occ. eigenvalues --  -20.60875 -20.60870 -15.85894 -11.31151 -11.27758
 Alpha  occ. eigenvalues --  -11.27672 -11.27495 -11.26743 -11.26713 -11.22068
 Alpha  occ. eigenvalues --  -11.21445 -11.21425 -11.21254 -11.20997 -11.20577
 Alpha  occ. eigenvalues --   -1.59927  -1.39487  -1.19346  -1.08759  -1.08403
 Alpha  occ. eigenvalues --   -1.04738  -1.03512  -0.95917  -0.95606  -0.86945
 Alpha  occ. eigenvalues --   -0.86141  -0.82454  -0.79689  -0.78273  -0.77394
 Alpha  occ. eigenvalues --   -0.72125  -0.71228  -0.70458  -0.65124  -0.64945
 Alpha  occ. eigenvalues --   -0.64704  -0.62109  -0.60898  -0.59340  -0.57540
 Alpha  occ. eigenvalues --   -0.55259  -0.55176  -0.53103  -0.52880  -0.52611
 Alpha  occ. eigenvalues --   -0.52337  -0.49864  -0.48894  -0.48875  -0.47939
 Alpha  occ. eigenvalues --   -0.46703  -0.45809  -0.45613  -0.44636  -0.43725
 Alpha  occ. eigenvalues --   -0.37326  -0.36280
 Alpha virt. eigenvalues --    0.04978   0.11276   0.16343   0.20622   0.23163
 Alpha virt. eigenvalues --    0.24229   0.25307   0.26056   0.27863   0.28245
 Alpha virt. eigenvalues --    0.29439   0.30492   0.31509   0.31788   0.32162

 Mulliken charges:
               1
     1  C   -0.170386
     2  C   -0.225101
     3  C   -0.168890
     4  C    0.157029
     5  C   -0.170179
     6  C   -0.219507
     7  H    0.225554
     8  H    0.224836
     9  H    0.284541
    10  H    0.275440
    11  H    0.223263
    12  N    0.488708
    13  O   -0.459054
    14  O   -0.461410
    15  C   -0.316193
    16  C   -0.298310
    17  C   -0.478944
    18  H    0.172278
    19  H    0.145710
    20  H    0.152767
    21  H    0.148114
    22  H    0.151160
    23  H    0.166973
    24  H    0.158948
    25  C   -0.295422
    26  C   -0.310632
    27  C   -0.474476
    28  H    0.152601
    29  H    0.148318
    30  H    0.154996
    31  H    0.144637
    32  H    0.155972
    33  H    0.159642
    34  H    0.157017
 Sum of Mulliken charges =  -0.00000

 Dipole moment (field-independent basis, Debye):
    X=              0.6943    Y=             -4.0447    Z=             -2.8976  Tot=              5.0237
 Quadrupole moment (field-independent basis, Debye-Ang):
   XX=            -89.2168   YY=            -94.7646   ZZ=            -96.0942
   XY=             -7.3745   XZ=             -8.1736   YZ=             -1.5040

 Normal termination of Gaussian 16 at Wed May  5 20:35:41 2021.
