 Gaussian 16, Revision A.03,
 Gaussian 16:  EM64L-G16RevA.03 25-Dec-2016

 -------------
 #p 6-31g* mp2
 -------------

 ------------------------------------------------------
 Input file generated by CHIRIPA (05-May-2021 14:53:14)
 ------------------------------------------------------
 Symbolic Z-matrix:
 Charge =  0 Multiplicity = 1

                         Standard orientation:
 ---------------------------------------------------------------------
 Center     Atomic      Atomic             Coordinates (Angstroms)
 Number     Number       Type             X           Y           Z
 ---------------------------------------------------------------------
      1          6           0        2.491789    1.203936    0.154552
      2          6           0        2.578158    2.479744   -0.683803
      3          6           0        1.681647    3.598356   -0.152042
      4          1           0        1.448948    0.859275    0.179803
      5          1           0        2.769568    1.435787    1.192086
      6          1           0        2.301634    2.245269   -1.719744
      7          1           0        3.620945    2.821301   -0.707220
      8          1           0        1.960514    3.860854    0.873593
      9          1           0        0.633706    3.281549   -0.144683
     10          1           0        1.758894    4.500966   -0.766198
     11          6           0        3.382403    0.076499   -0.364506
     12          6           0        3.296034   -1.199309    0.473849
     13          6           0        4.192545   -2.317921   -0.057912
     14          1           0        3.104624   -0.155352   -1.402041
     15          1           0        4.425244    0.421161   -0.389758
     16          1           0        2.253247   -1.540866    0.497266
     17          1           0        3.572558   -0.964834    1.509789
     18          1           0        5.240486   -2.001114   -0.065272
     19          1           0        3.913678   -2.580419   -1.083548
     20          1           0        4.115297   -3.220531    0.556243
     21          6           0       -3.648970    1.626658    0.172694
     22          6           0       -3.879297    0.692872   -0.842940
     23          6           0       -3.134871   -0.488978   -0.903000
     24          6           0       -2.163671   -0.705784    0.073247
     25          6           0       -1.910697    0.205277    1.097582
     26          6           0       -2.667137    1.380315    1.138012
     27          1           0       -4.231924    2.542102    0.211727
     28          1           0       -4.641153    0.881537   -1.593957
     29          1           0       -3.292453   -1.228908   -1.678299
     30          1           0       -1.144395   -0.010698    1.832125
     31          1           0       -2.486088    2.103721    1.927917
     32          7           0       -1.369222   -1.953350    0.020055
     33          8           0       -0.519375   -2.120797    0.892041
     34          8           0       -1.611422   -2.740121   -0.892616
 ---------------------------------------------------------------------

 SCF Done:  E(RHF) =  -669.536708045     A.U. after   15 cycles
 E2 =    -0.2092096592D+01 EUMP2 =    -0.67162880463691D+03

 The electronic state is 1-A.
 Alpha  occ. eigenvalues --  -20.61022 -20.61016 -15.86038 -11.31344 -11.27900
 Alpha  occ. eigenvalues --  -11.27897 -11.27629 -11.26903 -11.26893 -11.21468
 Alpha  occ. eigenvalues --  -11.21156 -11.21082 -11.20779 -11.20521 -11.20147
 Alpha  occ. eigenvalues --   -1.60074  -1.39630  -1.19508  -1.08913  -1.07959
 Alpha  occ. eigenvalues --   -1.04897  -1.03014  -0.95758  -0.95521  -0.86545
 Alpha  occ. eigenvalues --   -0.86295  -0.82591  -0.79131  -0.77750  -0.77592
 Alpha  occ. eigenvalues --   -0.72260  -0.71384  -0.70607  -0.65162  -0.64893
 Alpha  occ. eigenvalues --   -0.64588  -0.62240  -0.60402  -0.58932  -0.57093
 Alpha  occ. eigenvalues --   -0.55398  -0.54828  -0.53229  -0.52982  -0.52218
 Alpha  occ. eigenvalues --   -0.51941  -0.49492  -0.49027  -0.49020  -0.47437
 Alpha  occ. eigenvalues --   -0.46179  -0.45501  -0.45226  -0.44618  -0.43282
 Alpha  occ. eigenvalues --   -0.37479  -0.36487
 Alpha virt. eigenvalues --    0.04823   0.11078   0.16287   0.21177   0.23195
 Alpha virt. eigenvalues --    0.24843   0.26361   0.27323   0.27623   0.28299
 Alpha virt. eigenvalues --    0.28803   0.30875   0.31850   0.31956   0.32642

 Mulliken charges:
               1
     1  C   -0.298753
     2  C   -0.298577
     3  C   -0.476219
     4  H    0.147462
     5  H    0.146949
     6  H    0.152137
     7  H    0.152306
     8  H    0.153271
     9  H    0.151497
    10  H    0.159299
    11  C   -0.297775
    12  C   -0.311614
    13  C   -0.474569
    14  H    0.149092
    15  H    0.146560
    16  H    0.178046
    17  H    0.146399
    18  H    0.149296
    19  H    0.155468
    20  H    0.162502
    21  C   -0.170548
    22  C   -0.218407
    23  C   -0.170734
    24  C    0.157526
    25  C   -0.170981
    26  C   -0.219143
    27  H    0.226515
    28  H    0.224096
    29  H    0.275937
    30  H    0.277406
    31  H    0.225063
    32  N    0.488627
    33  O   -0.459878
    34  O   -0.458256
 Sum of Mulliken charges =  -0.00000

 Dipole moment (field-independent basis, Debye):
    X=             -3.0283    Y=              4.2313    Z=              0.1896  Tot=              5.2068
 Quadrupole moment (field-independent basis, Debye-Ang):
   XX=            -82.1732   YY=           -102.0352   ZZ=            -91.3945
   XY=             -6.3234   XZ=              2.3817   YZ=              1.5163

 Normal termination of Gaussian 16 at Thu May  6 18:45:54 2021.
