 Gaussian 16, Revision A.03,
 Gaussian 16:  EM64L-G16RevA.03 25-Dec-2016

 -------------
 #p 6-31g* mp2
 -------------

 ------------------------------------------------------
 Input file generated by CHIRIPA (05-May-2021 14:57:23)
 ------------------------------------------------------
 Symbolic Z-matrix:
 Charge =  0 Multiplicity = 1

                         Standard orientation:
 ---------------------------------------------------------------------
 Center     Atomic      Atomic             Coordinates (Angstroms)
 Number     Number       Type             X           Y           Z
 ---------------------------------------------------------------------
      1          6           0        2.307115    2.418207    0.734720
      2          6           0        1.589672    1.866652   -0.331856
      3          6           0        1.964835    0.636008   -0.878955
      4          6           0        3.067502   -0.018827   -0.332505
      5          6           0        3.802479    0.504781    0.730008
      6          6           0        3.409286    1.736713    1.261319
      7          1           0        2.008676    3.374701    1.153587
      8          1           0        0.733292    2.393675   -0.742835
      9          1           0        1.427214    0.186142   -1.704789
     10          1           0        4.651730   -0.044122    1.118460
     11          1           0        3.968327    2.162660    2.089623
     12          7           0        3.474214   -1.322336   -0.903338
     13          8           0        4.449407   -1.879371   -0.403990
     14          8           0        2.810102   -1.762308   -1.839295
     15          6           0       -4.735539    0.777846   -1.313049
     16          6           0       -3.492955    1.404236   -1.171120
     17          6           0       -2.524037    0.873522   -0.314330
     18          6           0       -2.832731   -0.290156    0.388416
     19          6           0       -4.061539   -0.937394    0.268408
     20          6           0       -5.015372   -0.388912   -0.594100
     21          1           0       -5.482358    1.197020   -1.980844
     22          1           0       -3.272869    2.310468   -1.728211
     23          1           0       -1.553945    1.338023   -0.185570
     24          1           0       -4.251803   -1.839595    0.836960
     25          1           0       -5.979527   -0.877516   -0.702345
     26          7           0       -1.814967   -0.861405    1.298488
     27          8           0       -2.111519   -1.887600    1.906449
     28          8           0       -0.739961   -0.272138    1.386608
 ---------------------------------------------------------------------

 SCF Done:  E(RHF) =  -868.336524944     A.U. after   16 cycles
 E2 =    -0.2601249400D+01 EUMP2 =    -0.87093777434373D+03

 The electronic state is 1-A.
 Alpha  occ. eigenvalues --  -20.61029 -20.61013 -20.60160 -20.60150 -15.86072
 Alpha  occ. eigenvalues --  -15.85215 -11.31559 -11.30525 -11.28211 -11.28079
 Alpha  occ. eigenvalues --  -11.27861 -11.27215 -11.27213 -11.27127 -11.27114
 Alpha  occ. eigenvalues --  -11.26954 -11.26308 -11.26130  -1.60095  -1.59228
 Alpha  occ. eigenvalues --   -1.39647  -1.38787  -1.19730  -1.18724  -1.09095
 Alpha  occ. eigenvalues --   -1.08146  -1.05164  -1.04174  -0.95919  -0.94986
 Alpha  occ. eigenvalues --   -0.86552  -0.85596  -0.82755  -0.81857  -0.77804
 Alpha  occ. eigenvalues --   -0.76888  -0.72295  -0.71453  -0.71416  -0.70844
 Alpha  occ. eigenvalues --   -0.70531  -0.69903  -0.65384  -0.65190  -0.64432
 Alpha  occ. eigenvalues --   -0.64275  -0.62543  -0.61543  -0.55635  -0.54721
 Alpha  occ. eigenvalues --   -0.53465  -0.53283  -0.52398  -0.52319  -0.49064
 Alpha  occ. eigenvalues --   -0.49037  -0.48201  -0.48196  -0.45031  -0.44206
 Alpha  occ. eigenvalues --   -0.37692  -0.36769  -0.36673  -0.35679
 Alpha virt. eigenvalues --    0.04721   0.05728   0.10877   0.11834   0.16236
 Alpha virt. eigenvalues --    0.17045   0.19845   0.22161   0.25494   0.27481
 Alpha virt. eigenvalues --    0.28750   0.29160   0.30637   0.31263   0.32759

 Mulliken charges:
               1
     1  C   -0.166741
     2  C   -0.209435
     3  C   -0.159211
     4  C    0.161267
     5  C   -0.167330
     6  C   -0.216998
     7  H    0.222029
     8  H    0.206300
     9  H    0.270817
    10  H    0.274857
    11  H    0.221844
    12  N    0.488822
    13  O   -0.461117
    14  O   -0.462946
    15  C   -0.170300
    16  C   -0.219351
    17  C   -0.175667
    18  C    0.158892
    19  C   -0.169282
    20  C   -0.218101
    21  H    0.226850
    22  H    0.220782
    23  H    0.271898
    24  H    0.277792
    25  H    0.225453
    26  N    0.488160
    27  O   -0.457175
    28  O   -0.462111
 Sum of Mulliken charges =  -0.00000

 Dipole moment (field-independent basis, Debye):
    X=             -5.0817    Y=              6.3987    Z=             -1.0342  Tot=              8.2363
 Quadrupole moment (field-independent basis, Debye-Ang):
   XX=            -88.4443   YY=           -104.8042   ZZ=           -107.4585
   XY=             12.1622   XZ=             16.8433   YZ=             -1.0185

 Normal termination of Gaussian 16 at Thu May  6 01:49:35 2021.
