 Gaussian 16, Revision A.03,
 Gaussian 16:  EM64L-G16RevA.03 25-Dec-2016

 -------------
 #p 6-31g* mp2
 -------------

 ------------------------------------------------------
 Input file generated by CHIRIPA (05-May-2021 14:53:14)
 ------------------------------------------------------
 Symbolic Z-matrix:
 Charge =  0 Multiplicity = 1

                         Standard orientation:
 ---------------------------------------------------------------------
 Center     Atomic      Atomic             Coordinates (Angstroms)
 Number     Number       Type             X           Y           Z
 ---------------------------------------------------------------------
      1          6           0       -5.076503   -0.192450   -0.362573
      2          6           0       -6.569800   -0.232013   -0.036253
      3          6           0       -7.443962   -0.368976   -1.283200
      4          1           0       -4.878794    0.645824   -1.044594
      5          1           0       -4.802421   -1.107964   -0.904890
      6          1           0       -6.840700    0.682671    0.506501
      7          1           0       -6.763946   -1.070174    0.645223
      8          1           0       -7.202300   -1.289793   -1.823844
      9          1           0       -7.279490    0.473011   -1.963354
     10          1           0       -8.507667   -0.395268   -1.026880
     11          6           0       -4.189641   -0.055771    0.873761
     12          6           0       -2.696344   -0.016207    0.547442
     13          6           0       -1.822182    0.120755    1.794389
     14          1           0       -4.463722    0.859743    1.416079
     15          1           0       -4.387349   -0.894045    1.555783
     16          1           0       -2.502197    0.821953   -0.134034
     17          1           0       -2.425443   -0.930891    0.004688
     18          1           0       -1.986653   -0.721232    2.474542
     19          1           0       -2.063843    1.041573    2.335032
     20          1           0       -0.758477    0.147047    1.538068
     21          6           0        1.933018    1.967270   -0.352494
     22          6           0        1.508579    0.635642   -0.408486
     23          6           0        2.434239   -0.408722   -0.324791
     24          6           0        3.782639   -0.083853   -0.184910
     25          6           0        4.236643    1.232849   -0.126066
     26          6           0        3.293299    2.261107   -0.211711
     27          1           0        1.207074    2.772301   -0.418268
     28          1           0        0.452803    0.404474   -0.517785
     29          1           0        2.133115   -1.448477   -0.365439
     30          1           0        5.295798    1.431992   -0.016736
     31          1           0        3.625804    3.294339   -0.167944
     32          7           0        4.771954   -1.180949   -0.095273
     33          8           0        5.954236   -0.868316    0.027645
     34          8           0        4.346366   -2.332712   -0.149631
 ---------------------------------------------------------------------

 SCF Done:  E(RHF) =  -669.535396365     A.U. after   15 cycles
 E2 =    -0.2091474216D+01 EUMP2 =    -0.67162687058160D+03

 The electronic state is 1-A.
 Alpha  occ. eigenvalues --  -20.60759 -20.60753 -15.85812 -11.31186 -11.27764
 Alpha  occ. eigenvalues --  -11.27758 -11.27503 -11.26772 -11.26733 -11.22539
 Alpha  occ. eigenvalues --  -11.22077 -11.22055 -11.21932 -11.21875 -11.21452
 Alpha  occ. eigenvalues --   -1.59834  -1.39387  -1.19364  -1.09087  -1.08754
 Alpha  occ. eigenvalues --   -1.04772  -1.04189  -0.96615  -0.95587  -0.87628
 Alpha  occ. eigenvalues --   -0.86161  -0.82420  -0.80271  -0.78879  -0.77468
 Alpha  occ. eigenvalues --   -0.72031  -0.71157  -0.70466  -0.65712  -0.65013
 Alpha  occ. eigenvalues --   -0.64815  -0.62177  -0.61576  -0.59973  -0.58230
 Alpha  occ. eigenvalues --   -0.55874  -0.55261  -0.53446  -0.53145  -0.53023
 Alpha  occ. eigenvalues --   -0.52636  -0.50538  -0.48789  -0.48785  -0.48579
 Alpha  occ. eigenvalues --   -0.47308  -0.46419  -0.46325  -0.44791  -0.44433
 Alpha  occ. eigenvalues --   -0.37334  -0.36353
 Alpha virt. eigenvalues --    0.05066   0.11181   0.16485   0.20082   0.22501
 Alpha virt. eigenvalues --    0.23811   0.25908   0.26040   0.27076   0.28187
 Alpha virt. eigenvalues --    0.28873   0.30402   0.30806   0.31324   0.32043

 Mulliken charges:
               1
     1  C   -0.298853
     2  C   -0.300210
     3  C   -0.476053
     4  H    0.148794
     5  H    0.150570
     6  H    0.152377
     7  H    0.153351
     8  H    0.156045
     9  H    0.155113
    10  H    0.161791
    11  C   -0.298354
    12  C   -0.302766
    13  C   -0.482047
    14  H    0.150932
    15  H    0.152957
    16  H    0.145540
    17  H    0.151651
    18  H    0.161001
    19  H    0.157272
    20  H    0.158366
    21  C   -0.172383
    22  C   -0.222130
    23  C   -0.172900
    24  C    0.158723
    25  C   -0.170615
    26  C   -0.218525
    27  H    0.225952
    28  H    0.231925
    29  H    0.276026
    30  H    0.275694
    31  H    0.223449
    32  N    0.488124
    33  O   -0.460472
    34  O   -0.460344
 Sum of Mulliken charges =  -0.00000

 Dipole moment (field-independent basis, Debye):
    X=             -3.6275    Y=              3.8501    Z=             -0.2780  Tot=              5.2971
 Quadrupole moment (field-independent basis, Debye-Ang):
   XX=           -118.4697   YY=            -92.4060   ZZ=            -96.0380
   XY=             17.9248   XZ=             -0.9714   YZ=             -0.5804

 Normal termination of Gaussian 16 at Wed May  5 20:12:33 2021.
