 Gaussian 16, Revision A.03,
 Gaussian 16:  EM64L-G16RevA.03 25-Dec-2016

 -------------
 #p 6-31g* mp2
 -------------

 ------------------------------------------------------
 Input file generated by CHIRIPA (05-May-2021 14:51:11)
 ------------------------------------------------------
 Symbolic Z-matrix:
 Charge =  0 Multiplicity = 1

                         Standard orientation:
 ---------------------------------------------------------------------
 Center     Atomic      Atomic             Coordinates (Angstroms)
 Number     Number       Type             X           Y           Z
 ---------------------------------------------------------------------
      1          6           0        3.309590    0.460552   -0.241875
      2          6           0        4.041359   -0.369283    0.813527
      3          6           0        5.211895   -1.163859    0.233624
      4          1           0        2.944797   -0.206161   -1.035201
      5          1           0        4.022562    1.149386   -0.715767
      6          1           0        3.326922   -1.055379    1.286251
      7          1           0        4.404286    0.299459    1.604528
      8          1           0        5.946264   -0.491297   -0.221309
      9          1           0        4.862779   -1.853834   -0.541395
     10          1           0        5.720826   -1.749840    1.005295
     11          6           0        2.136875    1.260503    0.322523
     12          6           0        1.405106    2.090337   -0.732879
     13          6           0        0.234569    2.884914   -0.152976
     14          1           0        1.423902    0.571669    0.796415
     15          1           0        2.501667    1.927216    1.115849
     16          1           0        1.042179    1.421595   -1.523880
     17          1           0        2.119542    2.776434   -1.205603
     18          1           0        0.583685    3.574888    0.622043
     19          1           0       -0.499799    2.212352    0.301957
     20          1           0       -0.274361    3.470894   -0.924647
     21          6           0       -2.336504   -1.513887    0.043303
     22          6           0       -0.945058   -1.480193   -0.589728
     23          6           0       -0.183725   -2.794470   -0.414113
     24          1           0       -2.240091   -1.743277    1.113364
     25          1           0       -2.914360   -2.335733   -0.401720
     26          1           0       -0.370471   -0.657785   -0.144631
     27          1           0       -1.044781   -1.250666   -1.658368
     28          1           0       -0.732955   -3.622275   -0.874205
     29          1           0       -0.054813   -3.026026    0.648132
     30          1           0        0.808312   -2.748318   -0.874103
     31          6           0       -3.109962   -0.207167   -0.123951
     32          6           0       -4.501406   -0.240863    0.509080
     33          6           0       -5.262740    1.073416    0.333465
     34          1           0       -2.532105    0.614679    0.321073
     35          1           0       -3.206373    0.022223   -1.194012
     36          1           0       -4.401684   -0.470388    1.577720
     37          1           0       -5.075994   -1.063269    0.063983
     38          1           0       -5.391651    1.304971   -0.728780
     39          1           0       -4.713509    1.901221    0.793557
     40          1           0       -6.254777    1.027264    0.793455
 ---------------------------------------------------------------------

 SCF Done:  E(RHF) =  -470.732934918     A.U. after   11 cycles
 E2 =    -0.1584507906D+01 EUMP2 =    -0.47231744282328D+03

 The electronic state is 1-A.
 Alpha  occ. eigenvalues --  -11.21654 -11.21623 -11.21596 -11.21577 -11.21450
 Alpha  occ. eigenvalues --  -11.21405 -11.21388 -11.21346 -11.21158 -11.21074
 Alpha  occ. eigenvalues --  -11.21067 -11.21063  -1.08503  -1.08409  -1.03587
 Alpha  occ. eigenvalues --   -1.03515  -0.96037  -0.95966  -0.87057  -0.86978
 Alpha  occ. eigenvalues --   -0.79647  -0.79586  -0.78337  -0.78211  -0.65352
 Alpha  occ. eigenvalues --   -0.64874  -0.61061  -0.60839  -0.59389  -0.59338
 Alpha  occ. eigenvalues --   -0.57663  -0.57571  -0.55425  -0.55156  -0.52719
 Alpha  occ. eigenvalues --   -0.52667  -0.52471  -0.52388  -0.50104  -0.49803
 Alpha  occ. eigenvalues --   -0.48016  -0.47864  -0.46793  -0.46616  -0.46043
 Alpha  occ. eigenvalues --   -0.45826  -0.45718  -0.45276  -0.43827  -0.43779
 Alpha virt. eigenvalues --    0.19605   0.22155   0.23642   0.24754   0.25675
 Alpha virt. eigenvalues --    0.26197   0.26875   0.27596   0.28946   0.29439
 Alpha virt. eigenvalues --    0.30688   0.31293   0.31734   0.31948   0.32549

 Mulliken charges:
               1
     1  C   -0.298821
     2  C   -0.300026
     3  C   -0.475608
     4  H    0.150234
     5  H    0.149684
     6  H    0.152477
     7  H    0.151835
     8  H    0.155140
     9  H    0.155032
    10  H    0.160318
    11  C   -0.302337
    12  C   -0.301141
    13  C   -0.480718
    14  H    0.151948
    15  H    0.150003
    16  H    0.154234
    17  H    0.152226
    18  H    0.154941
    19  H    0.158838
    20  H    0.160736
    21  C   -0.297651
    22  C   -0.309659
    23  C   -0.476185
    24  H    0.149406
    25  H    0.149869
    26  H    0.161449
    27  H    0.152044
    28  H    0.155922
    29  H    0.155116
    30  H    0.160127
    31  C   -0.303877
    32  C   -0.299420
    33  C   -0.475804
    34  H    0.154584
    35  H    0.149966
    36  H    0.151912
    37  H    0.152051
    38  H    0.155256
    39  H    0.155614
    40  H    0.160287
 Sum of Mulliken charges =  -0.00000

 Dipole moment (field-independent basis, Debye):
    X=             -0.0167    Y=             -0.0023    Z=             -0.0072  Tot=              0.0183
 Quadrupole moment (field-independent basis, Debye-Ang):
   XX=            -85.4354   YY=            -85.2464   ZZ=            -84.0334
   XY=              1.7756   XZ=              0.6724   YZ=              0.3098

 Normal termination of Gaussian 16 at Wed May  5 16:43:53 2021.
