 Gaussian 16, Revision A.03,
 Gaussian 16:  EM64L-G16RevA.03 25-Dec-2016

 -------------
 #p 6-31g* mp2
 -------------

 ------------------------------------------------------
 Input file generated by CHIRIPA (05-May-2021 14:51:11)
 ------------------------------------------------------
 Symbolic Z-matrix:
 Charge =  0 Multiplicity = 1

                         Standard orientation:
 ---------------------------------------------------------------------
 Center     Atomic      Atomic             Coordinates (Angstroms)
 Number     Number       Type             X           Y           Z
 ---------------------------------------------------------------------
      1          6           0        4.667784   -0.613891   -0.045686
      2          6           0        5.539794    0.640388    0.020415
      3          6           0        7.034615    0.325084   -0.041932
      4          1           0        4.937410   -1.284221    0.781904
      5          1           0        4.890255   -1.158165   -0.973946
      6          1           0        5.314749    1.182859    0.947612
      7          1           0        5.267928    1.307896   -0.807316
      8          1           0        7.279959   -0.195736   -0.973143
      9          1           0        7.327047   -0.321482    0.791756
     10          1           0        7.639420    1.235959    0.006830
     11          6           0        3.170911   -0.314975    0.015548
     12          6           0        2.298902   -1.569254   -0.050552
     13          6           0        0.804080   -1.253950    0.011795
     14          1           0        2.948440    0.229299    0.943808
     15          1           0        2.901285    0.355355   -0.812041
     16          1           0        2.570767   -2.236762    0.777178
     17          1           0        2.523946   -2.111725   -0.977750
     18          1           0        0.511649   -0.607384   -0.821894
     19          1           0        0.558736   -0.733130    0.943006
     20          1           0        0.199275   -2.164825   -0.036968
     21          6           0       -3.448771    0.987284   -0.282617
     22          6           0       -2.158446    1.167482    0.517745
     23          6           0       -1.227309    2.216794   -0.090301
     24          1           0       -3.196681    0.702665   -1.313339
     25          1           0       -3.971842    1.951680   -0.343695
     26          1           0       -1.638655    0.202732    0.578473
     27          1           0       -2.413643    1.451518    1.546732
     28          1           0       -1.723271    3.191746   -0.136025
     29          1           0       -0.943880    1.935864   -1.109785
     30          1           0       -0.311104    2.329482    0.497688
     31          6           0       -4.389925   -0.058417    0.312754
     32          6           0       -5.680249   -0.238616   -0.487606
     33          6           0       -6.611387   -1.287928    0.120438
     34          1           0       -3.866854   -1.022814    0.373833
     35          1           0       -4.642015    0.226201    1.343477
     36          1           0       -5.425052   -0.522652   -1.516593
     37          1           0       -6.200041    0.726135   -0.548335
     38          1           0       -6.894815   -1.006998    1.139922
     39          1           0       -6.115424   -2.262880    0.166163
     40          1           0       -7.527592   -1.400617   -0.467550
 ---------------------------------------------------------------------

 SCF Done:  E(RHF) =  -470.732748198     A.U. after   11 cycles
 E2 =    -0.1583181256D+01 EUMP2 =    -0.47231592945455D+03

 The electronic state is 1-A.
 Alpha  occ. eigenvalues --  -11.21625 -11.21608 -11.21553 -11.21420 -11.21411
 Alpha  occ. eigenvalues --  -11.21361 -11.21326 -11.21260 -11.21109 -11.21076
 Alpha  occ. eigenvalues --  -11.21035 -11.20985  -1.08451  -1.08343  -1.03576
 Alpha  occ. eigenvalues --   -1.03427  -0.96036  -0.95882  -0.87037  -0.86921
 Alpha  occ. eigenvalues --   -0.79687  -0.79461  -0.78276  -0.78138  -0.65077
 Alpha  occ. eigenvalues --   -0.64984  -0.60955  -0.60878  -0.59388  -0.59272
 Alpha  occ. eigenvalues --   -0.57689  -0.57438  -0.55311  -0.55193  -0.52720
 Alpha  occ. eigenvalues --   -0.52604  -0.52406  -0.52328  -0.50015  -0.49790
 Alpha  occ. eigenvalues --   -0.48048  -0.47739  -0.46708  -0.46463  -0.45870
 Alpha  occ. eigenvalues --   -0.45729  -0.45684  -0.45477  -0.43800  -0.43697
 Alpha virt. eigenvalues --    0.21638   0.22955   0.23594   0.24962   0.26070
 Alpha virt. eigenvalues --    0.26364   0.27121   0.27380   0.28012   0.29456
 Alpha virt. eigenvalues --    0.29852   0.30983   0.31628   0.31924   0.32350

 Mulliken charges:
               1
     1  C   -0.298305
     2  C   -0.299659
     3  C   -0.475720
     4  H    0.149654
     5  H    0.149544
     6  H    0.151935
     7  H    0.152097
     8  H    0.155182
     9  H    0.155168
    10  H    0.160319
    11  C   -0.298365
    12  C   -0.300540
    13  C   -0.478995
    14  H    0.149344
    15  H    0.150129
    16  H    0.151993
    17  H    0.151812
    18  H    0.157950
    19  H    0.157398
    20  H    0.159534
    21  C   -0.297434
    22  C   -0.308994
    23  C   -0.475096
    24  H    0.148942
    25  H    0.148839
    26  H    0.164817
    27  H    0.150453
    28  H    0.154566
    29  H    0.153932
    30  H    0.160249
    31  C   -0.298240
    32  C   -0.299559
    33  C   -0.475648
    34  H    0.149515
    35  H    0.149387
    36  H    0.151788
    37  H    0.151808
    38  H    0.155076
    39  H    0.155061
    40  H    0.160059
 Sum of Mulliken charges =  -0.00000

 Dipole moment (field-independent basis, Debye):
    X=              0.0452    Y=             -0.0259    Z=              0.0050  Tot=              0.0524
 Quadrupole moment (field-independent basis, Debye-Ang):
   XX=            -86.6447   YY=            -84.8987   ZZ=            -83.5227
   XY=             -0.7520   XZ=              0.0494   YZ=              0.5621

 Normal termination of Gaussian 16 at Wed May  5 18:17:07 2021.
