 Gaussian 16, Revision A.03,
 Gaussian 16:  EM64L-G16RevA.03 25-Dec-2016

 -------------
 #p 6-31g* mp2
 -------------

 ------------------------------------------------------
 Input file generated by CHIRIPA (05-May-2021 14:57:21)
 ------------------------------------------------------
 Symbolic Z-matrix:
 Charge =  0 Multiplicity = 1

                         Standard orientation:
 ---------------------------------------------------------------------
 Center     Atomic      Atomic             Coordinates (Angstroms)
 Number     Number       Type             X           Y           Z
 ---------------------------------------------------------------------
      1          6           0        1.096969   -1.259902    1.298014
      2          6           0        1.378259   -1.497201   -0.051462
      3          6           0        2.502672   -0.924845   -0.653669
      4          6           0        3.328021   -0.116737    0.126747
      5          6           0        3.074532    0.138586    1.473537
      6          6           0        1.944508   -0.444204    2.054872
      7          1           0        0.221319   -1.708575    1.757716
      8          1           0        0.721813   -2.130258   -0.641684
      9          1           0        2.744056   -1.091879   -1.696383
     10          1           0        3.747500    0.774124    2.036230
     11          1           0        1.728530   -0.258168    3.103104
     12          7           0        4.521356    0.494714   -0.499735
     13          8           0        5.232796    1.202879    0.209485
     14          8           0        4.722657    0.254226   -1.688129
     15          6           0       -3.024407    2.730524   -0.031865
     16          6           0       -2.144661    2.057638   -0.886142
     17          6           0       -2.194901    0.665456   -1.003846
     18          6           0       -3.141683   -0.025437   -0.249154
     19          6           0       -4.031756    0.616332    0.610610
     20          6           0       -3.963492    2.008995    0.712472
     21          1           0       -2.978379    3.812191    0.053417
     22          1           0       -1.414323    2.615398   -1.465414
     23          1           0       -1.525794    0.119255   -1.657587
     24          1           0       -4.748927    0.033057    1.175300
     25          1           0       -4.647970    2.528919    1.376713
     26          7           0       -3.204412   -1.499533   -0.365376
     27          8           0       -4.047701   -2.085186    0.310279
     28          8           0       -2.409100   -2.041364   -1.129926
 ---------------------------------------------------------------------

 SCF Done:  E(RHF) =  -868.339899105     A.U. after   16 cycles
 E2 =    -0.2599409966D+01 EUMP2 =    -0.87093930907025D+03

 The electronic state is 1-A.
 Alpha  occ. eigenvalues --  -20.61753 -20.61702 -20.60759 -20.60753 -15.86757
 Alpha  occ. eigenvalues --  -15.85806 -11.31859 -11.31086 -11.28396 -11.28389
 Alpha  occ. eigenvalues --  -11.28061 -11.27650 -11.27587 -11.27343 -11.27303
 Alpha  occ. eigenvalues --  -11.27275 -11.26640 -11.26446  -1.60799  -1.59838
 Alpha  occ. eigenvalues --   -1.40359  -1.39393  -1.20005  -1.19228  -1.09443
 Alpha  occ. eigenvalues --   -1.08622  -1.05358  -1.04602  -0.96321  -0.95481
 Alpha  occ. eigenvalues --   -0.86769  -0.85983  -0.83159  -0.82307  -0.78246
 Alpha  occ. eigenvalues --   -0.77377  -0.72977  -0.72128  -0.72018  -0.71165
 Alpha  occ. eigenvalues --   -0.71096  -0.70298  -0.65654  -0.65347  -0.64859
 Alpha  occ. eigenvalues --   -0.64538  -0.62709  -0.61924  -0.55856  -0.55057
 Alpha  occ. eigenvalues --   -0.53719  -0.53444  -0.52948  -0.52646  -0.49746
 Alpha  occ. eigenvalues --   -0.49703  -0.48787  -0.48769  -0.45811  -0.44817
 Alpha  occ. eigenvalues --   -0.37980  -0.37242  -0.36900  -0.36210
 Alpha virt. eigenvalues --    0.04229   0.05118   0.10625   0.11489   0.15767
 Alpha virt. eigenvalues --    0.16621   0.20781   0.21766   0.26543   0.27228
 Alpha virt. eigenvalues --    0.28256   0.28454   0.30452   0.31152   0.32109

 Mulliken charges:
               1
     1  C   -0.173376
     2  C   -0.228288
     3  C   -0.175651
     4  C    0.158041
     5  C   -0.172872
     6  C   -0.218805
     7  H    0.229806
     8  H    0.242939
     9  H    0.275129
    10  H    0.274029
    11  H    0.222317
    12  N    0.487839
    13  O   -0.461549
    14  O   -0.461060
    15  C   -0.170102
    16  C   -0.218113
    17  C   -0.168973
    18  C    0.155007
    19  C   -0.171932
    20  C   -0.218881
    21  H    0.228693
    22  H    0.227998
    23  H    0.273740
    24  H    0.275794
    25  H    0.225249
    26  N    0.487644
    27  O   -0.456864
    28  O   -0.467761
 Sum of Mulliken charges =  -0.00000

 Dipole moment (field-independent basis, Debye):
    X=             -4.2185    Y=              3.0958    Z=              2.6226  Tot=              5.8530
 Quadrupole moment (field-independent basis, Debye-Ang):
   XX=           -132.4240   YY=           -104.3349   ZZ=            -99.1537
   XY=            -22.9452   XZ=              3.6377   YZ=              0.1476

 Normal termination of Gaussian 16 at Thu May  6 11:12:16 2021.
