 Gaussian 16, Revision A.03,
 Gaussian 16:  EM64L-G16RevA.03 25-Dec-2016

 -------------
 #p 6-31g* mp2
 -------------

 ------------------------------------------------------
 Input file generated by CHIRIPA (05-May-2021 14:51:11)
 ------------------------------------------------------
 Symbolic Z-matrix:
 Charge =  0 Multiplicity = 1

                         Standard orientation:
 ---------------------------------------------------------------------
 Center     Atomic      Atomic             Coordinates (Angstroms)
 Number     Number       Type             X           Y           Z
 ---------------------------------------------------------------------
      1          6           0        2.112623   -1.055309   -0.051343
      2          6           0        1.585329   -1.691274    1.235317
      3          6           0        0.201621   -2.317980    1.061002
      4          1           0        1.402168   -0.289869   -0.392370
      5          1           0        2.151769   -1.819106   -0.840315
      6          1           0        1.548497   -0.926825    2.022005
      7          1           0        2.297216   -2.455156    1.573425
      8          1           0        0.226649   -3.100151    0.295376
      9          1           0       -0.526324   -1.563136    0.746504
     10          1           0       -0.156131   -2.766766    1.992916
     11          6           0        3.494957   -0.424581    0.106975
     12          6           0        4.022251    0.211383   -1.179685
     13          6           0        5.405959    0.838089   -1.005369
     14          1           0        3.455811    0.339215    0.895948
     15          1           0        4.205412   -1.190022    0.448002
     16          1           0        3.310364    0.975265   -1.517793
     17          1           0        4.059083   -0.553066   -1.966372
     18          1           0        6.133904    0.083245   -0.690872
     19          1           0        5.380931    1.620260   -0.239744
     20          1           0        5.763711    1.286875   -1.937284
     21          6           0       -2.323150    1.326483   -0.119423
     22          6           0       -1.473482    1.613295    1.119039
     23          6           0       -0.516927    2.789425    0.920257
     24          1           0       -1.660548    1.122083   -0.971552
     25          1           0       -2.896816    2.227124   -0.378554
     26          1           0       -0.902638    0.711947    1.376573
     27          1           0       -2.138187    1.816847    1.968362
     28          1           0       -1.073014    3.702880    0.685801
     29          1           0        0.169554    2.591701    0.090650
     30          1           0        0.080684    2.976986    1.817777
     31          6           0       -3.284429    0.153409    0.063791
     32          6           0       -4.134098   -0.133404   -1.174671
     33          6           0       -5.090652   -1.309534   -0.975889
     34          1           0       -2.710764   -0.747234    0.322921
     35          1           0       -3.947032    0.357808    0.915919
     36          1           0       -3.469393   -0.336957   -2.023995
     37          1           0       -4.704942    0.767944   -1.432205
     38          1           0       -5.777135   -1.111810   -0.146283
     39          1           0       -4.534566   -2.222989   -0.741433
     40          1           0       -5.688264   -1.497095   -1.873409
 ---------------------------------------------------------------------

 SCF Done:  E(RHF) =  -470.732708722     A.U. after   11 cycles
 E2 =    -0.1584372125D+01 EUMP2 =    -0.47231708084620D+03

 The electronic state is 1-A.
 Alpha  occ. eigenvalues --  -11.21657 -11.21633 -11.21627 -11.21594 -11.21450
 Alpha  occ. eigenvalues --  -11.21429 -11.21384 -11.21353 -11.21140 -11.21105
 Alpha  occ. eigenvalues --  -11.21083 -11.21052  -1.08501  -1.08432  -1.03594
 Alpha  occ. eigenvalues --   -1.03532  -0.96040  -0.95988  -0.87042  -0.87019
 Alpha  occ. eigenvalues --   -0.79642  -0.79618  -0.78317  -0.78242  -0.65390
 Alpha  occ. eigenvalues --   -0.64873  -0.61155  -0.60760  -0.59387  -0.59363
 Alpha  occ. eigenvalues --   -0.57669  -0.57583  -0.55460  -0.55177  -0.52719
 Alpha  occ. eigenvalues --   -0.52700  -0.52472  -0.52399  -0.50006  -0.49943
 Alpha  occ. eigenvalues --   -0.48008  -0.47920  -0.46753  -0.46649  -0.45975
 Alpha  occ. eigenvalues --   -0.45785  -0.45728  -0.45373  -0.43823  -0.43804
 Alpha virt. eigenvalues --    0.19229   0.22762   0.23897   0.24454   0.25719
 Alpha virt. eigenvalues --    0.26360   0.26751   0.27938   0.28918   0.29271
 Alpha virt. eigenvalues --    0.30710   0.31603   0.31649   0.31749   0.32234

 Mulliken charges:
               1
     1  C   -0.300521
     2  C   -0.300180
     3  C   -0.485709
     4  H    0.150733
     5  H    0.149674
     6  H    0.152662
     7  H    0.152588
     8  H    0.155400
     9  H    0.163736
    10  H    0.160821
    11  C   -0.298320
    12  C   -0.299665
    13  C   -0.475765
    14  H    0.150181
    15  H    0.149788
    16  H    0.151665
    17  H    0.151905
    18  H    0.155196
    19  H    0.155483
    20  H    0.160350
    21  C   -0.298838
    22  C   -0.306885
    23  C   -0.476134
    24  H    0.149486
    25  H    0.150062
    26  H    0.158550
    27  H    0.152511
    28  H    0.155718
    29  H    0.154898
    30  H    0.160125
    31  C   -0.305569
    32  C   -0.299127
    33  C   -0.475925
    34  H    0.156236
    35  H    0.149898
    36  H    0.152040
    37  H    0.151814
    38  H    0.155105
    39  H    0.155830
    40  H    0.160184
 Sum of Mulliken charges =  -0.00000

 Dipole moment (field-independent basis, Debye):
    X=              0.0007    Y=             -0.0108    Z=              0.0122  Tot=              0.0163
 Quadrupole moment (field-independent basis, Debye-Ang):
   XX=            -85.5468   YY=            -84.5115   ZZ=            -84.5992
   XY=             -1.9570   XZ=             -0.3492   YZ=              0.4706

 Normal termination of Gaussian 16 at Thu May  6 02:15:22 2021.
