 Gaussian 16, Revision A.03,
 Gaussian 16:  EM64L-G16RevA.03 25-Dec-2016

 -------------
 #p 6-31g* mp2
 -------------

 ------------------------------------------------------
 Input file generated by CHIRIPA (05-May-2021 14:53:13)
 ------------------------------------------------------
 Symbolic Z-matrix:
 Charge =  0 Multiplicity = 1

                         Standard orientation:
 ---------------------------------------------------------------------
 Center     Atomic      Atomic             Coordinates (Angstroms)
 Number     Number       Type             X           Y           Z
 ---------------------------------------------------------------------
      1          6           0        3.660415    0.520201    0.097205
      2          6           0        4.652068    0.607621   -1.063384
      3          6           0        5.056731    2.045880   -1.388117
      4          1           0        2.765323    1.107850   -0.148608
      5          1           0        4.105876    0.986517    0.986874
      6          1           0        4.205412    0.140046   -1.950227
      7          1           0        5.544823    0.019539   -0.814860
      8          1           0        5.526176    2.519390   -0.519779
      9          1           0        4.179155    2.640582   -1.661597
     10          1           0        5.766025    2.085119   -2.220717
     11          6           0        3.246360   -0.911242    0.433742
     12          6           0        2.254707   -0.998661    1.594331
     13          6           0        1.850044   -2.436921    1.919064
     14          1           0        2.800899   -1.377557   -0.455927
     15          1           0        4.141452   -1.498890    0.679555
     16          1           0        1.361952   -0.410580    1.345807
     17          1           0        2.701363   -0.531087    2.481174
     18          1           0        2.727620   -3.031622    2.192544
     19          1           0        1.380599   -2.910431    1.050726
     20          1           0        1.140750   -2.476160    2.751664
     21          6           0       -3.133996    2.279646    1.077943
     22          6           0       -4.200713    1.569001    0.517927
     23          6           0       -3.970881    0.389324   -0.196278
     24          6           0       -2.655805   -0.052871   -0.331663
     25          6           0       -1.571961    0.632838    0.214576
     26          6           0       -1.825332    1.810125    0.924750
     27          1           0       -3.321678    3.195118    1.631189
     28          1           0       -5.218077    1.931269    0.635304
     29          1           0       -4.778126   -0.180534   -0.640164
     30          1           0       -0.568737    0.246760    0.080762
     31          1           0       -0.994958    2.359957    1.358582
     32          7           0       -2.400032   -1.300476   -1.085627
     33          8           0       -1.232215   -1.668985   -1.190712
     34          8           0       -3.372217   -1.886216   -1.557223
 ---------------------------------------------------------------------

 SCF Done:  E(RHF) =  -669.535733816     A.U. after   15 cycles
 E2 =    -0.2091574973D+01 EUMP2 =    -0.67162730878830D+03

 The electronic state is 1-A.
 Alpha  occ. eigenvalues --  -20.60831 -20.60824 -15.85879 -11.31216 -11.27784
 Alpha  occ. eigenvalues --  -11.27768 -11.27523 -11.26799 -11.26785 -11.21712
 Alpha  occ. eigenvalues --  -11.21616 -11.21502 -11.21296 -11.21133 -11.20792
 Alpha  occ. eigenvalues --   -1.59900  -1.39455  -1.19388  -1.08788  -1.08452
 Alpha  occ. eigenvalues --   -1.04790  -1.03515  -0.95935  -0.95628  -0.86950
 Alpha  occ. eigenvalues --   -0.86189  -0.82462  -0.79600  -0.78286  -0.77509
 Alpha  occ. eigenvalues --   -0.72101  -0.71219  -0.70508  -0.65131  -0.65042
 Alpha  occ. eigenvalues --   -0.64758  -0.62170  -0.60876  -0.59317  -0.57562
 Alpha  occ. eigenvalues --   -0.55301  -0.55194  -0.53117  -0.52893  -0.52629
 Alpha  occ. eigenvalues --   -0.52355  -0.49853  -0.48855  -0.48853  -0.47903
 Alpha  occ. eigenvalues --   -0.46629  -0.45838  -0.45705  -0.44863  -0.43778
 Alpha  occ. eigenvalues --   -0.37368  -0.36386
 Alpha virt. eigenvalues --    0.05000   0.11242   0.16502   0.19571   0.22874
 Alpha virt. eigenvalues --    0.24130   0.25415   0.27152   0.27911   0.28053
 Alpha virt. eigenvalues --    0.29631   0.30897   0.31502   0.31808   0.32071

 Mulliken charges:
               1
     1  C   -0.296749
     2  C   -0.300192
     3  C   -0.475671
     4  H    0.141670
     5  H    0.147994
     6  H    0.155815
     7  H    0.152989
     8  H    0.154035
     9  H    0.153679
    10  H    0.161409
    11  C   -0.301306
    12  C   -0.299126
    13  C   -0.478922
    14  H    0.160061
    15  H    0.150881
    16  H    0.140019
    17  H    0.149928
    18  H    0.154501
    19  H    0.170315
    20  H    0.158035
    21  C   -0.170708
    22  C   -0.218724
    23  C   -0.170403
    24  C    0.159225
    25  C   -0.178899
    26  C   -0.220909
    27  H    0.225824
    28  H    0.223605
    29  H    0.275645
    30  H    0.285778
    31  H    0.224102
    32  N    0.487637
    33  O   -0.461749
    34  O   -0.459786
 Sum of Mulliken charges =  -0.00000

 Dipole moment (field-independent basis, Debye):
    X=             -0.8883    Y=              4.2510    Z=              2.5788  Tot=              5.0508
 Quadrupole moment (field-independent basis, Debye-Ang):
   XX=            -84.3859   YY=            -96.5350   ZZ=            -97.0248
   XY=            -12.0711   XZ=             -5.4974   YZ=             -1.0759

 Normal termination of Gaussian 16 at Thu May  6 00:58:37 2021.
