 Gaussian 16, Revision A.03,
 Gaussian 16:  EM64L-G16RevA.03 25-Dec-2016

 -------------
 #p 6-31g* mp2
 -------------

 ------------------------------------------------------
 Input file generated by CHIRIPA (05-May-2021 14:51:12)
 ------------------------------------------------------
 Symbolic Z-matrix:
 Charge =  0 Multiplicity = 1

                         Standard orientation:
 ---------------------------------------------------------------------
 Center     Atomic      Atomic             Coordinates (Angstroms)
 Number     Number       Type             X           Y           Z
 ---------------------------------------------------------------------
      1          6           0        3.284108   -0.127264    0.074764
      2          6           0        4.402315   -0.356293   -0.942656
      3          6           0        5.349464    0.838345   -1.059025
      4          1           0        2.714514    0.767583   -0.211165
      5          1           0        3.729164    0.085982    1.056521
      6          1           0        3.955273   -0.570409   -1.921902
      7          1           0        4.969194   -1.250810   -0.654377
      8          1           0        5.822405    1.050372   -0.094674
      9          1           0        4.802723    1.734639   -1.369401
     10          1           0        6.141128    0.653141   -1.791710
     11          6           0        2.329043   -1.312713    0.202398
     12          6           0        1.210835   -1.083684    1.219818
     13          6           0        0.263686   -2.278323    1.336187
     14          1           0        1.883987   -1.525960   -0.779358
     15          1           0        2.898637   -2.207561    0.488327
     16          1           0        0.643957   -0.189168    0.931539
     17          1           0        1.657877   -0.869568    2.199064
     18          1           0        0.810427   -3.174616    1.646564
     19          1           0       -0.209254   -2.490350    0.371836
     20          1           0       -0.527977   -2.093119    2.068873
     21          6           0       -2.151998    1.095808   -0.255715
     22          6           0       -1.814341    2.087294    0.858255
     23          6           0       -0.501983    2.831392    0.609603
     24          1           0       -1.331509    0.371978   -0.354764
     25          1           0       -2.210416    1.634784   -1.211481
     26          1           0       -1.757941    1.546832    1.811846
     27          1           0       -2.635816    2.808732    0.954792
     28          1           0       -0.550557    3.395534   -0.327406
     29          1           0        0.332306    2.126463    0.534518
     30          1           0       -0.279971    3.534929    1.418062
     31          6           0       -3.461152    0.344170   -0.021447
     32          6           0       -3.798809   -0.647316   -1.135417
     33          6           0       -5.111168   -1.391414   -0.886765
     34          1           0       -3.402735   -0.194806    0.934319
     35          1           0       -4.281642    1.068000    0.077602
     36          1           0       -2.977334   -1.368754   -1.231954
     37          1           0       -3.855209   -0.106855   -2.089009
     38          1           0       -5.945457   -0.686486   -0.811680
     39          1           0       -5.062594   -1.955556    0.050244
     40          1           0       -5.333179   -2.094952   -1.695225
 ---------------------------------------------------------------------

 SCF Done:  E(RHF) =  -470.732729510     A.U. after   11 cycles
 E2 =    -0.1584484348D+01 EUMP2 =    -0.47231721385847D+03

 The electronic state is 1-A.
 Alpha  occ. eigenvalues --  -11.21637 -11.21620 -11.21619 -11.21608 -11.21447
 Alpha  occ. eigenvalues --  -11.21410 -11.21387 -11.21350 -11.21164 -11.21077
 Alpha  occ. eigenvalues --  -11.21073 -11.21068  -1.08504  -1.08418  -1.03602
 Alpha  occ. eigenvalues --   -1.03519  -0.96031  -0.95983  -0.87040  -0.87008
 Alpha  occ. eigenvalues --   -0.79677  -0.79579  -0.78352  -0.78202  -0.65394
 Alpha  occ. eigenvalues --   -0.64852  -0.61172  -0.60754  -0.59407  -0.59328
 Alpha  occ. eigenvalues --   -0.57641  -0.57595  -0.55396  -0.55209  -0.52723
 Alpha  occ. eigenvalues --   -0.52683  -0.52446  -0.52417  -0.49985  -0.49930
 Alpha  occ. eigenvalues --   -0.48074  -0.47878  -0.46896  -0.46533  -0.46046
 Alpha  occ. eigenvalues --   -0.45778  -0.45750  -0.45251  -0.43823  -0.43793
 Alpha virt. eigenvalues --    0.19682   0.22478   0.23509   0.24582   0.25398
 Alpha virt. eigenvalues --    0.26462   0.26531   0.27750   0.28903   0.29728
 Alpha virt. eigenvalues --    0.30940   0.31466   0.31658   0.31906   0.32005

 Mulliken charges:
               1
     1  C   -0.301869
     2  C   -0.299624
     3  C   -0.475829
     4  H    0.152621
     5  H    0.149780
     6  H    0.152085
     7  H    0.152079
     8  H    0.155229
     9  H    0.155606
    10  H    0.160290
    11  C   -0.297987
    12  C   -0.311361
    13  C   -0.476193
    14  H    0.149310
    15  H    0.150041
    16  H    0.162869
    17  H    0.152455
    18  H    0.155974
    19  H    0.155148
    20  H    0.160007
    21  C   -0.303809
    22  C   -0.300021
    23  C   -0.482731
    24  H    0.154136
    25  H    0.149424
    26  H    0.152493
    27  H    0.152559
    28  H    0.155063
    29  H    0.160659
    30  H    0.160871
    31  C   -0.297762
    32  C   -0.300181
    33  C   -0.475742
    34  H    0.149979
    35  H    0.149634
    36  H    0.152143
    37  H    0.151774
    38  H    0.155140
    39  H    0.155513
    40  H    0.160227
 Sum of Mulliken charges =  -0.00000

 Dipole moment (field-independent basis, Debye):
    X=              0.0150    Y=             -0.0021    Z=              0.0076  Tot=              0.0169
 Quadrupole moment (field-independent basis, Debye-Ang):
   XX=            -85.5635   YY=            -85.0971   ZZ=            -84.0289
   XY=             -1.7796   XZ=              0.8627   YZ=             -0.4859

 Normal termination of Gaussian 16 at Wed May  5 23:08:05 2021.
