 Gaussian 16, Revision A.03,
 Gaussian 16:  EM64L-G16RevA.03 25-Dec-2016

 -------------
 #p 6-31g* mp2
 -------------

 ------------------------------------------------------
 Input file generated by CHIRIPA (05-May-2021 14:53:16)
 ------------------------------------------------------
 Symbolic Z-matrix:
 Charge =  0 Multiplicity = 1

                         Standard orientation:
 ---------------------------------------------------------------------
 Center     Atomic      Atomic             Coordinates (Angstroms)
 Number     Number       Type             X           Y           Z
 ---------------------------------------------------------------------
      1          6           0       -4.275974    0.205573    0.336644
      2          6           0       -5.073305   -0.795291   -0.500328
      3          6           0       -6.248422   -1.403167    0.266078
      4          1           0       -3.905579   -0.295610    1.241391
      5          1           0       -4.947462    1.006537    0.675694
      6          1           0       -4.400219   -1.593396   -0.838852
      7          1           0       -5.441684   -0.291717   -1.403282
      8          1           0       -6.942521   -0.621179    0.590613
      9          1           0       -5.895139   -1.930255    1.158250
     10          1           0       -6.804615   -2.115738   -0.350974
     11          6           0       -3.097936    0.821842   -0.415797
     12          6           0       -2.300605    1.822705    0.421175
     13          6           0       -1.125488    2.430582   -0.345231
     14          1           0       -2.426448    0.020878   -0.754847
     15          1           0       -3.468331    1.323025   -1.320544
     16          1           0       -1.932227    1.319132    1.324129
     17          1           0       -2.973691    2.620811    0.759699
     18          1           0       -1.478771    2.957669   -1.237403
     19          1           0       -0.431389    1.648594   -0.669766
     20          1           0       -0.569295    3.143152    0.271821
     21          6           0        5.336970    0.170488   -0.035218
     22          6           0        4.665911    0.106451    1.190384
     23          6           0        3.304885   -0.209449    1.238993
     24          6           0        2.642945   -0.456615    0.037313
     25          6           0        3.283716   -0.400542   -1.199440
     26          6           0        4.644950   -0.082766   -1.224123
     27          1           0        6.394328    0.416616   -0.063686
     28          1           0        5.200796    0.302655    2.115288
     29          1           0        2.760827   -0.265844    2.173999
     30          1           0        2.723683   -0.601153   -2.104721
     31          1           0        5.163530   -0.033749   -2.177390
     32          7           0        1.201978   -0.792037    0.076108
     33          8           0        0.641463   -1.005548   -0.996679
     34          8           0        0.660347   -0.835081    1.178569
 ---------------------------------------------------------------------

 SCF Done:  E(RHF) =  -669.536849529     A.U. after   15 cycles
 E2 =    -0.2092167593D+01 EUMP2 =    -0.67162901712134D+03

 The electronic state is 1-A.
 Alpha  occ. eigenvalues --  -20.61121 -20.61116 -15.86105 -11.31357 -11.27911
 Alpha  occ. eigenvalues --  -11.27908 -11.27640 -11.26902 -11.26892 -11.20523
 Alpha  occ. eigenvalues --  -11.20262 -11.20188 -11.20142 -11.19960 -11.19859
 Alpha  occ. eigenvalues --   -1.60159  -1.39715  -1.19518  -1.08939  -1.07150
 Alpha  occ. eigenvalues --   -1.04903  -1.02371  -0.95792  -0.94845  -0.86308
 Alpha  occ. eigenvalues --   -0.85872  -0.82630  -0.78450  -0.77693  -0.76940
 Alpha  occ. eigenvalues --   -0.72329  -0.71485  -0.70630  -0.65175  -0.64909
 Alpha  occ. eigenvalues --   -0.63749  -0.62251  -0.59750  -0.58223  -0.56458
 Alpha  occ. eigenvalues --   -0.55413  -0.54121  -0.53233  -0.52995  -0.51602
 Alpha  occ. eigenvalues --   -0.51280  -0.49114  -0.49097  -0.48781  -0.46773
 Alpha  occ. eigenvalues --   -0.45572  -0.45065  -0.44503  -0.44247  -0.42598
 Alpha  occ. eigenvalues --   -0.37492  -0.36498
 Alpha virt. eigenvalues --    0.04794   0.11156   0.16272   0.21280   0.24152
 Alpha virt. eigenvalues --    0.25369   0.27216   0.27825   0.28311   0.28761
 Alpha virt. eigenvalues --    0.29022   0.30840   0.32253   0.32575   0.32861

 Mulliken charges:
               1
     1  C   -0.298050
     2  C   -0.299534
     3  C   -0.475092
     4  H    0.153027
     5  H    0.143630
     6  H    0.156043
     7  H    0.148518
     8  H    0.152366
     9  H    0.155109
    10  H    0.157093
    11  C   -0.304601
    12  C   -0.298540
    13  C   -0.479683
    14  H    0.171811
    15  H    0.142023
    16  H    0.161392
    17  H    0.143977
    18  H    0.150293
    19  H    0.161284
    20  H    0.151917
    21  C   -0.170234
    22  C   -0.218658
    23  C   -0.170308
    24  C    0.158127
    25  C   -0.170518
    26  C   -0.218598
    27  H    0.226292
    28  H    0.224069
    29  H    0.275911
    30  H    0.276160
    31  H    0.224147
    32  N    0.487693
    33  O   -0.458945
    34  O   -0.458123
 Sum of Mulliken charges =  -0.00000

 Dipole moment (field-independent basis, Debye):
    X=              5.4331    Y=              0.9516    Z=             -0.1112  Tot=              5.5170
 Quadrupole moment (field-independent basis, Debye-Ang):
   XX=            -69.9934   YY=            -97.1576   ZZ=            -89.8326
   XY=              0.3611   XZ=              0.3924   YZ=              0.5903

 Normal termination of Gaussian 16 at Thu May  6 02:44:04 2021.
