 Gaussian 16, Revision A.03,
 Gaussian 16:  EM64L-G16RevA.03 25-Dec-2016

 -------------
 #p 6-31g* mp2
 -------------

 ------------------------------------------------------
 Input file generated by CHIRIPA (05-May-2021 14:55:24)
 ------------------------------------------------------
 Symbolic Z-matrix:
 Charge =  0 Multiplicity = 1

                         Standard orientation:
 ---------------------------------------------------------------------
 Center     Atomic      Atomic             Coordinates (Angstroms)
 Number     Number       Type             X           Y           Z
 ---------------------------------------------------------------------
      1          6           0       -1.364636    0.757217    2.458335
      2          6           0       -2.429995    1.221759    1.680048
      3          6           0       -2.758271    0.590519    0.476586
      4          6           0       -1.996618   -0.507555    0.079840
      5          6           0       -0.929367   -0.994041    0.833229
      6          6           0       -0.619036   -0.347254    2.033191
      7          1           0       -1.116594    1.253618    3.391853
      8          1           0       -3.010776    2.079289    2.007738
      9          1           0       -3.577912    0.929283   -0.145383
     10          1           0       -0.368731   -1.851147    0.480419
     11          1           0        0.208873   -0.710211    2.635581
     12          7           0       -2.334650   -1.184051   -1.192359
     13          8           0       -1.648170   -2.149533   -1.519814
     14          8           0       -3.279678   -0.735996   -1.837964
     15          6           0        2.484442   -0.216254   -0.124820
     16          6           0        3.888129   -0.794212    0.058519
     17          6           0        3.871788   -2.241766    0.550570
     18          1           0        1.943284   -0.274555    0.829482
     19          1           0        1.928644   -0.840665   -0.837978
     20          1           0        4.441577   -0.168104    0.770066
     21          1           0        4.426074   -0.734353   -0.896284
     22          1           0        3.343234   -2.884526   -0.160832
     23          1           0        3.358825   -2.315059    1.514985
     24          1           0        4.885577   -2.635040    0.674777
     25          6           0        2.484279    1.230170   -0.616334
     26          6           0        1.080591    1.808128   -0.799672
     27          6           0        1.096933    3.255681   -1.291723
     28          1           0        3.040076    1.854580    0.096825
     29          1           0        3.025436    1.288471   -1.570637
     30          1           0        0.542646    1.748268    0.155130
     31          1           0        0.527143    1.182019   -1.511220
     32          1           0        1.609896    3.328974   -2.256140
     33          1           0        1.625487    3.898440   -0.580322
     34          1           0        0.083144    3.648954   -1.415931
 ---------------------------------------------------------------------

 SCF Done:  E(RHF) =  -669.533508777     A.U. after   15 cycles
 E2 =    -0.2096253894D+01 EUMP2 =    -0.67162976267148D+03

 The electronic state is 1-A.
 Alpha  occ. eigenvalues --  -20.60816 -20.60810 -15.85866 -11.31202 -11.27806
 Alpha  occ. eigenvalues --  -11.27752 -11.27562 -11.26830 -11.26782 -11.21866
 Alpha  occ. eigenvalues --  -11.21625 -11.21555 -11.21495 -11.21438 -11.21117
 Alpha  occ. eigenvalues --   -1.59889  -1.39443  -1.19414  -1.08816  -1.08624
 Alpha  occ. eigenvalues --   -1.04817  -1.03704  -0.96183  -0.95639  -0.87198
 Alpha  occ. eigenvalues --   -0.86214  -0.82488  -0.79783  -0.78512  -0.77480
 Alpha  occ. eigenvalues --   -0.72086  -0.71209  -0.70519  -0.65342  -0.65043
 Alpha  occ. eigenvalues --   -0.64787  -0.62175  -0.61104  -0.59559  -0.57789
 Alpha  occ. eigenvalues --   -0.55486  -0.55324  -0.53381  -0.52915  -0.52740
 Alpha  occ. eigenvalues --   -0.52605  -0.50126  -0.48844  -0.48840  -0.48075
 Alpha  occ. eigenvalues --   -0.46807  -0.45930  -0.45861  -0.44841  -0.43958
 Alpha  occ. eigenvalues --   -0.37370  -0.36276
 Alpha virt. eigenvalues --    0.05005   0.11134   0.16378   0.20324   0.22986
 Alpha virt. eigenvalues --    0.23839   0.25737   0.26318   0.27861   0.28290
 Alpha virt. eigenvalues --    0.29193   0.29975   0.31313   0.31727   0.32077

 Mulliken charges:
               1
     1  C   -0.172880
     2  C   -0.218093
     3  C   -0.171099
     4  C    0.160066
     5  C   -0.162945
     6  C   -0.220342
     7  H    0.225879
     8  H    0.223795
     9  H    0.275752
    10  H    0.277575
    11  H    0.223325
    12  N    0.487795
    13  O   -0.461086
    14  O   -0.460311
    15  C   -0.304887
    16  C   -0.298948
    17  C   -0.476529
    18  H    0.143318
    19  H    0.155883
    20  H    0.150408
    21  H    0.155323
    22  H    0.159506
    23  H    0.146636
    24  H    0.162888
    25  C   -0.296962
    26  C   -0.306717
    27  C   -0.475150
    28  H    0.146604
    29  H    0.151942
    30  H    0.157368
    31  H    0.153742
    32  H    0.156737
    33  H    0.152079
    34  H    0.159329
 Sum of Mulliken charges =  -0.00000

 Dipole moment (field-independent basis, Debye):
    X=              1.1294    Y=              2.3372    Z=              4.4174  Tot=              5.1237
 Quadrupole moment (field-independent basis, Debye-Ang):
   XX=            -97.0946   YY=            -96.7237   ZZ=            -93.7674
   XY=             -8.2151   XZ=             -8.6467   YZ=             -1.7752

 Normal termination of Gaussian 16 at Thu May  6 03:09:40 2021.
