 Gaussian 16, Revision A.03,
 Gaussian 16:  EM64L-G16RevA.03 25-Dec-2016

 -------------
 #p 6-31g* mp2
 -------------

 ------------------------------------------------------
 Input file generated by CHIRIPA (05-May-2021 14:53:13)
 ------------------------------------------------------
 Symbolic Z-matrix:
 Charge =  0 Multiplicity = 1

                         Standard orientation:
 ---------------------------------------------------------------------
 Center     Atomic      Atomic             Coordinates (Angstroms)
 Number     Number       Type             X           Y           Z
 ---------------------------------------------------------------------
      1          6           0        3.134913   -0.449130    0.034464
      2          6           0        3.838219   -1.571911   -0.728891
      3          6           0        3.480321   -2.960998   -0.199609
      4          1           0        3.398771   -0.516741    1.098773
      5          1           0        2.047968   -0.597543   -0.028137
      6          1           0        4.923477   -1.420654   -0.666034
      7          1           0        3.572808   -1.501502   -1.791536
      8          1           0        2.402572   -3.137035   -0.277517
      9          1           0        3.760916   -3.055727    0.854380
     10          1           0        3.994078   -3.748626   -0.759570
     11          6           0        3.482635    0.945518   -0.483005
     12          6           0        2.779330    2.068298    0.280350
     13          6           0        3.137228    3.457386   -0.248932
     14          1           0        4.569580    1.093930   -0.420405
     15          1           0        3.218777    1.013129   -1.547314
     16          1           0        3.044741    1.997890    1.342995
     17          1           0        1.694071    1.917041    0.217493
     18          1           0        2.856632    3.552115   -1.302922
     19          1           0        4.214976    3.633423   -0.171025
     20          1           0        2.623470    4.245013    0.311029
     21          6           0       -4.742196    0.728656   -0.752813
     22          6           0       -4.431367   -0.625090   -0.917979
     23          6           0       -3.238936   -1.147144   -0.407962
     24          6           0       -2.376428   -0.283091    0.264929
     25          6           0       -2.657901    1.070198    0.445685
     26          6           0       -3.856034    1.570494   -0.072708
     27          1           0       -5.670719    1.125749   -1.152259
     28          1           0       -5.117687   -1.281214   -1.445722
     29          1           0       -2.973409   -2.191180   -0.521536
     30          1           0       -1.953866    1.699591    0.976361
     31          1           0       -4.094818    2.622249    0.057061
     32          7           0       -1.111037   -0.824249    0.809295
     33          8           0       -0.367949   -0.042196    1.398234
     34          8           0       -0.886272   -2.020216    0.636722
 ---------------------------------------------------------------------

 SCF Done:  E(RHF) =  -669.536437050     A.U. after   15 cycles
 E2 =    -0.2092239901D+01 EUMP2 =    -0.67162867695064D+03

 The electronic state is 1-A.
 Alpha  occ. eigenvalues --  -20.61104 -20.61095 -15.86097 -11.31383 -11.27937
 Alpha  occ. eigenvalues --  -11.27934 -11.27666 -11.26932 -11.26923 -11.20514
 Alpha  occ. eigenvalues --  -11.20364 -11.20352 -11.20267 -11.19796 -11.19717
 Alpha  occ. eigenvalues --   -1.60143  -1.39699  -1.19545  -1.08957  -1.07195
 Alpha  occ. eigenvalues --   -1.04932  -1.02398  -0.95803  -0.94850  -0.86335
 Alpha  occ. eigenvalues --   -0.85863  -0.82639  -0.78457  -0.77698  -0.76938
 Alpha  occ. eigenvalues --   -0.72307  -0.71455  -0.70651  -0.65199  -0.64934
 Alpha  occ. eigenvalues --   -0.63841  -0.62279  -0.59811  -0.58241  -0.56446
 Alpha  occ. eigenvalues --   -0.55438  -0.54148  -0.53268  -0.53022  -0.51599
 Alpha  occ. eigenvalues --   -0.51259  -0.49140  -0.49089  -0.48736  -0.46768
 Alpha  occ. eigenvalues --   -0.45559  -0.45171  -0.44507  -0.44175  -0.42615
 Alpha  occ. eigenvalues --   -0.37518  -0.36531
 Alpha virt. eigenvalues --    0.04762   0.11121   0.16246   0.21194   0.23984
 Alpha virt. eigenvalues --    0.25315   0.26994   0.27554   0.28098   0.29007
 Alpha virt. eigenvalues --    0.29130   0.30969   0.31808   0.32582   0.32680

 Mulliken charges:
               1
     1  C   -0.300757
     2  C   -0.298922
     3  C   -0.477167
     4  H    0.150362
     5  H    0.167508
     6  H    0.145944
     7  H    0.145853
     8  H    0.167194
     9  H    0.154433
    10  H    0.152533
    11  C   -0.298376
    12  C   -0.299614
    13  C   -0.475194
    14  H    0.144579
    15  H    0.143361
    16  H    0.153108
    17  H    0.158496
    18  H    0.150938
    19  H    0.153297
    20  H    0.155218
    21  C   -0.170367
    22  C   -0.218598
    23  C   -0.170794
    24  C    0.158825
    25  C   -0.171069
    26  C   -0.218542
    27  H    0.226386
    28  H    0.224163
    29  H    0.275992
    30  H    0.276349
    31  H    0.224304
    32  N    0.487495
    33  O   -0.457508
    34  O   -0.459431
 Sum of Mulliken charges =  -0.00000

 Dipole moment (field-independent basis, Debye):
    X=             -4.8730    Y=              1.7895    Z=             -1.7514  Tot=              5.4787
 Quadrupole moment (field-independent basis, Debye-Ang):
   XX=            -74.4972   YY=            -93.7116   ZZ=            -95.6992
   XY=             -2.4281   XZ=              5.1808   YZ=              3.1953

 Normal termination of Gaussian 16 at Thu May  6 12:04:54 2021.
