 Gaussian 16, Revision A.03,
 Gaussian 16:  EM64L-G16RevA.03 25-Dec-2016

 -------------
 #p 6-31g* mp2
 -------------

 ------------------------------------------------------
 Input file generated by CHIRIPA (05-May-2021 14:53:11)
 ------------------------------------------------------
 Symbolic Z-matrix:
 Charge =  0 Multiplicity = 1

                         Standard orientation:
 ---------------------------------------------------------------------
 Center     Atomic      Atomic             Coordinates (Angstroms)
 Number     Number       Type             X           Y           Z
 ---------------------------------------------------------------------
      1          6           0        3.818671    0.424720    0.172655
      2          6           0        4.932636    0.030389   -0.797690
      3          6           0        5.779485    1.223435   -1.241854
      4          1           0        3.174557    1.176081   -0.304335
      5          1           0        4.263352    0.908124    1.053549
      6          1           0        4.486091   -0.453372   -1.675864
      7          1           0        5.574060   -0.720262   -0.318406
      8          1           0        6.251735    1.703333   -0.378559
      9          1           0        5.157584    1.971740   -1.743730
     10          1           0        6.569751    0.918902   -1.935108
     11          6           0        2.963408   -0.757211    0.625747
     12          6           0        1.849443   -0.362881    1.596092
     13          6           0        1.002593   -1.555926    2.040256
     14          1           0        2.518727   -1.240616   -0.255147
     15          1           0        3.607521   -1.508573    1.102737
     16          1           0        1.208019    0.387771    1.116808
     17          1           0        2.295988    0.120880    2.474266
     18          1           0        1.624495   -2.304231    2.542132
     19          1           0        0.530344   -2.035824    1.176961
     20          1           0        0.212327   -1.251394    2.733509
     21          6           0       -2.209639   -2.254300   -1.010698
     22          6           0       -1.153232   -1.340515   -0.936382
     23          6           0       -1.385138   -0.016976   -0.550360
     24          6           0       -2.691749    0.360373   -0.244317
     25          6           0       -3.765234   -0.526619   -0.308862
     26          6           0       -3.509976   -1.845157   -0.697253
     27          1           0       -2.020418   -3.280514   -1.311489
     28          1           0       -0.142351   -1.655460   -1.179228
     29          1           0       -0.585798    0.711123   -0.484446
     30          1           0       -4.762157   -0.183146   -0.060689
     31          1           0       -4.332334   -2.552648   -0.754091
     32          7           0       -2.949618    1.758897    0.165603
     33          8           0       -4.109841    2.066420    0.430085
     34          8           0       -1.986631    2.521057    0.214652
 ---------------------------------------------------------------------

 SCF Done:  E(RHF) =  -669.533832593     A.U. after   15 cycles
 E2 =    -0.2093963099D+01 EUMP2 =    -0.67162779569129D+03

 The electronic state is 1-A.
 Alpha  occ. eigenvalues --  -20.60797 -20.60792 -15.85850 -11.31223 -11.27780
 Alpha  occ. eigenvalues --  -11.27775 -11.27530 -11.26808 -11.26797 -11.22060
 Alpha  occ. eigenvalues --  -11.21982 -11.21960 -11.21774 -11.21398 -11.21305
 Alpha  occ. eigenvalues --   -1.59871  -1.39425  -1.19401  -1.08900  -1.08790
 Alpha  occ. eigenvalues --   -1.04827  -1.03909  -0.96364  -0.95624  -0.87382
 Alpha  occ. eigenvalues --   -0.86211  -0.82464  -0.79985  -0.78705  -0.77519
 Alpha  occ. eigenvalues --   -0.72069  -0.71194  -0.70515  -0.65605  -0.65040
 Alpha  occ. eigenvalues --   -0.64836  -0.62309  -0.61173  -0.59721  -0.57968
 Alpha  occ. eigenvalues --   -0.55745  -0.55291  -0.53152  -0.53022  -0.52913
 Alpha  occ. eigenvalues --   -0.52735  -0.50291  -0.48832  -0.48824  -0.48279
 Alpha  occ. eigenvalues --   -0.47017  -0.46227  -0.46172  -0.44827  -0.44187
 Alpha  occ. eigenvalues --   -0.37362  -0.36330
 Alpha virt. eigenvalues --    0.05007   0.11115   0.16434   0.19022   0.23003
 Alpha virt. eigenvalues --    0.24052   0.25098   0.25404   0.27637   0.28488
 Alpha virt. eigenvalues --    0.29633   0.30018   0.31466   0.31510   0.32167

 Mulliken charges:
               1
     1  C   -0.298575
     2  C   -0.299599
     3  C   -0.476129
     4  H    0.150104
     5  H    0.153555
     6  H    0.149236
     7  H    0.152532
     8  H    0.156865
     9  H    0.156769
    10  H    0.160848
    11  C   -0.299426
    12  C   -0.305543
    13  C   -0.476744
    14  H    0.138705
    15  H    0.152723
    16  H    0.151781
    17  H    0.158357
    18  H    0.154763
    19  H    0.150962
    20  H    0.164927
    21  C   -0.172164
    22  C   -0.220341
    23  C   -0.170766
    24  C    0.158373
    25  C   -0.170916
    26  C   -0.217957
    27  H    0.226154
    28  H    0.226935
    29  H    0.278077
    30  H    0.275705
    31  H    0.223682
    32  N    0.487965
    33  O   -0.460163
    34  O   -0.460695
 Sum of Mulliken charges =  -0.00000

 Dipole moment (field-independent basis, Debye):
    X=              0.9465    Y=             -4.8666    Z=             -1.3685  Tot=              5.1432
 Quadrupole moment (field-independent basis, Debye-Ang):
   XX=            -94.4434   YY=            -99.3503   ZZ=            -94.2253
   XY=             14.5922   XZ=              4.1241   YZ=              0.8398

 Normal termination of Gaussian 16 at Thu May  6 02:29:19 2021.
