 Gaussian 16, Revision A.03,
 Gaussian 16:  EM64L-G16RevA.03 25-Dec-2016

 -------------
 #p 6-31g* mp2
 -------------

 ------------------------------------------------------
 Input file generated by CHIRIPA (05-May-2021 14:53:12)
 ------------------------------------------------------
 Symbolic Z-matrix:
 Charge =  0 Multiplicity = 1

                         Standard orientation:
 ---------------------------------------------------------------------
 Center     Atomic      Atomic             Coordinates (Angstroms)
 Number     Number       Type             X           Y           Z
 ---------------------------------------------------------------------
      1          6           0        3.854735    0.559094   -0.421697
      2          6           0        3.961625    1.987856    0.112344
      3          6           0        4.525491    2.964304   -0.920321
      4          1           0        4.848460    0.219905   -0.744818
      5          1           0        3.217225    0.556337   -1.316666
      6          1           0        4.597620    1.987700    1.006841
      7          1           0        2.967564    2.323613    0.434408
      8          1           0        3.888620    2.994058   -1.810327
      9          1           0        5.527937    2.656236   -1.234641
     10          1           0        4.593308    3.979714   -0.517576
     11          6           0        3.292692   -0.428743    0.599094
     12          6           0        3.185801   -1.857504    0.065053
     13          6           0        2.621935   -2.833953    1.097717
     14          1           0        3.930201   -0.425985    1.494062
     15          1           0        2.298967   -0.089554    0.922214
     16          1           0        4.179862   -2.193262   -0.257012
     17          1           0        2.549806   -1.857349   -0.829445
     18          1           0        1.619489   -2.525885    1.412037
     19          1           0        3.258807   -2.863707    1.987723
     20          1           0        2.554118   -3.849363    0.694972
     21          6           0       -4.437833    1.702194    0.694663
     22          6           0       -3.265893    1.477043    1.424311
     23          6           0       -2.346854    0.508258    1.010343
     24          6           0       -2.632847   -0.220404   -0.143152
     25          6           0       -3.791653   -0.019380   -0.891517
     26          6           0       -4.696516    0.954582   -0.458888
     27          1           0       -5.146259    2.456781    1.023491
     28          1           0       -3.062384    2.056149    2.320561
     29          1           0       -1.431789    0.313393    1.556331
     30          1           0       -3.966980   -0.612454   -1.780866
     31          1           0       -5.605844    1.127283   -1.027522
     32          7           0       -1.667404   -1.248752   -0.591278
     33          8           0       -1.942617   -1.877371   -1.610951
     34          8           0       -0.653758   -1.406682    0.085638
 ---------------------------------------------------------------------

 SCF Done:  E(RHF) =  -669.536288648     A.U. after   15 cycles
 E2 =    -0.2091402532D+01 EUMP2 =    -0.67162769118033D+03

 The electronic state is 1-A.
 Alpha  occ. eigenvalues --  -20.61028 -20.61019 -15.86060 -11.31349 -11.27911
 Alpha  occ. eigenvalues --  -11.27904 -11.27639 -11.26909 -11.26899 -11.21110
 Alpha  occ. eigenvalues --  -11.20689 -11.20620 -11.20361 -11.20228 -11.19543
 Alpha  occ. eigenvalues --   -1.60083  -1.39641  -1.19514  -1.08923  -1.07534
 Alpha  occ. eigenvalues --   -1.04906  -1.02575  -0.95772  -0.95040  -0.86308
 Alpha  occ. eigenvalues --   -0.86070  -0.82608  -0.78716  -0.77670  -0.77286
 Alpha  occ. eigenvalues --   -0.72295  -0.71395  -0.70623  -0.65177  -0.64909
 Alpha  occ. eigenvalues --   -0.64145  -0.62255  -0.59933  -0.58489  -0.56643
 Alpha  occ. eigenvalues --   -0.55411  -0.54309  -0.53239  -0.52997  -0.51762
 Alpha  occ. eigenvalues --   -0.51479  -0.49124  -0.49038  -0.48884  -0.47012
 Alpha  occ. eigenvalues --   -0.45758  -0.45055  -0.44828  -0.44685  -0.42854
 Alpha  occ. eigenvalues --   -0.37491  -0.36506
 Alpha virt. eigenvalues --    0.04850   0.11148   0.16345   0.21113   0.23589
 Alpha virt. eigenvalues --    0.25097   0.26635   0.27428   0.28081   0.28742
 Alpha virt. eigenvalues --    0.28999   0.30827   0.31882   0.32496   0.32705

 Mulliken charges:
               1
     1  C   -0.298108
     2  C   -0.298168
     3  C   -0.475083
     4  H    0.147811
     5  H    0.151128
     6  H    0.150160
     7  H    0.147847
     8  H    0.154712
     9  H    0.155087
    10  H    0.157092
    11  C   -0.298556
    12  C   -0.297025
    13  C   -0.479356
    14  H    0.143649
    15  H    0.152344
    16  H    0.144179
    17  H    0.163576
    18  H    0.173226
    19  H    0.143994
    20  H    0.157687
    21  C   -0.170496
    22  C   -0.218504
    23  C   -0.170828
    24  C    0.157455
    25  C   -0.170537
    26  C   -0.218563
    27  H    0.226255
    28  H    0.224181
    29  H    0.275443
    30  H    0.275974
    31  H    0.224031
    32  N    0.494764
    33  O   -0.458283
    34  O   -0.467085
 Sum of Mulliken charges =  -0.00000

 Dipole moment (field-independent basis, Debye):
    X=             -3.7590    Y=              3.5536    Z=              1.4952  Tot=              5.3846
 Quadrupole moment (field-independent basis, Debye-Ang):
   XX=            -75.8232   YY=            -97.8559   ZZ=            -92.9222
   XY=             -8.8291   XZ=             -0.8050   YZ=              0.8742

 Normal termination of Gaussian 16 at Thu May  6 07:20:40 2021.
