 Gaussian 16, Revision A.03,
 Gaussian 16:  EM64L-G16RevA.03 25-Dec-2016

 -------------
 #p 6-31g* mp2
 -------------

 ------------------------------------------------------
 Input file generated by CHIRIPA (05-May-2021 14:55:21)
 ------------------------------------------------------
 Symbolic Z-matrix:
 Charge =  0 Multiplicity = 1

                         Standard orientation:
 ---------------------------------------------------------------------
 Center     Atomic      Atomic             Coordinates (Angstroms)
 Number     Number       Type             X           Y           Z
 ---------------------------------------------------------------------
      1          6           0       -4.132918    0.699709   -1.614119
      2          6           0       -3.354204    1.497589   -0.769422
      3          6           0       -2.529096    0.914199    0.196705
      4          6           0       -2.507023   -0.476454    0.290978
      5          6           0       -3.271162   -1.298366   -0.535971
      6          6           0       -4.088989   -0.693266   -1.494908
      7          1           0       -4.771054    1.161333   -2.361837
      8          1           0       -3.386314    2.579651   -0.859737
      9          1           0       -1.915907    1.508098    0.863563
     10          1           0       -3.218010   -2.374292   -0.422063
     11          1           0       -4.692664   -1.315404   -2.149557
     12          7           0       -1.637372   -1.105555    1.309967
     13          8           0       -1.635776   -2.333023    1.372863
     14          8           0       -0.973803   -0.359264    2.026460
     15          6           0        3.648412   -0.236229   -0.062561
     16          6           0        4.716976   -0.637458   -1.079995
     17          6           0        5.219138   -2.067310   -0.877140
     18          1           0        4.058325   -0.342054    0.951203
     19          1           0        2.804017   -0.935833   -0.132892
     20          1           0        5.558503    0.063519   -1.008722
     21          1           0        4.304534   -0.530482   -2.091461
     22          1           0        4.394723   -2.781812   -0.968939
     23          1           0        5.655817   -2.184435    0.119952
     24          1           0        5.982346   -2.333271   -1.615136
     25          6           0        3.136489    1.190523   -0.252411
     26          6           0        2.067926    1.591751    0.765023
     27          6           0        1.565763    3.021603    0.562168
     28          1           0        3.980885    1.890126   -0.182081
     29          1           0        2.726577    1.296347   -1.266175
     30          1           0        2.480367    1.484776    1.776489
     31          1           0        1.226399    0.890774    0.693750
     32          1           0        1.129086    3.138729   -0.434925
     33          1           0        2.390179    3.736105    0.653967
     34          1           0        0.802555    3.287564    1.300164
 ---------------------------------------------------------------------

 SCF Done:  E(RHF) =  -669.536129751     A.U. after   15 cycles
 E2 =    -0.2091561894D+01 EUMP2 =    -0.67162769164544D+03

 The electronic state is 1-A.
 Alpha  occ. eigenvalues --  -20.60944 -20.60937 -15.85959 -11.31277 -11.27842
 Alpha  occ. eigenvalues --  -11.27828 -11.27576 -11.26849 -11.26834 -11.21149
 Alpha  occ. eigenvalues --  -11.20904 -11.20858 -11.20812 -11.20775 -11.20622
 Alpha  occ. eigenvalues --   -1.59999  -1.39556  -1.19446  -1.08853  -1.07896
 Alpha  occ. eigenvalues --   -1.04839  -1.03048  -0.95696  -0.95542  -0.86560
 Alpha  occ. eigenvalues --   -0.86240  -0.82528  -0.79084  -0.77707  -0.77547
 Alpha  occ. eigenvalues --   -0.72183  -0.71313  -0.70553  -0.65102  -0.64845
 Alpha  occ. eigenvalues --   -0.64530  -0.62189  -0.60451  -0.58898  -0.57129
 Alpha  occ. eigenvalues --   -0.55346  -0.54850  -0.53174  -0.52929  -0.52255
 Alpha  occ. eigenvalues --   -0.51955  -0.49494  -0.48955  -0.48942  -0.47418
 Alpha  occ. eigenvalues --   -0.46156  -0.45364  -0.45210  -0.44652  -0.43299
 Alpha  occ. eigenvalues --   -0.37427  -0.36440
 Alpha virt. eigenvalues --    0.04911   0.11178   0.16386   0.20882   0.23206
 Alpha virt. eigenvalues --    0.24180   0.26868   0.27256   0.27649   0.28178
 Alpha virt. eigenvalues --    0.29173   0.30580   0.31611   0.31833   0.32408

 Mulliken charges:
               1
     1  C   -0.170587
     2  C   -0.218967
     3  C   -0.172510
     4  C    0.157857
     5  C   -0.170914
     6  C   -0.218624
     7  H    0.225977
     8  H    0.224332
     9  H    0.278418
    10  H    0.275678
    11  H    0.223741
    12  N    0.487431
    13  O   -0.458912
    14  O   -0.458202
    15  C   -0.298081
    16  C   -0.299233
    17  C   -0.475492
    18  H    0.151884
    19  H    0.153413
    20  H    0.150247
    21  H    0.149318
    22  H    0.156504
    23  H    0.155979
    24  H    0.157924
    25  C   -0.298573
    26  C   -0.303662
    27  C   -0.477487
    28  H    0.146711
    29  H    0.144970
    30  H    0.155852
    31  H    0.164978
    32  H    0.148300
    33  H    0.154808
    34  H    0.156921
 Sum of Mulliken charges =  -0.00000

 Dipole moment (field-independent basis, Debye):
    X=             -3.1937    Y=              2.0815    Z=             -3.4779  Tot=              5.1602
 Quadrupole moment (field-independent basis, Debye-Ang):
   XX=            -79.5219   YY=            -94.2059   ZZ=            -96.6827
   XY=             -2.0593   XZ=              9.7373   YZ=              4.1473

 Normal termination of Gaussian 16 at Thu May  6 15:49:20 2021.
