 Gaussian 16, Revision A.03,
 Gaussian 16:  EM64L-G16RevA.03 25-Dec-2016

 -------------
 #p 6-31g* mp2
 -------------

 ------------------------------------------------------
 Input file generated by CHIRIPA (05-May-2021 14:51:09)
 ------------------------------------------------------
 Symbolic Z-matrix:
 Charge =  0 Multiplicity = 1

                         Standard orientation:
 ---------------------------------------------------------------------
 Center     Atomic      Atomic             Coordinates (Angstroms)
 Number     Number       Type             X           Y           Z
 ---------------------------------------------------------------------
      1          6           0       -3.507680   -0.226120   -0.359628
      2          6           0       -4.938980   -0.238192    0.178161
      3          6           0       -5.869980    0.693832   -0.597961
      4          1           0       -3.116980    0.799953   -0.321257
      5          1           0       -3.519068   -0.516824   -1.419231
      6          1           0       -4.924745    0.051108    1.236801
      7          1           0       -5.326251   -1.264389    0.138684
      8          1           0       -5.913896    0.403639   -1.652693
      9          1           0       -5.510109    1.726610   -0.548336
     10          1           0       -6.887978    0.669640   -0.196768
     11          6           0       -2.565015   -1.152923    0.405974
     12          6           0       -1.133714   -1.140851   -0.131816
     13          6           0       -0.202714   -2.072875    0.644306
     14          1           0       -2.553626   -0.862219    1.465576
     15          1           0       -2.955714   -2.178997    0.367603
     16          1           0       -0.746444   -0.114655   -0.092338
     17          1           0       -1.147949   -1.430151   -1.190456
     18          1           0       -0.562585   -3.105654    0.594682
     19          1           0       -0.158798   -1.782683    1.699038
     20          1           0        0.815283   -2.048683    0.243114
     21          6           0        2.354565    0.938700    0.214557
     22          6           0        2.137842    2.433201   -0.025197
     23          6           0        0.769355    2.916714    0.455688
     24          1           0        1.563727    0.373274   -0.297120
     25          1           0        2.246040    0.727021    1.287315
     26          1           0        2.248112    2.642225   -1.097002
     27          1           0        2.929398    2.995125    0.486952
     28          1           0        0.652669    2.736889    1.529303
     29          1           0       -0.032487    2.381983   -0.063651
     30          1           0        0.635595    3.987776    0.274591
     31          6           0        3.718129    0.440343   -0.260903
     32          6           0        3.934852   -1.054158   -0.021148
     33          6           0        5.303340   -1.537670   -0.502033
     34          1           0        3.826656    0.652023   -1.333661
     35          1           0        4.508967    1.005770    0.250775
     36          1           0        3.143297   -1.616082   -0.533298
     37          1           0        3.824582   -1.263181    1.050657
     38          1           0        6.105183   -1.002940    0.017306
     39          1           0        5.420025   -1.357846   -1.575648
     40          1           0        5.437100   -2.608732   -0.320936
 ---------------------------------------------------------------------

 SCF Done:  E(RHF) =  -470.732113422     A.U. after   11 cycles
 E2 =    -0.1584826962D+01 EUMP2 =    -0.47231694038419D+03

 The electronic state is 1-A.
 Alpha  occ. eigenvalues --  -11.21625 -11.21615 -11.21585 -11.21545 -11.21392
 Alpha  occ. eigenvalues --  -11.21384 -11.21322 -11.21309 -11.21128 -11.21083
 Alpha  occ. eigenvalues --  -11.21055 -11.20967  -1.08474  -1.08378  -1.03564
 Alpha  occ. eigenvalues --   -1.03495  -0.96022  -0.95928  -0.87021  -0.86962
 Alpha  occ. eigenvalues --   -0.79704  -0.79499  -0.78365  -0.78138  -0.65188
 Alpha  occ. eigenvalues --   -0.64957  -0.61053  -0.60816  -0.59389  -0.59313
 Alpha  occ. eigenvalues --   -0.57705  -0.57497  -0.55309  -0.55212  -0.52795
 Alpha  occ. eigenvalues --   -0.52580  -0.52436  -0.52352  -0.49951  -0.49888
 Alpha  occ. eigenvalues --   -0.48147  -0.47750  -0.46857  -0.46512  -0.45979
 Alpha  occ. eigenvalues --   -0.45741  -0.45725  -0.45210  -0.43812  -0.43704
 Alpha virt. eigenvalues --    0.21053   0.22578   0.23605   0.24009   0.25559
 Alpha virt. eigenvalues --    0.26256   0.26633   0.27352   0.28935   0.29279
 Alpha virt. eigenvalues --    0.30379   0.31446   0.31551   0.31898   0.32539

 Mulliken charges:
               1
     1  C   -0.298926
     2  C   -0.299592
     3  C   -0.475748
     4  H    0.149748
     5  H    0.149258
     6  H    0.152074
     7  H    0.151946
     8  H    0.155048
     9  H    0.155333
    10  H    0.160212
    11  C   -0.297296
    12  C   -0.308636
    13  C   -0.481555
    14  H    0.149691
    15  H    0.149535
    16  H    0.159833
    17  H    0.150583
    18  H    0.154536
    19  H    0.155087
    20  H    0.167164
    21  C   -0.306025
    22  C   -0.299427
    23  C   -0.479563
    24  H    0.159815
    25  H    0.149356
    26  H    0.151794
    27  H    0.151947
    28  H    0.155021
    29  H    0.157775
    30  H    0.160707
    31  C   -0.297820
    32  C   -0.303490
    33  C   -0.475358
    34  H    0.149181
    35  H    0.149569
    36  H    0.154516
    37  H    0.152781
    38  H    0.155333
    39  H    0.155138
    40  H    0.160458
 Sum of Mulliken charges =  -0.00000

 Dipole moment (field-independent basis, Debye):
    X=              0.0317    Y=              0.0078    Z=              0.0046  Tot=              0.0329
 Quadrupole moment (field-independent basis, Debye-Ang):
   XX=            -86.1492   YY=            -84.8717   ZZ=            -83.8236
   XY=              1.1725   XZ=              0.4238   YZ=              0.8245

 Normal termination of Gaussian 16 at Wed May  5 21:20:34 2021.
