 Gaussian 16, Revision A.03,
 Gaussian 16:  EM64L-G16RevA.03 25-Dec-2016

 -------------
 #p 6-31g* mp2
 -------------

 ------------------------------------------------------
 Input file generated by CHIRIPA (05-May-2021 14:53:17)
 ------------------------------------------------------
 Symbolic Z-matrix:
 Charge =  0 Multiplicity = 1

                         Standard orientation:
 ---------------------------------------------------------------------
 Center     Atomic      Atomic             Coordinates (Angstroms)
 Number     Number       Type             X           Y           Z
 ---------------------------------------------------------------------
      1          6           0        5.795474   -0.438563   -0.122900
      2          6           0        6.889586    0.614532   -0.301496
      3          6           0        8.254530    0.001436   -0.615874
      4          1           0        6.084987   -1.125702    0.683925
      5          1           0        5.725053   -1.042877   -1.037909
      6          1           0        6.956978    1.217573    0.613062
      7          1           0        6.597346    1.299359   -1.107861
      8          1           0        8.210077   -0.584635   -1.539533
      9          1           0        8.571752   -0.666886    0.191168
     10          1           0        9.021858    0.771993   -0.739608
     11          6           0        4.425173    0.158876    0.191853
     12          6           0        3.331062   -0.894219    0.370449
     13          6           0        1.966117   -0.281123    0.684827
     14          1           0        4.495595    0.763190    1.106861
     15          1           0        4.135661    0.846016   -0.614972
     16          1           0        3.623302   -1.579045    1.176814
     17          1           0        3.263669   -1.497260   -0.544109
     18          1           0        1.648895    0.387199   -0.122215
     19          1           0        2.010571    0.304949    1.608486
     20          1           0        1.198789   -1.051679    0.808561
     21          6           0       -6.371397   -0.625390   -0.435331
     22          6           0       -5.367440   -1.579929   -0.241822
     23          6           0       -4.045887   -1.184353   -0.014741
     24          6           0       -3.762452    0.180275    0.012548
     25          6           0       -4.740588    1.155319   -0.176738
     26          6           0       -6.055324    0.736785   -0.402229
     27          1           0       -7.395363   -0.941601   -0.611115
     28          1           0       -5.609994   -2.638503   -0.267003
     29          1           0       -3.249129   -1.902137    0.138165
     30          1           0       -4.468122    2.203288   -0.146090
     31          1           0       -6.832964    1.480314   -0.552186
     32          7           0       -2.366991    0.611205    0.252106
     33          8           0       -2.143183    1.819582    0.271466
     34          8           0       -1.523461   -0.267566    0.415978
 ---------------------------------------------------------------------

 SCF Done:  E(RHF) =  -669.535562013     A.U. after   15 cycles
 E2 =    -0.2090883800D+01 EUMP2 =    -0.67162644581261D+03

 The electronic state is 1-A.
 Alpha  occ. eigenvalues --  -20.60869 -20.60860 -15.85908 -11.31261 -11.27830
 Alpha  occ. eigenvalues --  -11.27825 -11.27570 -11.26843 -11.26833 -11.20946
 Alpha  occ. eigenvalues --  -11.20587 -11.20539 -11.20356 -11.20277 -11.19140
 Alpha  occ. eigenvalues --   -1.59931  -1.39487  -1.19432  -1.08830  -1.07487
 Alpha  occ. eigenvalues --   -1.04834  -1.02477  -0.95671  -0.94877  -0.86234
 Alpha  occ. eigenvalues --   -0.85878  -0.82501  -0.78571  -0.77550  -0.77256
 Alpha  occ. eigenvalues --   -0.72128  -0.71251  -0.70542  -0.65088  -0.64837
 Alpha  occ. eigenvalues --   -0.64134  -0.62181  -0.59890  -0.58331  -0.56485
 Alpha  occ. eigenvalues --   -0.55337  -0.54186  -0.53164  -0.52927  -0.51543
 Alpha  occ. eigenvalues --   -0.51305  -0.48954  -0.48879  -0.48715  -0.46861
 Alpha  occ. eigenvalues --   -0.45649  -0.44899  -0.44782  -0.44707  -0.42680
 Alpha  occ. eigenvalues --   -0.37413  -0.36437
 Alpha virt. eigenvalues --    0.04985   0.11218   0.16480   0.21347   0.23724
 Alpha virt. eigenvalues --    0.25396   0.27264   0.27535   0.28183   0.28370
 Alpha virt. eigenvalues --    0.29197   0.30910   0.32392   0.32433   0.32624

 Mulliken charges:
               1
     1  C   -0.297142
     2  C   -0.298914
     3  C   -0.475134
     4  H    0.147681
     5  H    0.147562
     6  H    0.151287
     7  H    0.151383
     8  H    0.154072
     9  H    0.154122
    10  H    0.158407
    11  C   -0.297130
    12  C   -0.302066
    13  C   -0.468778
    14  H    0.148352
    15  H    0.149232
    16  H    0.145991
    17  H    0.146929
    18  H    0.159577
    19  H    0.150470
    20  H    0.170792
    21  C   -0.170719
    22  C   -0.218514
    23  C   -0.170852
    24  C    0.157637
    25  C   -0.170620
    26  C   -0.218572
    27  H    0.225842
    28  H    0.223669
    29  H    0.275402
    30  H    0.275824
    31  H    0.223688
    32  N    0.491859
    33  O   -0.459463
    34  O   -0.461874
 Sum of Mulliken charges =  -0.00000

 Dipole moment (field-independent basis, Debye):
    X=             -5.3036    Y=             -1.4769    Z=             -0.8348  Tot=              5.5683
 Quadrupole moment (field-independent basis, Debye-Ang):
   XX=            -60.6734   YY=            -90.9432   ZZ=            -94.8076
   XY=              3.8521   XZ=              3.7891   YZ=             -0.6549

 Normal termination of Gaussian 16 at Wed May  5 23:38:08 2021.
