 Gaussian 16, Revision A.03,
 Gaussian 16:  EM64L-G16RevA.03 25-Dec-2016

 -------------
 #p 6-31g* mp2
 -------------

 ------------------------------------------------------
 Input file generated by CHIRIPA (05-May-2021 14:57:25)
 ------------------------------------------------------
 Symbolic Z-matrix:
 Charge =  0 Multiplicity = 1

                         Standard orientation:
 ---------------------------------------------------------------------
 Center     Atomic      Atomic             Coordinates (Angstroms)
 Number     Number       Type             X           Y           Z
 ---------------------------------------------------------------------
      1          6           0       -2.905494   -2.362770    0.047134
      2          6           0       -2.476436   -1.636109    1.162658
      3          6           0       -2.497400   -0.238268    1.150439
      4          6           0       -2.955650    0.403388    0.000842
      5          6           0       -3.389647   -0.292549   -1.126371
      6          6           0       -3.359929   -1.689858   -1.091812
      7          1           0       -2.885808   -3.448440    0.065302
      8          1           0       -2.123008   -2.156040    2.048550
      9          1           0       -2.170987    0.349042    2.000109
     10          1           0       -3.736616    0.253795   -1.995013
     11          1           0       -3.693744   -2.251598   -1.959603
     12          7           0       -2.982478    1.882937   -0.023919
     13          8           0       -3.390711    2.424554   -1.048923
     14          8           0       -2.594764    2.472976    0.982148
     15          6           0        4.286996    1.976883   -0.136641
     16          6           0        4.887910    0.754797   -0.455908
     17          6           0        4.157409   -0.435199   -0.386450
     18          6           0        2.822092   -0.366082    0.007812
     19          6           0        2.195138    0.835991    0.332222
     20          6           0        2.944894    2.013514    0.255713
     21          1           0        4.861945    2.896455   -0.193336
     22          1           0        5.930032    0.723332   -0.760925
     23          1           0        4.597692   -1.394992   -0.628041
     24          1           0        1.154494    0.835567    0.633015
     25          1           0        2.475603    2.961165    0.504244
     26          7           0        2.038551   -1.619275    0.085075
     27          8           0        0.863659   -1.531542    0.435177
     28          8           0        2.614139   -2.665531   -0.205928
 ---------------------------------------------------------------------

 SCF Done:  E(RHF) =  -868.339578108     A.U. after   16 cycles
 E2 =    -0.2599725451D+01 EUMP2 =    -0.87093930355886D+03

 The electronic state is 1-A.
 Alpha  occ. eigenvalues --  -20.61050 -20.61035 -20.60477 -20.60447 -15.86077
 Alpha  occ. eigenvalues --  -15.85499 -11.31228 -11.30468 -11.27788 -11.27730
 Alpha  occ. eigenvalues --  -11.27460 -11.26981 -11.26948 -11.26760 -11.26671
 Alpha  occ. eigenvalues --  -11.26556 -11.25934 -11.25816  -1.60124  -1.59550
 Alpha  occ. eigenvalues --   -1.39683  -1.39115  -1.19377  -1.18565  -1.08815
 Alpha  occ. eigenvalues --   -1.08029  -1.04737  -1.03911  -0.95687  -0.94943
 Alpha  occ. eigenvalues --   -0.86149  -0.85340  -0.82523  -0.81799  -0.77597
 Alpha  occ. eigenvalues --   -0.76907  -0.72324  -0.71729  -0.71434  -0.70872
 Alpha  occ. eigenvalues --   -0.70482  -0.69680  -0.65029  -0.64729  -0.64227
 Alpha  occ. eigenvalues --   -0.63927  -0.62083  -0.61301  -0.55251  -0.54412
 Alpha  occ. eigenvalues --   -0.53091  -0.52818  -0.52214  -0.52024  -0.49079
 Alpha  occ. eigenvalues --   -0.49052  -0.48505  -0.48444  -0.45135  -0.44610
 Alpha  occ. eigenvalues --   -0.37351  -0.36466  -0.36332  -0.35427
 Alpha virt. eigenvalues --    0.04909   0.05598   0.11319   0.12139   0.16452
 Alpha virt. eigenvalues --    0.17244   0.21428   0.22265   0.27140   0.27896
 Alpha virt. eigenvalues --    0.28456   0.29179   0.30961   0.31715   0.32289

 Mulliken charges:
               1
     1  C   -0.165085
     2  C   -0.198045
     3  C   -0.171662
     4  C    0.155767
     5  C   -0.173133
     6  C   -0.217976
     7  H    0.226608
     8  H    0.225586
     9  H    0.269122
    10  H    0.271423
    11  H    0.220859
    12  N    0.487407
    13  O   -0.462170
    14  O   -0.467932
    15  C   -0.170416
    16  C   -0.218703
    17  C   -0.171351
    18  C    0.157372
    19  C   -0.171513
    20  C   -0.219073
    21  H    0.226927
    22  H    0.223319
    23  H    0.274344
    24  H    0.276212
    25  H    0.230146
    26  N    0.491789
    27  O   -0.467904
    28  O   -0.461917
 Sum of Mulliken charges =  -0.00000

 Dipole moment (field-independent basis, Debye):
    X=              3.0051    Y=             -0.9981    Z=             -0.1241  Tot=              3.1689
 Quadrupole moment (field-independent basis, Debye-Ang):
   XX=            -87.3075   YY=           -111.6696   ZZ=           -101.0666
   XY=             25.9741   XZ=             -0.6111   YZ=              0.9683

 Normal termination of Gaussian 16 at Fri May  7 01:55:10 2021.
