 Gaussian 16, Revision A.03,
 Gaussian 16:  EM64L-G16RevA.03 25-Dec-2016

 -------------
 #p 6-31g* mp2
 -------------

 ------------------------------------------------------
 Input file generated by CHIRIPA (05-May-2021 14:57:25)
 ------------------------------------------------------
 Symbolic Z-matrix:
 Charge =  0 Multiplicity = 1

                         Standard orientation:
 ---------------------------------------------------------------------
 Center     Atomic      Atomic             Coordinates (Angstroms)
 Number     Number       Type             X           Y           Z
 ---------------------------------------------------------------------
      1          6           0        1.497078   -1.692480    0.226817
      2          6           0        1.663158   -0.523092    0.976130
      3          6           0        2.833690    0.232854    0.862340
      4          6           0        3.822140   -0.211857   -0.014294
      5          6           0        3.686292   -1.372534   -0.774338
      6          6           0        2.507394   -2.112728   -0.644489
      7          1           0        0.584532   -2.273599    0.321449
      8          1           0        0.880212   -0.194316    1.653587
      9          1           0        2.988400    1.142051    1.430535
     10          1           0        4.484462   -1.674926   -1.441347
     11          1           0        2.381154   -3.020482   -1.227662
     12          7           0        5.065758    0.580091   -0.143259
     13          8           0        5.921647    0.166900   -0.922593
     14          8           0        5.161068    1.599016    0.537436
     15          6           0       -2.214615    2.439473   -0.037741
     16          6           0       -1.905400    1.403500    0.849766
     17          6           0       -2.675619    0.237032    0.875530
     18          6           0       -3.752771    0.139641   -0.003985
     19          6           0       -4.086138    1.154348   -0.899824
     20          6           0       -3.302080    2.311815   -0.908168
     21          1           0       -1.610915    3.342117   -0.050989
     22          1           0       -1.061444    1.499885    1.526888
     23          1           0       -2.458549   -0.580388    1.552379
     24          1           0       -4.933591    1.029228   -1.562838
     25          1           0       -3.544559    3.114750   -1.598490
     26          7           0       -4.575493   -1.090482    0.014070
     27          8           0       -5.519268   -1.151767   -0.770894
     28          8           0       -4.260989   -1.970075    0.812844
 ---------------------------------------------------------------------

 SCF Done:  E(RHF) =  -868.337113960     A.U. after   16 cycles
 E2 =    -0.2599870660D+01 EUMP2 =    -0.87093698462085D+03

 The electronic state is 1-A.
 Alpha  occ. eigenvalues --  -20.61463 -20.61439 -20.61151 -20.61138 -15.86510
 Alpha  occ. eigenvalues --  -15.86205 -11.31916 -11.31606 -11.28573 -11.28434
 Alpha  occ. eigenvalues --  -11.28255 -11.28187 -11.28152 -11.27907 -11.27590
 Alpha  occ. eigenvalues --  -11.27427 -11.27312 -11.27129  -1.60529  -1.60223
 Alpha  occ. eigenvalues --   -1.40082  -1.39776  -1.20088  -1.19790  -1.09460
 Alpha  occ. eigenvalues --   -1.09166  -1.05518  -1.05214  -0.96292  -0.95993
 Alpha  occ. eigenvalues --   -0.86906  -0.86604  -0.83144  -0.82837  -0.78210
 Alpha  occ. eigenvalues --   -0.77879  -0.72724  -0.72421  -0.71855  -0.71548
 Alpha  occ. eigenvalues --   -0.71171  -0.70865  -0.65750  -0.65626  -0.65445
 Alpha  occ. eigenvalues --   -0.65171  -0.62938  -0.62496  -0.55961  -0.55669
 Alpha  occ. eigenvalues --   -0.53839  -0.53682  -0.53499  -0.53232  -0.49489
 Alpha  occ. eigenvalues --   -0.49476  -0.49183  -0.49173  -0.45480  -0.45174
 Alpha  occ. eigenvalues --   -0.38039  -0.37764  -0.37138  -0.36762
 Alpha virt. eigenvalues --    0.04348   0.04672   0.10419   0.10918   0.15772
 Alpha virt. eigenvalues --    0.16148   0.18400   0.22060   0.24757   0.26681
 Alpha virt. eigenvalues --    0.27988   0.29137   0.29543   0.31442   0.32454

 Mulliken charges:
               1
     1  C   -0.170326
     2  C   -0.217821
     3  C   -0.172263
     4  C    0.158623
     5  C   -0.170032
     6  C   -0.218643
     7  H    0.230733
     8  H    0.214026
     9  H    0.272978
    10  H    0.277258
    11  H    0.226980
    12  N    0.488125
    13  O   -0.458684
    14  O   -0.461450
    15  C   -0.169724
    16  C   -0.216944
    17  C   -0.174401
    18  C    0.159092
    19  C   -0.169946
    20  C   -0.217983
    21  H    0.229715
    22  H    0.217565
    23  H    0.270189
    24  H    0.277873
    25  H    0.226990
    26  N    0.488045
    27  O   -0.457357
    28  O   -0.462620
 Sum of Mulliken charges =  -0.00000

 Dipole moment (field-independent basis, Debye):
    X=             -1.5594    Y=              1.5527    Z=              0.1526  Tot=              2.2058
 Quadrupole moment (field-independent basis, Debye-Ang):
   XX=           -158.1509   YY=            -99.9288   ZZ=           -100.9418
   XY=            -28.8854   XZ=              3.2600   YZ=              0.8379

 Normal termination of Gaussian 16 at Wed May  5 17:56:27 2021.
