 Gaussian 16, Revision A.03,
 Gaussian 16:  EM64L-G16RevA.03 25-Dec-2016

 -------------
 #p 6-31g* mp2
 -------------

 ------------------------------------------------------
 Input file generated by CHIRIPA (05-May-2021 14:55:20)
 ------------------------------------------------------
 Symbolic Z-matrix:
 Charge =  0 Multiplicity = 1

                         Standard orientation:
 ---------------------------------------------------------------------
 Center     Atomic      Atomic             Coordinates (Angstroms)
 Number     Number       Type             X           Y           Z
 ---------------------------------------------------------------------
      1          6           0       -3.930150    1.694252   -0.038048
      2          6           0       -3.210466    1.417973    1.129104
      3          6           0       -2.360087    0.310151    1.193414
      4          6           0       -2.252826   -0.503898    0.066867
      5          6           0       -2.956645   -0.255018   -1.110413
      6          6           0       -3.801170    0.858349   -1.152118
      7          1           0       -4.588471    2.556988   -0.079226
      8          1           0       -3.308669    2.065409    1.995838
      9          1           0       -1.791267    0.072984    2.084264
     10          1           0       -2.838047   -0.918719   -1.958265
     11          1           0       -4.358863    1.070471   -2.059877
     12          7           0       -1.355666   -1.679634    0.122983
     13          8           0       -1.278648   -2.381359   -0.883142
     14          8           0       -0.746478   -1.877189    1.172030
     15          6           0        2.974775    1.069274    0.275243
     16          6           0        3.084181    2.265341   -0.671033
     17          6           0        2.885609    3.603279    0.041907
     18          1           0        1.990233    1.084169    0.762480
     19          1           0        3.720949    1.173915    1.075037
     20          1           0        2.338951    2.157774   -1.469582
     21          1           0        4.068505    2.247489   -1.156218
     22          1           0        3.637047    3.736787    0.826837
     23          1           0        1.897668    3.646563    0.511694
     24          1           0        2.967901    4.444672   -0.653180
     25          6           0        3.170987   -0.275360   -0.422745
     26          6           0        3.061580   -1.471427    0.523532
     27          6           0        3.260154   -2.809366   -0.189410
     28          1           0        2.424814   -0.380002   -1.222540
     29          1           0        4.155528   -0.290256   -0.909983
     30          1           0        2.077257   -1.453576    1.008716
     31          1           0        3.806810   -1.363861    1.322079
     32          1           0        4.248095   -2.852650   -0.659197
     33          1           0        2.508714   -2.942874   -0.974340
     34          1           0        3.177861   -3.650758    0.505677
 ---------------------------------------------------------------------

 SCF Done:  E(RHF) =  -669.536464710     A.U. after   15 cycles
 E2 =    -0.2091611049D+01 EUMP2 =    -0.67162807575865D+03

 The electronic state is 1-A.
 Alpha  occ. eigenvalues --  -20.61044 -20.61039 -15.86061 -11.31356 -11.27913
 Alpha  occ. eigenvalues --  -11.27908 -11.27641 -11.26911 -11.26901 -11.21265
 Alpha  occ. eigenvalues --  -11.20909 -11.20844 -11.20535 -11.20263 -11.19725
 Alpha  occ. eigenvalues --   -1.60095  -1.39652  -1.19518  -1.08928  -1.07715
 Alpha  occ. eigenvalues --   -1.04909  -1.02737  -0.95774  -0.95225  -0.86311
 Alpha  occ. eigenvalues --   -0.86250  -0.82608  -0.78873  -0.77670  -0.77438
 Alpha  occ. eigenvalues --   -0.72281  -0.71410  -0.70625  -0.65174  -0.64911
 Alpha  occ. eigenvalues --   -0.64349  -0.62256  -0.60119  -0.58666  -0.56802
 Alpha  occ. eigenvalues --   -0.55413  -0.54520  -0.53242  -0.52999  -0.51925
 Alpha  occ. eigenvalues --   -0.51648  -0.49195  -0.49047  -0.49037  -0.47170
 Alpha  occ. eigenvalues --   -0.45950  -0.45316  -0.44982  -0.44536  -0.43013
 Alpha  occ. eigenvalues --   -0.37493  -0.36509
 Alpha virt. eigenvalues --    0.04818   0.11136   0.16294   0.21264   0.23427
 Alpha virt. eigenvalues --    0.25151   0.27042   0.27333   0.27987   0.28477
 Alpha virt. eigenvalues --    0.28743   0.30894   0.32177   0.32240   0.32578

 Mulliken charges:
               1
     1  C   -0.170432
     2  C   -0.218507
     3  C   -0.171226
     4  C    0.158145
     5  C   -0.170801
     6  C   -0.218507
     7  H    0.226350
     8  H    0.224226
     9  H    0.275989
    10  H    0.275942
    11  H    0.224108
    12  N    0.488309
    13  O   -0.458775
    14  O   -0.459398
    15  C   -0.296978
    16  C   -0.298734
    17  C   -0.474715
    18  H    0.146642
    19  H    0.148380
    20  H    0.150051
    21  H    0.151912
    22  H    0.155126
    23  H    0.151534
    24  H    0.158207
    25  C   -0.298185
    26  C   -0.309283
    27  C   -0.474392
    28  H    0.148944
    29  H    0.146258
    30  H    0.174012
    31  H    0.144748
    32  H    0.146606
    33  H    0.163327
    34  H    0.161114
 Sum of Mulliken charges =  -0.00000

 Dipole moment (field-independent basis, Debye):
    X=             -3.4367    Y=              4.0074    Z=             -0.1755  Tot=              5.2822
 Quadrupole moment (field-independent basis, Debye-Ang):
   XX=            -80.6242   YY=           -100.5896   ZZ=            -90.5440
   XY=             -7.6009   XZ=              1.9265   YZ=              1.2735

 Normal termination of Gaussian 16 at Thu May  6 09:15:39 2021.
