 Gaussian 16, Revision A.03,
 Gaussian 16:  EM64L-G16RevA.03 25-Dec-2016

 -------------
 #p 6-31g* mp2
 -------------

 ------------------------------------------------------
 Input file generated by CHIRIPA (05-May-2021 14:53:14)
 ------------------------------------------------------
 Symbolic Z-matrix:
 Charge =  0 Multiplicity = 1

                         Standard orientation:
 ---------------------------------------------------------------------
 Center     Atomic      Atomic             Coordinates (Angstroms)
 Number     Number       Type             X           Y           Z
 ---------------------------------------------------------------------
      1          6           0       -3.784913    0.780787   -0.358084
      2          6           0       -3.179717    1.837846    0.566225
      3          6           0       -2.232793    2.790053   -0.164823
      4          1           0       -2.974728    0.205954   -0.827244
      5          1           0       -4.324907    1.282292   -1.173127
      6          1           0       -2.642192    1.334489    1.380053
      7          1           0       -3.991442    2.410104    1.033386
      8          1           0       -2.760267    3.318412   -0.965578
      9          1           0       -1.403351    2.236686   -0.616942
     10          1           0       -1.811540    3.537481    0.514704
     11          6           0       -4.733754   -0.178593    0.358170
     12          6           0       -5.338951   -1.235652   -0.566139
     13          6           0       -6.285874   -2.187859    0.164909
     14          1           0       -4.193761   -0.680098    1.173213
     15          1           0       -5.543940    0.396240    0.827330
     16          1           0       -4.527225   -1.807909   -1.033300
     17          1           0       -5.876476   -0.732295   -1.379966
     18          1           0       -7.115317   -1.634492    0.617029
     19          1           0       -5.758400   -2.716218    0.965664
     20          1           0       -6.707128   -2.935287   -0.514617
     21          6           0        5.845193   -0.401569   -0.002149
     22          6           0        5.067031   -1.562270    0.059132
     23          6           0        3.671282   -1.482065    0.060905
     24          6           0        3.084213   -0.219152    0.000171
     25          6           0        3.832233    0.955553   -0.061686
     26          6           0        5.226401    0.851431   -0.062257
     27          1           0        6.928830   -0.473164   -0.003060
     28          1           0        5.544869   -2.536709    0.105889
     29          1           0        3.044782   -2.364522    0.107641
     30          1           0        3.327200    1.912771   -0.107470
     31          1           0        5.828209    1.754536   -0.109922
     32          7           0        1.607434   -0.121581    0.001412
     33          8           0        1.114454    1.002995   -0.052793
     34          8           0        0.970876   -1.171528    0.056566
 ---------------------------------------------------------------------

 SCF Done:  E(RHF) =  -669.536349025     A.U. after   15 cycles
 E2 =    -0.2090854047D+01 EUMP2 =    -0.67162720307192D+03

 The electronic state is 1-A.
 Alpha  occ. eigenvalues --  -20.61026 -20.61012 -15.86049 -11.31339 -11.27898
 Alpha  occ. eigenvalues --  -11.27893 -11.27631 -11.26899 -11.26889 -11.20656
 Alpha  occ. eigenvalues --  -11.20297 -11.20263 -11.20122 -11.19997 -11.19318
 Alpha  occ. eigenvalues --   -1.60082  -1.39637  -1.19504  -1.08915  -1.07199
 Alpha  occ. eigenvalues --   -1.04895  -1.02283  -0.95763  -0.94733  -0.86297
 Alpha  occ. eigenvalues --   -0.85757  -0.82596  -0.78392  -0.77651  -0.76986
 Alpha  occ. eigenvalues --   -0.72274  -0.71392  -0.70612  -0.65160  -0.64899
 Alpha  occ. eigenvalues --   -0.63815  -0.62242  -0.59658  -0.58163  -0.56351
 Alpha  occ. eigenvalues --   -0.55403  -0.53998  -0.53229  -0.52986  -0.51460
 Alpha  occ. eigenvalues --   -0.51173  -0.49141  -0.49027  -0.48529  -0.46692
 Alpha  occ. eigenvalues --   -0.45403  -0.45053  -0.44533  -0.44395  -0.42552
 Alpha  occ. eigenvalues --   -0.37482  -0.36495
 Alpha virt. eigenvalues --    0.04873   0.11161   0.16377   0.21297   0.24075
 Alpha virt. eigenvalues --    0.25600   0.27220   0.27865   0.28194   0.28714
 Alpha virt. eigenvalues --    0.29271   0.30873   0.32375   0.32695   0.32837

 Mulliken charges:
               1
     1  C   -0.299882
     2  C   -0.296804
     3  C   -0.483222
     4  H    0.159877
     5  H    0.143876
     6  H    0.155993
     7  H    0.143613
     8  H    0.144507
     9  H    0.181718
    10  H    0.153108
    11  C   -0.297617
    12  C   -0.299279
    13  C   -0.475078
    14  H    0.151124
    15  H    0.145456
    16  H    0.154020
    17  H    0.149249
    18  H    0.153067
    19  H    0.154876
    20  H    0.157276
    21  C   -0.170480
    22  C   -0.218619
    23  C   -0.170471
    24  C    0.157543
    25  C   -0.170806
    26  C   -0.218572
    27  H    0.226164
    28  H    0.223943
    29  H    0.275831
    30  H    0.276196
    31  H    0.224047
    32  N    0.490987
    33  O   -0.461744
    34  O   -0.459897
 Sum of Mulliken charges =  -0.00000

 Dipole moment (field-independent basis, Debye):
    X=              5.6371    Y=             -0.4523    Z=             -0.0225  Tot=              5.6553
 Quadrupole moment (field-independent basis, Debye-Ang):
   XX=            -64.6623   YY=            -90.4978   ZZ=            -95.8914
   XY=             -2.4957   XZ=              0.4124   YZ=             -0.1576

 Normal termination of Gaussian 16 at Wed May  5 23:28:56 2021.
