 Gaussian 16, Revision A.03,
 Gaussian 16:  EM64L-G16RevA.03 25-Dec-2016

 -------------
 #p 6-31g* mp2
 -------------

 ------------------------------------------------------
 Input file generated by CHIRIPA (05-May-2021 14:53:12)
 ------------------------------------------------------
 Symbolic Z-matrix:
 Charge =  0 Multiplicity = 1

                         Standard orientation:
 ---------------------------------------------------------------------
 Center     Atomic      Atomic             Coordinates (Angstroms)
 Number     Number       Type             X           Y           Z
 ---------------------------------------------------------------------
      1          6           0       -2.242719    0.841978    0.098891
      2          6           0       -2.917482    2.208880   -0.020513
      3          6           0       -2.117153    3.324068    0.653003
      4          1           0       -2.099746    0.602303    1.161463
      5          1           0       -1.239921    0.895650   -0.347103
      6          1           0       -3.919242    2.152274    0.424336
      7          1           0       -3.059040    2.445243   -1.082921
      8          1           0       -1.122336    3.409504    0.203958
      9          1           0       -1.987426    3.114870    1.719778
     10          1           0       -2.617647    4.292509    0.555606
     11          6           0       -3.030796   -0.283118   -0.569558
     12          6           0       -2.356033   -1.650020   -0.450154
     13          6           0       -3.156363   -2.765207   -1.123670
     14          1           0       -4.033594   -0.336790   -0.123564
     15          1           0       -3.173769   -0.043443   -1.632130
     16          1           0       -2.214476   -1.886383    0.612254
     17          1           0       -1.354274   -1.593414   -0.895003
     18          1           0       -3.286090   -2.556010   -2.190445
     19          1           0       -4.151179   -2.850644   -0.674625
     20          1           0       -2.655868   -3.733649   -1.026273
     21          6           0        0.975267   -2.114667    1.446058
     22          6           0        1.930627   -2.385477    0.460933
     23          6           0        2.538128   -1.342627   -0.244726
     24          6           0        2.164831   -0.034972    0.061829
     25          6           0        1.216313    0.267034    1.037736
     26          6           0        0.621782   -0.791609    1.730813
     27          1           0        0.508383   -2.930913    1.989344
     28          1           0        2.207100   -3.412006    0.237676
     29          1           0        3.280676   -1.523873   -1.012313
     30          1           0        0.961285    1.300603    1.238026
     31          1           0       -0.119856   -0.578318    2.495355
     32          7           0        2.801101    1.077407   -0.678560
     33          8           0        2.454856    2.220781   -0.389686
     34          8           0        3.634006    0.784852   -1.533732
 ---------------------------------------------------------------------

 SCF Done:  E(RHF) =  -669.533701388     A.U. after   15 cycles
 E2 =    -0.2095478914D+01 EUMP2 =    -0.67162918030252D+03

 The electronic state is 1-A.
 Alpha  occ. eigenvalues --  -20.60806 -20.60800 -15.85856 -11.31181 -11.27756
 Alpha  occ. eigenvalues --  -11.27707 -11.27471 -11.26756 -11.26696 -11.21954
 Alpha  occ. eigenvalues --  -11.21785 -11.21725 -11.21669 -11.21461 -11.21193
 Alpha  occ. eigenvalues --   -1.59881  -1.39435  -1.19361  -1.08808  -1.08704
 Alpha  occ. eigenvalues --   -1.04754  -1.03817  -0.96274  -0.95597  -0.87288
 Alpha  occ. eigenvalues --   -0.86157  -0.82437  -0.79882  -0.78654  -0.77440
 Alpha  occ. eigenvalues --   -0.72072  -0.71206  -0.70462  -0.65439  -0.65007
 Alpha  occ. eigenvalues --   -0.64708  -0.62110  -0.61204  -0.59655  -0.57901
 Alpha  occ. eigenvalues --   -0.55560  -0.55252  -0.53302  -0.52861  -0.52836
 Alpha  occ. eigenvalues --   -0.52677  -0.50208  -0.48829  -0.48828  -0.48209
 Alpha  occ. eigenvalues --   -0.46912  -0.46133  -0.45982  -0.44836  -0.44079
 Alpha  occ. eigenvalues --   -0.37284  -0.36219
 Alpha virt. eigenvalues --    0.05031   0.11133   0.16461   0.20065   0.22977
 Alpha virt. eigenvalues --    0.23343   0.25177   0.26424   0.27201   0.28374
 Alpha virt. eigenvalues --    0.29526   0.30340   0.31433   0.31627   0.31862

 Mulliken charges:
               1
     1  C   -0.300425
     2  C   -0.298844
     3  C   -0.481653
     4  H    0.137601
     5  H    0.156650
     6  H    0.150861
     7  H    0.155492
     8  H    0.165982
     9  H    0.148339
    10  H    0.163618
    11  C   -0.298493
    12  C   -0.298665
    13  C   -0.475773
    14  H    0.148839
    15  H    0.152707
    16  H    0.142007
    17  H    0.157894
    18  H    0.157723
    19  H    0.155041
    20  H    0.156797
    21  C   -0.168367
    22  C   -0.219754
    23  C   -0.171693
    24  C    0.156654
    25  C   -0.172418
    26  C   -0.212429
    27  H    0.225326
    28  H    0.223317
    29  H    0.275387
    30  H    0.278634
    31  H    0.223088
    32  N    0.488374
    33  O   -0.461638
    34  O   -0.460180
 Sum of Mulliken charges =  -0.00000

 Dipole moment (field-independent basis, Debye):
    X=             -2.2164    Y=             -3.8464    Z=              2.5087  Tot=              5.0991
 Quadrupole moment (field-independent basis, Debye-Ang):
   XX=           -103.8661   YY=            -93.3609   ZZ=            -93.0729
   XY=            -11.0526   XZ=              3.5846   YZ=              0.8971

 Normal termination of Gaussian 16 at Thu May  6 05:43:19 2021.
