 Gaussian 16, Revision A.03,
 Gaussian 16:  EM64L-G16RevA.03 25-Dec-2016

 -------------
 #p 6-31g* mp2
 -------------

 ------------------------------------------------------
 Input file generated by CHIRIPA (05-May-2021 14:53:12)
 ------------------------------------------------------
 Symbolic Z-matrix:
 Charge =  0 Multiplicity = 1

                         Standard orientation:
 ---------------------------------------------------------------------
 Center     Atomic      Atomic             Coordinates (Angstroms)
 Number     Number       Type             X           Y           Z
 ---------------------------------------------------------------------
      1          6           0        4.026803   -0.627107    0.000074
      2          6           0        5.362524   -1.172632    0.506271
      3          6           0        5.274460   -2.633020    0.950465
      4          1           0        3.273359   -0.725719    0.793512
      5          1           0        3.680097   -1.246239   -0.838893
      6          1           0        5.707286   -0.551822    1.343140
      7          1           0        6.112923   -1.072535   -0.288399
      8          1           0        4.954344   -3.269816    0.119431
      9          1           0        4.546403   -2.746145    1.760240
     10          1           0        6.240367   -3.002662    1.308583
     11          6           0        4.098765    0.831701   -0.447619
     12          6           0        2.763044    1.377226   -0.953816
     13          6           0        2.851108    2.837613   -1.398010
     14          1           0        4.445471    1.450833    0.391348
     15          1           0        4.852209    0.930313   -1.241057
     16          1           0        2.012646    1.277128   -0.159147
     17          1           0        2.418282    0.756416   -1.790685
     18          1           0        3.579166    2.950739   -2.207785
     19          1           0        3.171224    3.474410   -0.566976
     20          1           0        1.885201    3.207256   -1.756129
     21          6           0       -1.772115    1.618452    1.406097
     22          6           0       -3.166518    1.728721    1.407258
     23          6           0       -3.953273    0.793441    0.728424
     24          6           0       -3.309584   -0.244112    0.055787
     25          6           0       -1.922443   -0.381011    0.036102
     26          6           0       -1.155614    0.565794    0.721729
     27          1           0       -1.168684    2.349476    1.936070
     28          1           0       -3.648024    2.545191    1.937893
     29          1           0       -5.034659    0.854955    0.712973
     30          1           0       -1.471158   -1.205859   -0.501845
     31          1           0       -0.072900    0.477656    0.719114
     32          7           0       -4.131938   -1.240351   -0.666460
     33          8           0       -3.540614   -2.145191   -1.251470
     34          8           0       -5.352254   -1.097499   -0.633871
 ---------------------------------------------------------------------

 SCF Done:  E(RHF) =  -669.535507909     A.U. after   15 cycles
 E2 =    -0.2091044810D+01 EUMP2 =    -0.67162655271846D+03

 The electronic state is 1-A.
 Alpha  occ. eigenvalues --  -20.60734 -20.60728 -15.85787 -11.31147 -11.27719
 Alpha  occ. eigenvalues --  -11.27705 -11.27460 -11.26736 -11.26696 -11.22535
 Alpha  occ. eigenvalues --  -11.22138 -11.22110 -11.22044 -11.21811 -11.21485
 Alpha  occ. eigenvalues --   -1.59809  -1.39363  -1.19319  -1.09137  -1.08717
 Alpha  occ. eigenvalues --   -1.04720  -1.04193  -0.96614  -0.95552  -0.87632
 Alpha  occ. eigenvalues --   -0.86123  -0.82385  -0.80284  -0.78954  -0.77428
 Alpha  occ. eigenvalues --   -0.72005  -0.71132  -0.70431  -0.65794  -0.64971
 Alpha  occ. eigenvalues --   -0.64726  -0.62106  -0.61560  -0.59990  -0.58230
 Alpha  occ. eigenvalues --   -0.55893  -0.55228  -0.53312  -0.53054  -0.53040
 Alpha  occ. eigenvalues --   -0.52819  -0.50555  -0.48783  -0.48760  -0.48556
 Alpha  occ. eigenvalues --   -0.47315  -0.46480  -0.46395  -0.44769  -0.44449
 Alpha  occ. eigenvalues --   -0.37303  -0.36320
 Alpha virt. eigenvalues --    0.05103   0.11293   0.16583   0.19654   0.22591
 Alpha virt. eigenvalues --    0.23786   0.24640   0.26330   0.27378   0.28303
 Alpha virt. eigenvalues --    0.28825   0.30418   0.31108   0.31345   0.32067

 Mulliken charges:
               1
     1  C   -0.298727
     2  C   -0.300055
     3  C   -0.476266
     4  H    0.144008
     5  H    0.151666
     6  H    0.152272
     7  H    0.154021
     8  H    0.156879
     9  H    0.154937
    10  H    0.162219
    11  C   -0.298070
    12  C   -0.303884
    13  C   -0.476162
    14  H    0.149929
    15  H    0.153565
    16  H    0.142551
    17  H    0.155718
    18  H    0.159421
    19  H    0.154799
    20  H    0.162016
    21  C   -0.172703
    22  C   -0.218560
    23  C   -0.171209
    24  C    0.158782
    25  C   -0.172809
    26  C   -0.223805
    27  H    0.225232
    28  H    0.223213
    29  H    0.275443
    30  H    0.276121
    31  H    0.232492
    32  N    0.488041
    33  O   -0.460447
    34  O   -0.460630
 Sum of Mulliken charges =  -0.00000

 Dipole moment (field-independent basis, Debye):
    X=              3.0919    Y=              3.5149    Z=              2.4677  Tot=              5.2918
 Quadrupole moment (field-independent basis, Debye-Ang):
   XX=           -109.8455   YY=            -96.7048   ZZ=            -93.9259
   XY=            -14.7375   XZ=            -10.1953   YZ=              0.9809

 Normal termination of Gaussian 16 at Thu May  6 18:39:48 2021.
