 Gaussian 16, Revision A.03,
 Gaussian 16:  EM64L-G16RevA.03 25-Dec-2016

 -------------
 #p 6-31g* mp2
 -------------

 ------------------------------------------------------
 Input file generated by CHIRIPA (05-May-2021 14:55:21)
 ------------------------------------------------------
 Symbolic Z-matrix:
 Charge =  0 Multiplicity = 1

                         Standard orientation:
 ---------------------------------------------------------------------
 Center     Atomic      Atomic             Coordinates (Angstroms)
 Number     Number       Type             X           Y           Z
 ---------------------------------------------------------------------
      1          6           0        5.401103   -0.688355    0.329541
      2          6           0        5.008031    0.619942    0.028922
      3          6           0        3.663270    0.920815   -0.206966
      4          6           0        2.733954   -0.115669   -0.133746
      5          6           0        3.094354   -1.429080    0.163500
      6          6           0        4.444697   -1.706895    0.395754
      7          1           0        6.447913   -0.913125    0.511373
      8          1           0        5.748608    1.412960   -0.023170
      9          1           0        3.331412    1.924902   -0.441696
     10          1           0        2.333134   -2.198462    0.208361
     11          1           0        4.747074   -2.723854    0.629008
     12          7           0        1.307362    0.190646   -0.381547
     13          8           0        0.508030   -0.740342   -0.311073
     14          8           0        1.015543    1.355925   -0.641554
     15          6           0       -3.170052    0.635604    0.203820
     16          6           0       -3.443791    2.139937    0.197804
     17          6           0       -2.172940    2.972737    0.368608
     18          1           0       -2.675304    0.363152    1.146125
     19          1           0       -2.462234    0.395550   -0.601637
     20          1           0       -4.151952    2.376883    1.002155
     21          1           0       -3.938118    2.408808   -0.744515
     22          1           0       -1.464873    2.765398   -0.440252
     23          1           0       -1.679922    2.733293    1.316343
     24          1           0       -2.391692    4.045097    0.361428
     25          6           0       -4.430776   -0.210251    0.034017
     26          6           0       -4.157037   -1.714583    0.040033
     27          6           0       -5.427889   -2.547383   -0.130771
     28          1           0       -5.138595    0.029804    0.839475
     29          1           0       -4.925525    0.062201   -0.908288
     30          1           0       -3.662710   -1.983454    0.982353
     31          1           0       -3.448876   -1.951530   -0.764317
     32          1           0       -5.920906   -2.307939   -1.078505
     33          1           0       -6.135955   -2.340045    0.678089
     34          1           0       -5.209137   -3.619743   -0.123591
 ---------------------------------------------------------------------

 SCF Done:  E(RHF) =  -669.536360282     A.U. after   15 cycles
 E2 =    -0.2091801382D+01 EUMP2 =    -0.67162816166412D+03

 The electronic state is 1-A.
 Alpha  occ. eigenvalues --  -20.61037 -20.61032 -15.86045 -11.31343 -11.27899
 Alpha  occ. eigenvalues --  -11.27895 -11.27632 -11.26900 -11.26890 -11.20403
 Alpha  occ. eigenvalues --  -11.20159 -11.20057 -11.20045 -11.19573 -11.19228
 Alpha  occ. eigenvalues --   -1.60079  -1.39636  -1.19505  -1.08916  -1.06969
 Alpha  occ. eigenvalues --   -1.04897  -1.02130  -0.95761  -0.94566  -0.86299
 Alpha  occ. eigenvalues --   -0.85579  -0.82597  -0.78216  -0.77651  -0.76697
 Alpha  occ. eigenvalues --   -0.72264  -0.71386  -0.70613  -0.65161  -0.64900
 Alpha  occ. eigenvalues --   -0.63617  -0.62243  -0.59542  -0.57983  -0.56162
 Alpha  occ. eigenvalues --   -0.55402  -0.53854  -0.53231  -0.52987  -0.51324
 Alpha  occ. eigenvalues --   -0.50971  -0.49115  -0.49023  -0.48438  -0.46486
 Alpha  occ. eigenvalues --   -0.45253  -0.45040  -0.44273  -0.44062  -0.42364
 Alpha  occ. eigenvalues --   -0.37483  -0.36496
 Alpha virt. eigenvalues --    0.04877   0.11159   0.16381   0.21293   0.24220
 Alpha virt. eigenvalues --    0.25704   0.27219   0.28050   0.28204   0.29024
 Alpha virt. eigenvalues --    0.29378   0.30887   0.32391   0.32782   0.32936

 Mulliken charges:
               1
     1  C   -0.170489
     2  C   -0.218583
     3  C   -0.170746
     4  C    0.157749
     5  C   -0.170572
     6  C   -0.218612
     7  H    0.226162
     8  H    0.224022
     9  H    0.276075
    10  H    0.275991
    11  H    0.223982
    12  N    0.490215
    13  O   -0.458725
    14  O   -0.460188
    15  C   -0.299369
    16  C   -0.299223
    17  C   -0.479491
    18  H    0.147579
    19  H    0.169330
    20  H    0.143619
    21  H    0.146299
    22  H    0.179688
    23  H    0.149671
    24  H    0.148470
    25  C   -0.298079
    26  C   -0.298001
    27  C   -0.474881
    28  H    0.143731
    29  H    0.145563
    30  H    0.150567
    31  H    0.156559
    32  H    0.153055
    33  H    0.152267
    34  H    0.156365
 Sum of Mulliken charges =  -0.00000

 Dipole moment (field-independent basis, Debye):
    X=              5.5293    Y=             -1.1565    Z=              0.7454  Tot=              5.6979
 Quadrupole moment (field-independent basis, Debye-Ang):
   XX=            -70.1775   YY=            -91.3138   ZZ=            -94.8617
   XY=             -2.6757   XZ=              1.7289   YZ=             -1.1996

 Normal termination of Gaussian 16 at Thu May  6 01:26:31 2021.
