 Gaussian 16, Revision A.03,
 Gaussian 16:  EM64L-G16RevA.03 25-Dec-2016

 -------------
 #p 6-31g* mp2
 -------------

 ------------------------------------------------------
 Input file generated by CHIRIPA (05-May-2021 14:55:19)
 ------------------------------------------------------
 Symbolic Z-matrix:
 Charge =  0 Multiplicity = 1

                         Standard orientation:
 ---------------------------------------------------------------------
 Center     Atomic      Atomic             Coordinates (Angstroms)
 Number     Number       Type             X           Y           Z
 ---------------------------------------------------------------------
      1          6           0        4.579593   -1.672162   -0.807106
      2          6           0        3.189586   -1.814217   -0.872086
      3          6           0        2.350369   -0.748586   -0.533423
      4          6           0        2.937683    0.450313   -0.132181
      5          6           0        4.318953    0.622875   -0.057303
      6          6           0        5.138854   -0.456213   -0.400638
      7          1           0        5.224014   -2.505197   -1.072003
      8          1           0        2.752472   -2.757375   -1.187410
      9          1           0        1.271071   -0.831180   -0.574785
     10          1           0        4.725347    1.575324    0.260664
     11          1           0        6.218016   -0.343021   -0.349236
     12          7           0        2.059466    1.585572    0.228820
     13          8           0        2.601664    2.631450    0.579245
     14          8           0        0.845552    1.408013    0.154513
     15          6           0       -4.324613    0.194907   -0.150735
     16          6           0       -5.686093   -0.282145   -0.657471
     17          6           0       -6.432459    0.792920   -1.448017
     18          1           0       -4.465886    1.083690    0.479385
     19          1           0       -3.713327    0.512610   -1.006766
     20          1           0       -6.294128   -0.600152    0.199140
     21          1           0       -5.541580   -1.170010   -1.286302
     22          1           0       -5.848976    1.104345   -2.320465
     23          1           0       -6.605801    1.677440   -0.826584
     24          1           0       -7.403108    0.430620   -1.800775
     25          6           0       -3.566392   -0.868720    0.641430
     26          6           0       -2.204913   -0.391668    1.148166
     27          6           0       -1.458547   -1.466734    1.938713
     28          1           0       -4.177678   -1.186423    1.497461
     29          1           0       -3.425119   -1.757504    0.011311
     30          1           0       -2.349425    0.496197    1.776997
     31          1           0       -1.596878   -0.073661    0.291556
     32          1           0       -1.285205   -2.351253    1.317280
     33          1           0       -2.042028   -1.778158    2.811161
     34          1           0       -0.487896   -1.104433    2.291471
 ---------------------------------------------------------------------

 SCF Done:  E(RHF) =  -669.535913678     A.U. after   15 cycles
 E2 =    -0.2091440414D+01 EUMP2 =    -0.67162735409203D+03

 The electronic state is 1-A.
 Alpha  occ. eigenvalues --  -20.60882 -20.60876 -15.85920 -11.31252 -11.27818
 Alpha  occ. eigenvalues --  -11.27813 -11.27557 -11.26829 -11.26818 -11.21177
 Alpha  occ. eigenvalues --  -11.20844 -11.20786 -11.20719 -11.20681 -11.20615
 Alpha  occ. eigenvalues --   -1.59948  -1.39503  -1.19423  -1.08825  -1.07862
 Alpha  occ. eigenvalues --   -1.04820  -1.02986  -0.95670  -0.95481  -0.86506
 Alpha  occ. eigenvalues --   -0.86220  -0.82503  -0.79030  -0.77697  -0.77489
 Alpha  occ. eigenvalues --   -0.72145  -0.71264  -0.70531  -0.65081  -0.64829
 Alpha  occ. eigenvalues --   -0.64499  -0.62173  -0.60394  -0.58827  -0.57056
 Alpha  occ. eigenvalues --   -0.55326  -0.54806  -0.53152  -0.52911  -0.52182
 Alpha  occ. eigenvalues --   -0.51899  -0.49454  -0.48907  -0.48897  -0.47338
 Alpha  occ. eigenvalues --   -0.46051  -0.45201  -0.45103  -0.44885  -0.43242
 Alpha  occ. eigenvalues --   -0.37403  -0.36421
 Alpha virt. eigenvalues --    0.04969   0.11214   0.16467   0.20708   0.23114
 Alpha virt. eigenvalues --    0.24201   0.26746   0.27490   0.27672   0.28341
 Alpha virt. eigenvalues --    0.29031   0.30702   0.31670   0.32041   0.32266

 Mulliken charges:
               1
     1  C   -0.170511
     2  C   -0.219159
     3  C   -0.171509
     4  C    0.157223
     5  C   -0.170803
     6  C   -0.218642
     7  H    0.225869
     8  H    0.223953
     9  H    0.278627
    10  H    0.275691
    11  H    0.223667
    12  N    0.492999
    13  O   -0.459500
    14  O   -0.465420
    15  C   -0.297811
    16  C   -0.299080
    17  C   -0.475356
    18  H    0.151882
    19  H    0.151355
    20  H    0.150749
    21  H    0.149359
    22  H    0.155216
    23  H    0.155901
    24  H    0.158287
    25  C   -0.298355
    26  C   -0.303363
    27  C   -0.477425
    28  H    0.146856
    29  H    0.143566
    30  H    0.157281
    31  H    0.167715
    32  H    0.144528
    33  H    0.153757
    34  H    0.162450
 Sum of Mulliken charges =  -0.00000

 Dipole moment (field-independent basis, Debye):
    X=              3.2535    Y=             -3.8229    Z=             -1.2760  Tot=              5.1796
 Quadrupole moment (field-independent basis, Debye-Ang):
   XX=            -74.2789   YY=            -97.8664   ZZ=            -94.7737
   XY=             -8.1264   XZ=             -4.1814   YZ=              1.5613

 Normal termination of Gaussian 16 at Wed May  5 18:52:58 2021.
