 Gaussian 16, Revision A.03,
 Gaussian 16:  EM64L-G16RevA.03 25-Dec-2016

 -------------
 #p 6-31g* mp2
 -------------

 ------------------------------------------------------
 Input file generated by CHIRIPA (05-May-2021 14:53:17)
 ------------------------------------------------------
 Symbolic Z-matrix:
 Charge =  0 Multiplicity = 1

                         Standard orientation:
 ---------------------------------------------------------------------
 Center     Atomic      Atomic             Coordinates (Angstroms)
 Number     Number       Type             X           Y           Z
 ---------------------------------------------------------------------
      1          6           0        2.042270    0.909883   -0.302193
      2          6           0        2.476730    1.899136    0.779753
      3          6           0        1.878945    3.292366    0.581367
      4          1           0        2.336446    1.299945   -1.286194
      5          1           0        0.945575    0.841907   -0.308031
      6          1           0        3.572341    1.964183    0.784477
      7          1           0        2.181657    1.506583    1.761308
      8          1           0        0.785156    3.248206    0.598031
      9          1           0        2.183742    3.708405   -0.384350
     10          1           0        2.202568    3.983512    1.365870
     11          6           0        2.631717   -0.487323   -0.117542
     12          6           0        2.197256   -1.476575   -1.199489
     13          6           0        2.795042   -2.869805   -1.001102
     14          1           0        3.728412   -0.419346   -0.111704
     15          1           0        2.337541   -0.877384    0.866459
     16          1           0        2.492330   -1.084023   -2.181043
     17          1           0        1.101646   -1.541622   -1.204212
     18          1           0        2.490244   -3.285845   -0.035385
     19          1           0        3.888830   -2.825645   -1.017766
     20          1           0        2.471419   -3.560952   -1.785605
     21          6           0       -1.246795   -1.968134    1.831184
     22          6           0       -1.795337   -2.311398    0.591106
     23          6           0       -2.119987   -1.320701   -0.340382
     24          6           0       -1.881750    0.009252    0.002778
     25          6           0       -1.336476    0.383028    1.230075
     26          6           0       -1.019516   -0.624386    2.146155
     27          1           0       -0.997585   -2.744223    2.548802
     28          1           0       -1.972936   -3.354151    0.343782
     29          1           0       -2.545757   -1.558409   -1.307664
     30          1           0       -1.170930    1.431127    1.448020
     31          1           0       -0.593625   -0.354864    3.108455
     32          7           0       -2.221372    1.066906   -0.975191
     33          8           0       -2.001781    2.231309   -0.648721
     34          8           0       -2.700727    0.711466   -2.049676
 ---------------------------------------------------------------------

 SCF Done:  E(RHF) =  -669.534995777     A.U. after   15 cycles
 E2 =    -0.2096198363D+01 EUMP2 =    -0.67163119414008D+03

 The electronic state is 1-A.
 Alpha  occ. eigenvalues --  -20.60963 -20.60946 -15.85987 -11.31352 -11.27955
 Alpha  occ. eigenvalues --  -11.27934 -11.27695 -11.26963 -11.26953 -11.21593
 Alpha  occ. eigenvalues --  -11.21578 -11.21374 -11.21251 -11.21180 -11.20793
 Alpha  occ. eigenvalues --   -1.60014  -1.39569  -1.19566  -1.08944  -1.08387
 Alpha  occ. eigenvalues --   -1.04967  -1.03501  -0.95935  -0.95774  -0.86951
 Alpha  occ. eigenvalues --   -0.86357  -0.82602  -0.79563  -0.78210  -0.77646
 Alpha  occ. eigenvalues --   -0.72209  -0.71342  -0.70661  -0.65211  -0.65105
 Alpha  occ. eigenvalues --   -0.64914  -0.62320  -0.60896  -0.59314  -0.57547
 Alpha  occ. eigenvalues --   -0.55451  -0.55280  -0.53281  -0.53038  -0.52637
 Alpha  occ. eigenvalues --   -0.52337  -0.49893  -0.48977  -0.48964  -0.47875
 Alpha  occ. eigenvalues --   -0.46630  -0.45735  -0.45711  -0.44857  -0.43740
 Alpha  occ. eigenvalues --   -0.37467  -0.36492
 Alpha virt. eigenvalues --    0.04831   0.10995   0.16301   0.20426   0.22986
 Alpha virt. eigenvalues --    0.23730   0.26228   0.26621   0.27298   0.27963
 Alpha virt. eigenvalues --    0.28660   0.30300   0.31344   0.31760   0.31925

 Mulliken charges:
               1
     1  C   -0.301793
     2  C   -0.300014
     3  C   -0.481677
     4  H    0.153121
     5  H    0.153128
     6  H    0.152128
     7  H    0.141324
     8  H    0.165110
     9  H    0.159710
    10  H    0.157114
    11  C   -0.296609
    12  C   -0.302390
    13  C   -0.474898
    14  H    0.148670
    15  H    0.144458
    16  H    0.154156
    17  H    0.153243
    18  H    0.149926
    19  H    0.155969
    20  H    0.159108
    21  C   -0.170958
    22  C   -0.217681
    23  C   -0.171866
    24  C    0.159851
    25  C   -0.175797
    26  C   -0.216781
    27  H    0.226837
    28  H    0.224897
    29  H    0.276749
    30  H    0.279492
    31  H    0.224926
    32  N    0.490327
    33  O   -0.460968
    34  O   -0.458812
 Sum of Mulliken charges =  -0.00000

 Dipole moment (field-independent basis, Debye):
    X=              0.9977    Y=             -3.6827    Z=              3.3677  Tot=              5.0891
 Quadrupole moment (field-independent basis, Debye-Ang):
   XX=            -99.1501   YY=            -93.7114   ZZ=            -92.7326
   XY=              9.1537   XZ=             -6.0432   YZ=              2.1211

 Normal termination of Gaussian 16 at Thu May  6 02:49:27 2021.
