 Gaussian 16, Revision A.03,
 Gaussian 16:  EM64L-G16RevA.03 25-Dec-2016

 -------------
 #p 6-31g* mp2
 -------------

 ------------------------------------------------------
 Input file generated by CHIRIPA (05-May-2021 14:55:22)
 ------------------------------------------------------
 Symbolic Z-matrix:
 Charge =  0 Multiplicity = 1

                         Standard orientation:
 ---------------------------------------------------------------------
 Center     Atomic      Atomic             Coordinates (Angstroms)
 Number     Number       Type             X           Y           Z
 ---------------------------------------------------------------------
      1          6           0       -1.724761    2.292647    0.292009
      2          6           0       -2.978839    2.007117    0.841811
      3          6           0       -3.558908    0.746679    0.670453
      4          6           0       -2.853873   -0.208894   -0.059680
      5          6           0       -1.602849    0.045168   -0.619752
      6          6           0       -1.041972    1.312489   -0.435734
      7          1           0       -1.281604    3.274459    0.430041
      8          1           0       -3.511392    2.766380    1.407455
      9          1           0       -4.528401    0.498792    1.085247
     10          1           0       -1.096100   -0.732151   -1.178678
     11          1           0       -0.067895    1.531422   -0.863855
     12          7           0       -3.457807   -1.546907   -0.247789
     13          8           0       -2.816302   -2.371505   -0.895204
     14          8           0       -4.561241   -1.745709    0.255747
     15          6           0        4.047842   -0.565742    0.121553
     16          6           0        3.438250   -1.953390    0.323581
     17          6           0        4.495722   -3.044830    0.491827
     18          1           0        4.701352   -0.584324   -0.761354
     19          1           0        4.689790   -0.326301    0.980602
     20          1           0        2.796550   -2.189565   -0.534941
     21          1           0        2.785965   -1.931453    1.205997
     22          1           0        5.130010   -2.836210    1.359443
     23          1           0        5.140654   -3.095789   -0.391387
     24          1           0        4.038014   -4.028645    0.634906
     25          6           0        3.003263    0.535978   -0.048140
     26          6           0        3.612854    1.923627   -0.250167
     27          6           0        2.555382    3.015066   -0.418413
     28          1           0        2.361314    0.296539   -0.907189
     29          1           0        2.349753    0.554561    0.834767
     30          1           0        4.265138    1.901689   -1.132584
     31          1           0        4.254554    2.159802    0.608354
     32          1           0        1.910450    3.066026    0.464800
     33          1           0        1.921094    2.806447   -1.286030
     34          1           0        3.013090    3.998881   -0.561492
 ---------------------------------------------------------------------

 SCF Done:  E(RHF) =  -669.535331235     A.U. after   15 cycles
 E2 =    -0.2092159278D+01 EUMP2 =    -0.67162749051309D+03

 The electronic state is 1-A.
 Alpha  occ. eigenvalues --  -20.60691 -20.60685 -15.85741 -11.31082 -11.27648
 Alpha  occ. eigenvalues --  -11.27621 -11.27362 -11.26666 -11.26555 -11.22524
 Alpha  occ. eigenvalues --  -11.22333 -11.22243 -11.21975 -11.21912 -11.21297
 Alpha  occ. eigenvalues --   -1.59766  -1.39321  -1.19243  -1.09143  -1.08642
 Alpha  occ. eigenvalues --   -1.04642  -1.04219  -0.96705  -0.95484  -0.87727
 Alpha  occ. eigenvalues --   -0.86041  -0.82320  -0.80323  -0.78919  -0.77357
 Alpha  occ. eigenvalues --   -0.71961  -0.71089  -0.70353  -0.65774  -0.64891
 Alpha  occ. eigenvalues --   -0.64663  -0.62038  -0.61593  -0.60070  -0.58285
 Alpha  occ. eigenvalues --   -0.56017  -0.55134  -0.53371  -0.53191  -0.52976
 Alpha  occ. eigenvalues --   -0.52697  -0.50652  -0.48764  -0.48718  -0.48535
 Alpha  occ. eigenvalues --   -0.47335  -0.46430  -0.46334  -0.44732  -0.44460
 Alpha  occ. eigenvalues --   -0.37224  -0.36233
 Alpha virt. eigenvalues --    0.05151   0.11355   0.16627   0.19746   0.22616
 Alpha virt. eigenvalues --    0.23786   0.24586   0.26079   0.26625   0.28317
 Alpha virt. eigenvalues --    0.29465   0.29978   0.30981   0.31682   0.31764

 Mulliken charges:
               1
     1  C   -0.175587
     2  C   -0.218399
     3  C   -0.171652
     4  C    0.158849
     5  C   -0.173579
     6  C   -0.224174
     7  H    0.226367
     8  H    0.222830
     9  H    0.275070
    10  H    0.275122
    11  H    0.236554
    12  N    0.488036
    13  O   -0.460714
    14  O   -0.460878
    15  C   -0.298696
    16  C   -0.300576
    17  C   -0.476395
    18  H    0.151256
    19  H    0.151553
    20  H    0.152484
    21  H    0.154095
    22  H    0.155401
    23  H    0.155595
    24  H    0.163992
    25  C   -0.301670
    26  C   -0.299086
    27  C   -0.483190
    28  H    0.142575
    29  H    0.152901
    30  H    0.155820
    31  H    0.156277
    32  H    0.153252
    33  H    0.149671
    34  H    0.166896
 Sum of Mulliken charges =  -0.00000

 Dipole moment (field-independent basis, Debye):
    X=              2.3947    Y=              4.6737    Z=              0.7188  Tot=              5.3004
 Quadrupole moment (field-independent basis, Debye-Ang):
   XX=           -103.6542   YY=            -97.4255   ZZ=            -93.1064
   XY=            -14.7367   XZ=             -4.4734   YZ=              0.7551

 Normal termination of Gaussian 16 at Thu May  6 17:32:56 2021.
