 Gaussian 16, Revision A.03,
 Gaussian 16:  EM64L-G16RevA.03 25-Dec-2016

 -------------
 #p 6-31g* mp2
 -------------

 ------------------------------------------------------
 Input file generated by CHIRIPA (05-May-2021 14:55:20)
 ------------------------------------------------------
 Symbolic Z-matrix:
 Charge =  0 Multiplicity = 1

                         Standard orientation:
 ---------------------------------------------------------------------
 Center     Atomic      Atomic             Coordinates (Angstroms)
 Number     Number       Type             X           Y           Z
 ---------------------------------------------------------------------
      1          6           0       -4.908271    1.771154    0.586010
      2          6           0       -3.703010    2.233716    0.047583
      3          6           0       -2.728316    1.331934   -0.389805
      4          6           0       -2.993239   -0.031721   -0.273397
      5          6           0       -4.184187   -0.523585    0.258582
      6          6           0       -5.144596    0.396404    0.689608
      7          1           0       -5.659889    2.478752    0.923312
      8          1           0       -3.516752    3.300807   -0.034092
      9          1           0       -1.786523    1.662680   -0.810579
     10          1           0       -4.341142   -1.593202    0.327146
     11          1           0       -6.079704    0.034305    1.107344
     12          7           0       -1.968935   -0.996034   -0.733073
     13          8           0       -2.226576   -2.192444   -0.619665
     14          8           0       -0.927839   -0.537194   -1.198070
     15          6           0        4.660573    0.058737   -0.145018
     16          6           0        5.261171    1.375118    0.349358
     17          6           0        6.487110    1.805199   -0.456806
     18          1           0        5.426691   -0.727227   -0.097405
     19          1           0        4.385950    0.163815   -1.203761
     20          1           0        5.533307    1.268028    1.407228
     21          1           0        4.493479    2.157998    0.300743
     22          1           0        6.226738    1.939667   -1.511664
     23          1           0        7.272475    1.044640   -0.398891
     24          1           0        6.900411    2.748536   -0.086461
     25          6           0        3.434291   -0.384394    0.650970
     26          6           0        2.833692   -1.700776    0.156593
     27          6           0        1.607754   -2.130855    0.962756
     28          1           0        3.708914   -0.489472    1.709712
     29          1           0        2.668172    0.401571    0.603356
     30          1           0        3.601385   -2.483654    0.205209
     31          1           0        2.561557   -1.593685   -0.901277
     32          1           0        0.822389   -1.370297    0.904843
     33          1           0        1.868125   -2.265323    2.017615
     34          1           0        1.194453   -3.074194    0.592412
 ---------------------------------------------------------------------

 SCF Done:  E(RHF) =  -669.536095576     A.U. after   15 cycles
 E2 =    -0.2091264690D+01 EUMP2 =    -0.67162736026644D+03

 The electronic state is 1-A.
 Alpha  occ. eigenvalues --  -20.60951 -20.60945 -15.85971 -11.31299 -11.27865
 Alpha  occ. eigenvalues --  -11.27856 -11.27598 -11.26869 -11.26858 -11.21064
 Alpha  occ. eigenvalues --  -11.20642 -11.20632 -11.20442 -11.20311 -11.19570
 Alpha  occ. eigenvalues --   -1.60004  -1.39561  -1.19466  -1.08870  -1.07566
 Alpha  occ. eigenvalues --   -1.04863  -1.02594  -0.95713  -0.95048  -0.86263
 Alpha  occ. eigenvalues --   -0.86076  -0.82546  -0.78715  -0.77600  -0.77342
 Alpha  occ. eigenvalues --   -0.72197  -0.71327  -0.70575  -0.65122  -0.64866
 Alpha  occ. eigenvalues --   -0.64193  -0.62211  -0.59976  -0.58476  -0.56647
 Alpha  occ. eigenvalues --   -0.55369  -0.54342  -0.53191  -0.52955  -0.51732
 Alpha  occ. eigenvalues --   -0.51494  -0.49169  -0.48952  -0.48788  -0.47024
 Alpha  occ. eigenvalues --   -0.45777  -0.45042  -0.44838  -0.44687  -0.42858
 Alpha  occ. eigenvalues --   -0.37443  -0.36464
 Alpha virt. eigenvalues --    0.04905   0.11191   0.16386   0.21317   0.23677
 Alpha virt. eigenvalues --    0.25303   0.27226   0.27437   0.28199   0.28346
 Alpha virt. eigenvalues --    0.28939   0.30877   0.32180   0.32526   0.32536

 Mulliken charges:
               1
     1  C   -0.170565
     2  C   -0.218490
     3  C   -0.170929
     4  C    0.158609
     5  C   -0.170706
     6  C   -0.218544
     7  H    0.226039
     8  H    0.223831
     9  H    0.275379
    10  H    0.275985
    11  H    0.223889
    12  N    0.487797
    13  O   -0.458085
    14  O   -0.459982
    15  C   -0.297952
    16  C   -0.298610
    17  C   -0.475195
    18  H    0.148119
    19  H    0.150654
    20  H    0.150285
    21  H    0.149670
    22  H    0.154861
    23  H    0.154746
    24  H    0.157697
    25  C   -0.297547
    26  C   -0.299234
    27  C   -0.473644
    28  H    0.145072
    29  H    0.149174
    30  H    0.145922
    31  H    0.161602
    32  H    0.160101
    33  H    0.143558
    34  H    0.166496
 Sum of Mulliken charges =  -0.00000

 Dipole moment (field-independent basis, Debye):
    X=             -3.9180    Y=              3.3495    Z=              1.4901  Tot=              5.3656
 Quadrupole moment (field-independent basis, Debye-Ang):
   XX=            -73.1020   YY=            -92.3164   ZZ=            -96.1879
   XY=             -8.4457   XZ=             -4.4827   YZ=             -2.0179

 Normal termination of Gaussian 16 at Wed May  5 20:32:43 2021.
