 Gaussian 16, Revision A.03,
 Gaussian 16:  EM64L-G16RevA.03 25-Dec-2016

 -------------
 #p 6-31g* mp2
 -------------

 ------------------------------------------------------
 Input file generated by CHIRIPA (05-May-2021 14:55:23)
 ------------------------------------------------------
 Symbolic Z-matrix:
 Charge =  0 Multiplicity = 1

                         Standard orientation:
 ---------------------------------------------------------------------
 Center     Atomic      Atomic             Coordinates (Angstroms)
 Number     Number       Type             X           Y           Z
 ---------------------------------------------------------------------
      1          6           0        1.087970   -2.253731   -0.140049
      2          6           0        1.160807   -1.547126    1.064910
      3          6           0        1.969039   -0.411643    1.174394
      4          6           0        2.694209   -0.009040    0.053978
      5          6           0        2.642671   -0.691872   -1.160260
      6          6           0        1.827829   -1.824605   -1.246837
      7          1           0        0.457548   -3.134734   -0.216201
      8          1           0        0.587330   -1.878084    1.926092
      9          1           0        2.043987    0.154072    2.095136
     10          1           0        3.226009   -0.337645   -2.001484
     11          1           0        1.773208   -2.371406   -2.183891
     12          7           0        3.553346    1.191590    0.157759
     13          8           0        4.182371    1.525758   -0.843888
     14          8           0        3.581446    1.775741    1.238784
     15          6           0       -3.634026    0.917463    0.104720
     16          6           0       -2.947180    2.150155   -0.484092
     17          6           0       -3.692640    3.448027   -0.171664
     18          1           0       -4.659457    0.855861   -0.284692
     19          1           0       -3.719891    1.039123    1.193398
     20          1           0       -2.861393    2.025590   -1.571170
     21          1           0       -1.923202    2.208724   -0.093381
     22          1           0       -3.765980    3.599319    0.910155
     23          1           0       -4.709501    3.415146   -0.576031
     24          1           0       -3.184332    4.316530   -0.601997
     25          6           0       -2.900661   -0.387752   -0.199118
     26          6           0       -3.587509   -1.620443    0.389694
     27          6           0       -2.842048   -2.918315    0.077266
     28          1           0       -2.814798   -0.509412   -1.287797
     29          1           0       -1.875231   -0.326149    0.190294
     30          1           0       -4.611486   -1.679012   -0.001017
     31          1           0       -3.673295   -1.495879    1.476773
     32          1           0       -1.825186   -2.885435    0.481633
     33          1           0       -2.768708   -3.069609   -1.004552
     34          1           0       -3.350356   -3.786818    0.507600
 ---------------------------------------------------------------------

 SCF Done:  E(RHF) =  -669.535280288     A.U. after   15 cycles
 E2 =    -0.2092353201D+01 EUMP2 =    -0.67162763348929D+03

 The electronic state is 1-A.
 Alpha  occ. eigenvalues --  -20.60788 -20.60783 -15.85843 -11.31216 -11.27812
 Alpha  occ. eigenvalues --  -11.27791 -11.27509 -11.26825 -11.26779 -11.22285
 Alpha  occ. eigenvalues --  -11.22078 -11.21827 -11.21782 -11.21684 -11.21170
 Alpha  occ. eigenvalues --   -1.59864  -1.39417  -1.19398  -1.08877  -1.08776
 Alpha  occ. eigenvalues --   -1.04806  -1.04003  -0.96473  -0.95618  -0.87498
 Alpha  occ. eigenvalues --   -0.86201  -0.82454  -0.80081  -0.78629  -0.77499
 Alpha  occ. eigenvalues --   -0.72061  -0.71188  -0.70518  -0.65517  -0.65049
 Alpha  occ. eigenvalues --   -0.64805  -0.62159  -0.61401  -0.59854  -0.58068
 Alpha  occ. eigenvalues --   -0.55855  -0.55242  -0.53180  -0.53125  -0.52894
 Alpha  occ. eigenvalues --   -0.52867  -0.50429  -0.48821  -0.48815  -0.48378
 Alpha  occ. eigenvalues --   -0.47102  -0.46179  -0.46078  -0.44821  -0.44223
 Alpha  occ. eigenvalues --   -0.37327  -0.36400
 Alpha virt. eigenvalues --    0.05028   0.11135   0.16478   0.20245   0.22641
 Alpha virt. eigenvalues --    0.24028   0.25815   0.26333   0.27165   0.27554
 Alpha virt. eigenvalues --    0.29018   0.30565   0.30962   0.31322   0.32050

 Mulliken charges:
               1
     1  C   -0.169385
     2  C   -0.220044
     3  C   -0.171706
     4  C    0.158298
     5  C   -0.170387
     6  C   -0.219418
     7  H    0.229724
     8  H    0.223659
     9  H    0.275684
    10  H    0.275789
    11  H    0.223830
    12  N    0.488129
    13  O   -0.460264
    14  O   -0.460553
    15  C   -0.298554
    16  C   -0.300148
    17  C   -0.476043
    18  H    0.150004
    19  H    0.149228
    20  H    0.152086
    21  H    0.154239
    22  H    0.155518
    23  H    0.154731
    24  H    0.162856
    25  C   -0.302073
    26  C   -0.299426
    27  C   -0.478105
    28  H    0.149220
    29  H    0.152631
    30  H    0.155049
    31  H    0.151970
    32  H    0.144770
    33  H    0.155674
    34  H    0.163017
 Sum of Mulliken charges =  -0.00000

 Dipole moment (field-independent basis, Debye):
    X=             -3.0626    Y=             -4.1651    Z=             -0.4118  Tot=              5.1862
 Quadrupole moment (field-independent basis, Debye-Ang):
   XX=           -111.1528   YY=            -96.3105   ZZ=            -89.5707
   XY=            -11.2578   XZ=             -2.1376   YZ=              0.4373

 Normal termination of Gaussian 16 at Thu May  6 20:50:14 2021.
