 Gaussian 16, Revision A.03,
 Gaussian 16:  EM64L-G16RevA.03 25-Dec-2016

 -------------
 #p 6-31g* mp2
 -------------

 ------------------------------------------------------
 Input file generated by CHIRIPA (05-May-2021 14:57:24)
 ------------------------------------------------------
 Symbolic Z-matrix:
 Charge =  0 Multiplicity = 1

                         Standard orientation:
 ---------------------------------------------------------------------
 Center     Atomic      Atomic             Coordinates (Angstroms)
 Number     Number       Type             X           Y           Z
 ---------------------------------------------------------------------
      1          6           0       -5.262333   -2.030191   -0.049728
      2          6           0       -5.356003   -1.074447   -1.066734
      3          6           0       -4.566044    0.078524   -1.032498
      4          6           0       -3.689161    0.244375    0.038417
      5          6           0       -3.572995   -0.689655    1.066709
      6          6           0       -4.372697   -1.835088    1.011876
      7          1           0       -5.879776   -2.922919   -0.084323
      8          1           0       -6.046029   -1.223327   -1.892411
      9          1           0       -4.618406    0.834490   -1.806573
     10          1           0       -2.875900   -0.513435    1.876909
     11          1           0       -4.297839   -2.575648    1.803085
     12          7           0       -2.847710    1.460984    0.085564
     13          8           0       -2.082978    1.583620    1.039912
     14          8           0       -2.968846    2.268889   -0.832724
     15          6           0        2.111958    1.790057    0.211022
     16          6           0        3.471366    2.109523    0.130566
     17          6           0        4.430865    1.101582   -0.003472
     18          6           0        3.993728   -0.221160   -0.054010
     19          6           0        2.646649   -0.571365    0.023609
     20          6           0        1.704657    0.452989    0.157381
     21          1           0        1.373396    2.579424    0.315042
     22          1           0        3.790580    3.147037    0.171956
     23          1           0        5.489743    1.320742   -0.067999
     24          1           0        2.358977   -1.614782   -0.020481
     25          1           0        0.649601    0.201936    0.219628
     26          7           0        5.000240   -1.296910   -0.195769
     27          8           0        4.589341   -2.454503   -0.237903
     28          8           0        6.180984   -0.962119   -0.262062
 ---------------------------------------------------------------------

 SCF Done:  E(RHF) =  -868.340432945     A.U. after   16 cycles
 E2 =    -0.2598307346D+01 EUMP2 =    -0.87093874029140D+03

 The electronic state is 1-A.
 Alpha  occ. eigenvalues --  -20.61949 -20.61901 -20.60253 -20.60246 -15.86932
 Alpha  occ. eigenvalues --  -15.85300 -11.31993 -11.30468 -11.28532 -11.28502
 Alpha  occ. eigenvalues --  -11.28182 -11.27456 -11.27440 -11.27031 -11.27017
 Alpha  occ. eigenvalues --  -11.26537 -11.25948 -11.25853  -1.60988  -1.59333
 Alpha  occ. eigenvalues --   -1.40547  -1.38893  -1.20133  -1.18601  -1.09582
 Alpha  occ. eigenvalues --   -1.07991  -1.05483  -1.03984  -0.96466  -0.94869
 Alpha  occ. eigenvalues --   -0.86895  -0.85360  -0.83305  -0.81724  -0.78394
 Alpha  occ. eigenvalues --   -0.76833  -0.73157  -0.72293  -0.71520  -0.71224
 Alpha  occ. eigenvalues --   -0.70655  -0.69609  -0.65782  -0.65473  -0.64231
 Alpha  occ. eigenvalues --   -0.63946  -0.62832  -0.61343  -0.55982  -0.54341
 Alpha  occ. eigenvalues --   -0.53834  -0.53564  -0.52318  -0.52054  -0.49939
 Alpha  occ. eigenvalues --   -0.49893  -0.48290  -0.48258  -0.45999  -0.44344
 Alpha  occ. eigenvalues --   -0.38089  -0.37074  -0.36511  -0.35609
 Alpha virt. eigenvalues --    0.04084   0.05704   0.10574   0.12068   0.15625
 Alpha virt. eigenvalues --    0.17273   0.20746   0.22353   0.26657   0.27361
 Alpha virt. eigenvalues --    0.28201   0.29286   0.30413   0.31505   0.32383

 Mulliken charges:
               1
     1  C   -0.169516
     2  C   -0.218302
     3  C   -0.170328
     4  C    0.156611
     5  C   -0.173068
     6  C   -0.218178
     7  H    0.228975
     8  H    0.226384
     9  H    0.276839
    10  H    0.274884
    11  H    0.226480
    12  N    0.487631
    13  O   -0.468555
    14  O   -0.456046
    15  C   -0.172154
    16  C   -0.219694
    17  C   -0.172136
    18  C    0.157654
    19  C   -0.173030
    20  C   -0.220809
    21  H    0.240433
    22  H    0.222217
    23  H    0.272943
    24  H    0.270745
    25  H    0.227716
    26  N    0.488319
    27  O   -0.463716
    28  O   -0.462299
 Sum of Mulliken charges =  -0.00000

 Dipole moment (field-independent basis, Debye):
    X=             -7.0558    Y=             -0.4144    Z=              0.2991  Tot=              7.0743
 Quadrupole moment (field-independent basis, Debye-Ang):
   XX=           -108.5536   YY=           -106.3216   ZZ=           -102.2257
   XY=             34.2568   XZ=              4.9970   YZ=             -2.2247

 Normal termination of Gaussian 16 at Wed May  5 21:03:22 2021.
