 Gaussian 16, Revision A.03,
 Gaussian 16:  EM64L-G16RevA.03 25-Dec-2016

 -------------
 #p 6-31g* mp2
 -------------

 ------------------------------------------------------
 Input file generated by CHIRIPA (05-May-2021 14:55:21)
 ------------------------------------------------------
 Symbolic Z-matrix:
 Charge =  0 Multiplicity = 1

                         Standard orientation:
 ---------------------------------------------------------------------
 Center     Atomic      Atomic             Coordinates (Angstroms)
 Number     Number       Type             X           Y           Z
 ---------------------------------------------------------------------
      1          6           0        1.839324   -2.403699    1.039276
      2          6           0        0.838916   -1.549870    0.563166
      3          6           0        1.170029   -0.318856   -0.010870
      4          6           0        2.517668    0.028112   -0.093169
      5          6           0        3.537289   -0.800837    0.372133
      6          6           0        3.182949   -2.027122    0.942411
      7          1           0        1.573086   -3.358144    1.483741
      8          1           0       -0.205388   -1.839715    0.637078
      9          1           0        0.415745    0.361335   -0.387452
     10          1           0        4.569579   -0.484398    0.284605
     11          1           0        3.961996   -2.688206    1.311326
     12          7           0        2.880497    1.328828   -0.698885
     13          8           0        4.075134    1.611284   -0.759698
     14          8           0        1.963376    2.041244   -1.101364
     15          6           0       -2.990677   -0.324638   -0.500721
     16          6           0       -3.795686   -1.598033   -0.239168
     17          6           0       -3.473727   -2.715334   -1.232029
     18          1           0       -3.189211    0.023433   -1.523646
     19          1           0       -1.918571   -0.560744   -0.453446
     20          1           0       -4.865956   -1.359312   -0.285553
     21          1           0       -3.595360   -1.943005    0.783320
     22          1           0       -2.413124   -2.982053   -1.181209
     23          1           0       -3.690938   -2.395042   -2.256155
     24          1           0       -4.060322   -3.616224   -1.026691
     25          6           0       -3.301468    0.801467    0.483670
     26          6           0       -2.496459    2.074862    0.222116
     27          6           0       -2.818418    3.192163    1.214977
     28          1           0       -4.373575    1.037574    0.436394
     29          1           0       -3.102934    0.453396    1.506595
     30          1           0       -2.696785    2.419836   -0.800371
     31          1           0       -1.426189    1.836142    0.268502
     32          1           0       -2.601207    2.871872    2.239104
     33          1           0       -3.879022    3.458882    1.164158
     34          1           0       -2.231824    4.093053    1.009640
 ---------------------------------------------------------------------

 SCF Done:  E(RHF) =  -669.534698846     A.U. after   15 cycles
 E2 =    -0.2093250255D+01 EUMP2 =    -0.67162794910149D+03

 The electronic state is 1-A.
 Alpha  occ. eigenvalues --  -20.60758 -20.60753 -15.85808 -11.31171 -11.27749
 Alpha  occ. eigenvalues --  -11.27711 -11.27492 -11.26764 -11.26740 -11.22355
 Alpha  occ. eigenvalues --  -11.22182 -11.21898 -11.21835 -11.21798 -11.21143
 Alpha  occ. eigenvalues --   -1.59831  -1.39385  -1.19348  -1.09038  -1.08743
 Alpha  occ. eigenvalues --   -1.04759  -1.04016  -0.96472  -0.95579  -0.87484
 Alpha  occ. eigenvalues --   -0.86154  -0.82426  -0.80103  -0.78859  -0.77442
 Alpha  occ. eigenvalues --   -0.72028  -0.71153  -0.70474  -0.65770  -0.64989
 Alpha  occ. eigenvalues --   -0.64778  -0.62078  -0.61415  -0.59845  -0.58056
 Alpha  occ. eigenvalues --   -0.55785  -0.55258  -0.53130  -0.53081  -0.52917
 Alpha  occ. eigenvalues --   -0.52815  -0.50429  -0.48788  -0.48785  -0.48390
 Alpha  occ. eigenvalues --   -0.47170  -0.46321  -0.46251  -0.44788  -0.44293
 Alpha  occ. eigenvalues --   -0.37330  -0.36353
 Alpha virt. eigenvalues --    0.05051   0.11249   0.16533   0.18812   0.22664
 Alpha virt. eigenvalues --    0.23371   0.24850   0.26265   0.27318   0.28228
 Alpha virt. eigenvalues --    0.29109   0.31116   0.31295   0.31748   0.32735

 Mulliken charges:
               1
     1  C   -0.170655
     2  C   -0.226257
     3  C   -0.181141
     4  C    0.158970
     5  C   -0.170292
     6  C   -0.218798
     7  H    0.225768
     8  H    0.228480
     9  H    0.287575
    10  H    0.275575
    11  H    0.223487
    12  N    0.487858
    13  O   -0.460375
    14  O   -0.461109
    15  C   -0.304603
    16  C   -0.301066
    17  C   -0.476168
    18  H    0.156766
    19  H    0.140142
    20  H    0.157114
    21  H    0.148525
    22  H    0.149467
    23  H    0.159969
    24  H    0.162578
    25  C   -0.299104
    26  C   -0.305139
    27  C   -0.476162
    28  H    0.152974
    29  H    0.147737
    30  H    0.157099
    31  H    0.154285
    32  H    0.154174
    33  H    0.155021
    34  H    0.167305
 Sum of Mulliken charges =  -0.00000

 Dipole moment (field-independent basis, Debye):
    X=             -1.4368    Y=             -4.4469    Z=              2.0797  Tot=              5.1151
 Quadrupole moment (field-independent basis, Debye-Ang):
   XX=            -95.2208   YY=            -95.7257   ZZ=            -95.8094
   XY=            -13.1533   XZ=              7.2547   YZ=             -0.5009

 Normal termination of Gaussian 16 at Thu May  6 02:59:28 2021.
