 Gaussian 16, Revision A.03,
 Gaussian 16:  EM64L-G16RevA.03 25-Dec-2016

 -------------
 #p 6-31g* mp2
 -------------

 ------------------------------------------------------
 Input file generated by CHIRIPA (05-May-2021 14:53:12)
 ------------------------------------------------------
 Symbolic Z-matrix:
 Charge =  0 Multiplicity = 1

                         Standard orientation:
 ---------------------------------------------------------------------
 Center     Atomic      Atomic             Coordinates (Angstroms)
 Number     Number       Type             X           Y           Z
 ---------------------------------------------------------------------
      1          6           0       -3.688127   -0.736033   -0.099689
      2          6           0       -2.736974   -0.752477    1.097401
      3          6           0       -1.442381   -1.514814    0.813384
      4          1           0       -3.925002   -1.769910   -0.385931
      5          1           0       -3.175971   -0.283081   -0.959878
      6          1           0       -3.251238   -1.204005    1.955463
      7          1           0       -2.502488    0.281560    1.380947
      8          1           0       -0.904804   -1.061861   -0.025930
      9          1           0       -1.657809   -2.555867    0.551851
     10          1           0       -0.777106   -1.514029    1.682445
     11          6           0       -4.986789    0.022340    0.168780
     12          6           0       -5.937942    0.038785   -1.028309
     13          6           0       -7.232535    0.801121   -0.744292
     14          1           0       -5.498945   -0.430612    1.028969
     15          1           0       -4.749914    1.056217    0.455022
     16          1           0       -6.172428   -0.995253   -1.311855
     17          1           0       -5.423678    0.490312   -1.886371
     18          1           0       -7.017107    1.842174   -0.482759
     19          1           0       -7.770112    0.348168    0.095022
     20          1           0       -7.897810    0.800336   -1.613354
     21          6           0        5.262626   -1.250712   -0.744437
     22          6           0        4.062557   -1.789415   -0.268882
     23          6           0        3.017468   -0.951487    0.131385
     24          6           0        3.207468    0.426652    0.042371
     25          6           0        4.391254    0.993691   -0.427108
     26          6           0        5.422862    0.136676   -0.821895
     27          1           0        6.069240   -1.909049   -1.053245
     28          1           0        3.935308   -2.866495   -0.207631
     29          1           0        2.077936   -1.341783    0.503362
     30          1           0        4.488519    2.071423   -0.476627
     31          1           0        6.353753    0.557845   -1.190817
     32          7           0        2.108216    1.323834    0.463215
     33          8           0        2.300581    2.534560    0.375053
     34          8           0        1.075071    0.799328    0.873267
 ---------------------------------------------------------------------

 SCF Done:  E(RHF) =  -669.535737089     A.U. after   15 cycles
 E2 =    -0.2091391990D+01 EUMP2 =    -0.67162712907903D+03

 The electronic state is 1-A.
 Alpha  occ. eigenvalues --  -20.60864 -20.60850 -15.85897 -11.31225 -11.27798
 Alpha  occ. eigenvalues --  -11.27771 -11.27537 -11.26806 -11.26791 -11.21093
 Alpha  occ. eigenvalues --  -11.20756 -11.20687 -11.20628 -11.20625 -11.20130
 Alpha  occ. eigenvalues --   -1.59933  -1.39488  -1.19398  -1.08804  -1.07736
 Alpha  occ. eigenvalues --   -1.04794  -1.02816  -0.95657  -0.95273  -0.86321
 Alpha  occ. eigenvalues --   -0.86193  -0.82476  -0.78915  -0.77580  -0.77483
 Alpha  occ. eigenvalues --   -0.72132  -0.71251  -0.70506  -0.65058  -0.64798
 Alpha  occ. eigenvalues --   -0.64352  -0.62142  -0.60185  -0.58664  -0.56887
 Alpha  occ. eigenvalues --   -0.55302  -0.54557  -0.53129  -0.52892  -0.51984
 Alpha  occ. eigenvalues --   -0.51726  -0.49312  -0.48882  -0.48787  -0.47228
 Alpha  occ. eigenvalues --   -0.45927  -0.45115  -0.45013  -0.44808  -0.43086
 Alpha  occ. eigenvalues --   -0.37383  -0.36397
 Alpha virt. eigenvalues --    0.04974   0.11248   0.16462   0.21158   0.23554
 Alpha virt. eigenvalues --    0.24744   0.26475   0.27365   0.27715   0.28186
 Alpha virt. eigenvalues --    0.29236   0.30691   0.31632   0.32229   0.32544

 Mulliken charges:
               1
     1  C   -0.298420
     2  C   -0.300559
     3  C   -0.473866
     4  H    0.145270
     5  H    0.150561
     6  H    0.146902
     7  H    0.164283
     8  H    0.162056
     9  H    0.142772
    10  H    0.161305
    11  C   -0.298306
    12  C   -0.299149
    13  C   -0.475428
    14  H    0.147780
    15  H    0.152144
    16  H    0.149945
    17  H    0.151819
    18  H    0.155811
    19  H    0.154236
    20  H    0.158467
    21  C   -0.170453
    22  C   -0.219520
    23  C   -0.173330
    24  C    0.156949
    25  C   -0.170702
    26  C   -0.218788
    27  H    0.225737
    28  H    0.224090
    29  H    0.281185
    30  H    0.275526
    31  H    0.223518
    32  N    0.491496
    33  O   -0.460034
    34  O   -0.463296
 Sum of Mulliken charges =  -0.00000

 Dipole moment (field-independent basis, Debye):
    X=              4.0542    Y=             -3.0088    Z=             -1.4484  Tot=              5.2523
 Quadrupole moment (field-independent basis, Debye-Ang):
   XX=            -70.2940   YY=            -94.4292   ZZ=            -95.4171
   XY=             -5.6504   XZ=             -5.7038   YZ=             -2.0119

 Normal termination of Gaussian 16 at Wed May  5 15:28:44 2021.
