 Gaussian 16, Revision A.03,
 Gaussian 16:  EM64L-G16RevA.03 25-Dec-2016

 -------------
 #p 6-31g* mp2
 -------------

 ------------------------------------------------------
 Input file generated by CHIRIPA (05-May-2021 14:53:18)
 ------------------------------------------------------
 Symbolic Z-matrix:
 Charge =  0 Multiplicity = 1

                         Standard orientation:
 ---------------------------------------------------------------------
 Center     Atomic      Atomic             Coordinates (Angstroms)
 Number     Number       Type             X           Y           Z
 ---------------------------------------------------------------------
      1          6           0        3.349703    0.691438    0.558788
      2          6           0        2.631882    1.862230   -0.113494
      3          6           0        1.420093    2.348226    0.682226
      4          1           0        2.640734   -0.137084    0.692430
      5          1           0        3.668745    0.995265    1.565414
      6          1           0        2.315506    1.556730   -1.119075
      7          1           0        3.342691    2.687991   -0.245725
      8          1           0        1.722629    2.679381    1.680930
      9          1           0        0.689608    1.541692    0.802618
     10          1           0        0.921919    3.185515    0.183599
     11          6           0        4.563282    0.194398   -0.224733
     12          6           0        5.281103   -0.976395    0.447550
     13          6           0        6.492891   -1.462391   -0.348170
     14          1           0        4.244240   -0.109430   -1.231359
     15          1           0        5.272250    1.022920   -0.358375
     16          1           0        4.570294   -1.802156    0.579780
     17          1           0        5.597479   -0.670895    1.453130
     18          1           0        7.223377   -0.655856   -0.468563
     19          1           0        6.190356   -1.793545   -1.346875
     20          1           0        6.991066   -2.299680    0.150456
     21          6           0       -0.661395   -0.893791   -0.534041
     22          6           0       -1.502236   -1.838853    0.062922
     23          6           0       -2.850101   -1.546218    0.291330
     24          6           0       -3.325896   -0.293074   -0.091476
     25          6           0       -2.513255    0.669589   -0.688288
     26          6           0       -1.168693    0.355212   -0.907084
     27          1           0        0.384376   -1.129562   -0.707740
     28          1           0       -1.111002   -2.809653    0.353662
     29          1           0       -3.523207   -2.259258    0.751678
     30          1           0       -2.932142    1.628821   -0.967259
     31          1           0       -0.518009    1.091109   -1.370882
     32          7           0       -4.751072    0.028235    0.145240
     33          8           0       -5.145860    1.139439   -0.201175
     34          8           0       -5.446350   -0.837212    0.672712
 ---------------------------------------------------------------------

 SCF Done:  E(RHF) =  -669.534368516     A.U. after   15 cycles
 E2 =    -0.2093140557D+01 EUMP2 =    -0.67162750907324D+03

 The electronic state is 1-A.
 Alpha  occ. eigenvalues --  -20.60780 -20.60774 -15.85832 -11.31222 -11.27772
 Alpha  occ. eigenvalues --  -11.27756 -11.27520 -11.26815 -11.26764 -11.22610
 Alpha  occ. eigenvalues --  -11.22365 -11.22352 -11.22216 -11.21798 -11.21703
 Alpha  occ. eigenvalues --   -1.59854  -1.39406  -1.19394  -1.09328  -1.08788
 Alpha  occ. eigenvalues --   -1.04806  -1.04355  -0.96794  -0.95617  -0.87809
 Alpha  occ. eigenvalues --   -0.86190  -0.82443  -0.80427  -0.79127  -0.77489
 Alpha  occ. eigenvalues --   -0.72051  -0.71176  -0.70511  -0.66036  -0.65040
 Alpha  occ. eigenvalues --   -0.64794  -0.62261  -0.61620  -0.60161  -0.58402
 Alpha  occ. eigenvalues --   -0.56156  -0.55264  -0.53481  -0.53318  -0.53007
 Alpha  occ. eigenvalues --   -0.52851  -0.50684  -0.48810  -0.48805  -0.48718
 Alpha  occ. eigenvalues --   -0.47490  -0.46652  -0.46607  -0.44807  -0.44627
 Alpha  occ. eigenvalues --   -0.37337  -0.36349
 Alpha virt. eigenvalues --    0.05012   0.11177   0.16415   0.18675   0.22642
 Alpha virt. eigenvalues --    0.23913   0.24975   0.25720   0.27034   0.28356
 Alpha virt. eigenvalues --    0.29411   0.30243   0.30877   0.31204   0.31796

 Mulliken charges:
               1
     1  C   -0.299539
     2  C   -0.302478
     3  C   -0.485855
     4  H    0.143321
     5  H    0.154919
     6  H    0.142753
     7  H    0.157574
     8  H    0.160482
     9  H    0.162994
    10  H    0.158324
    11  C   -0.298752
    12  C   -0.299516
    13  C   -0.476098
    14  H    0.146798
    15  H    0.153164
    16  H    0.148929
    17  H    0.154482
    18  H    0.157094
    19  H    0.154969
    20  H    0.162266
    21  C   -0.174854
    22  C   -0.218304
    23  C   -0.171188
    24  C    0.158998
    25  C   -0.172517
    26  C   -0.220022
    27  H    0.228269
    28  H    0.223630
    29  H    0.275719
    30  H    0.275954
    31  H    0.230866
    32  N    0.488005
    33  O   -0.460099
    34  O   -0.460288
 Sum of Mulliken charges =  -0.00000

 Dipole moment (field-independent basis, Debye):
    X=              5.1359    Y=             -1.0952    Z=             -0.7616  Tot=              5.3063
 Quadrupole moment (field-independent basis, Debye-Ang):
   XX=           -128.3374   YY=            -89.7949   ZZ=            -94.4566
   XY=              3.9290   XZ=              2.9662   YZ=             -1.5376

 Normal termination of Gaussian 16 at Wed May  5 23:39:19 2021.
