 Gaussian 16, Revision A.03,
 Gaussian 16:  EM64L-G16RevA.03 25-Dec-2016

 -------------
 #p 6-31g* mp2
 -------------

 ------------------------------------------------------
 Input file generated by CHIRIPA (05-May-2021 14:51:10)
 ------------------------------------------------------
 Symbolic Z-matrix:
 Charge =  0 Multiplicity = 1

                         Standard orientation:
 ---------------------------------------------------------------------
 Center     Atomic      Atomic             Coordinates (Angstroms)
 Number     Number       Type             X           Y           Z
 ---------------------------------------------------------------------
      1          6           0       -3.087442   -0.501601   -0.529638
      2          6           0       -2.681118   -1.760661    0.236948
      3          6           0       -2.090214   -2.840261   -0.670296
      4          1           0       -3.817930   -0.771547   -1.304532
      5          1           0       -2.209096   -0.100652   -1.054179
      6          1           0       -3.559660   -2.158336    0.761004
      7          1           0       -1.951656   -1.487657    1.010233
      8          1           0       -1.197930   -2.466642   -1.182974
      9          1           0       -2.815070   -3.141132   -1.433619
     10          1           0       -1.806644   -3.731427   -0.101727
     11          6           0       -3.679877    0.586839    0.363696
     12          6           0       -4.086201    1.845900   -0.402890
     13          6           0       -4.677105    2.925499    0.504354
     14          1           0       -4.558223    0.185890    0.888237
     15          1           0       -2.949389    0.856785    1.138590
     16          1           0       -4.815662    1.572895   -1.176175
     17          1           0       -3.207659    2.243574   -0.926947
     18          1           0       -3.952249    3.226370    1.267677
     19          1           0       -5.569389    2.551881    1.017032
     20          1           0       -4.960675    3.816665   -0.064216
     21          6           0        3.073008   -0.678379   -0.204670
     22          6           0        2.459769   -1.588829    0.859755
     23          6           0        1.842274   -2.856611    0.268802
     24          1           0        2.298718   -0.404973   -0.934512
     25          1           0        3.840316   -1.237644   -0.757713
     26          1           0        1.694813   -1.027591    1.411543
     27          1           0        3.235564   -1.859945    1.587255
     28          1           0        2.598662   -3.440586   -0.265475
     29          1           0        1.049157   -2.603503   -0.442184
     30          1           0        1.409744   -3.492942    1.047173
     31          6           0        3.694310    0.593141    0.370613
     32          6           0        4.307550    1.503591   -0.693813
     33          6           0        4.925045    2.771372   -0.102861
     34          1           0        2.927003    1.152405    0.923656
     35          1           0        4.468600    0.319735    1.100455
     36          1           0        3.531755    1.774706   -1.421312
     37          1           0        5.072506    0.942352   -1.245601
     38          1           0        5.718162    2.518264    0.608126
     39          1           0        4.168657    3.355348    0.431417
     40          1           0        5.357575    3.407703   -0.881230
 ---------------------------------------------------------------------

 SCF Done:  E(RHF) =  -470.733067977     A.U. after   11 cycles
 E2 =    -0.1582636766D+01 EUMP2 =    -0.47231570474338D+03

 The electronic state is 1-A.
 Alpha  occ. eigenvalues --  -11.21628 -11.21622 -11.21618 -11.21607 -11.21434
 Alpha  occ. eigenvalues --  -11.21428 -11.21374 -11.21369 -11.21093 -11.21089
 Alpha  occ. eigenvalues --  -11.21056 -11.21009  -1.08460  -1.08442  -1.03571
 Alpha  occ. eigenvalues --   -1.03514  -0.96043  -0.95939  -0.87077  -0.86938
 Alpha  occ. eigenvalues --   -0.79660  -0.79551  -0.78278  -0.78251  -0.65152
 Alpha  occ. eigenvalues --   -0.65024  -0.61137  -0.60770  -0.59402  -0.59312
 Alpha  occ. eigenvalues --   -0.57652  -0.57553  -0.55556  -0.55029  -0.52750
 Alpha  occ. eigenvalues --   -0.52616  -0.52483  -0.52339  -0.50183  -0.49676
 Alpha  occ. eigenvalues --   -0.47991  -0.47847  -0.46785  -0.46473  -0.45842
 Alpha  occ. eigenvalues --   -0.45778  -0.45760  -0.45658  -0.43833  -0.43761
 Alpha virt. eigenvalues --    0.20980   0.23236   0.23537   0.25305   0.26079
 Alpha virt. eigenvalues --    0.26576   0.27197   0.27300   0.27885   0.29234
 Alpha virt. eigenvalues --    0.29752   0.31146   0.31345   0.32164   0.32341

 Mulliken charges:
               1
     1  C   -0.298217
     2  C   -0.300626
     3  C   -0.477417
     4  H    0.149889
     5  H    0.148789
     6  H    0.152166
     7  H    0.152277
     8  H    0.156886
     9  H    0.155012
    10  H    0.161519
    11  C   -0.298269
    12  C   -0.299643
    13  C   -0.475712
    14  H    0.149717
    15  H    0.149418
    16  H    0.152068
    17  H    0.151726
    18  H    0.155121
    19  H    0.155286
    20  H    0.160333
    21  C   -0.298136
    22  C   -0.299701
    23  C   -0.480370
    24  H    0.148712
    25  H    0.149816
    26  H    0.151133
    27  H    0.151941
    28  H    0.154816
    29  H    0.161491
    30  H    0.159964
    31  C   -0.298241
    32  C   -0.299654
    33  C   -0.475707
    34  H    0.149231
    35  H    0.149834
    36  H    0.151791
    37  H    0.152057
    38  H    0.155259
    39  H    0.155108
    40  H    0.160333
 Sum of Mulliken charges =  -0.00000

 Dipole moment (field-independent basis, Debye):
    X=             -0.0130    Y=             -0.0186    Z=             -0.0043  Tot=              0.0231
 Quadrupole moment (field-independent basis, Debye-Ang):
   XX=            -83.4897   YY=            -86.0461   ZZ=            -85.1396
   XY=             -0.1173   XZ=              0.3122   YZ=             -0.7065

 Normal termination of Gaussian 16 at Thu May  6 03:49:07 2021.
