 Gaussian 16, Revision A.03,
 Gaussian 16:  EM64L-G16RevA.03 25-Dec-2016

 -------------
 #p 6-31g* mp2
 -------------

 ------------------------------------------------------
 Input file generated by CHIRIPA (05-May-2021 14:51:12)
 ------------------------------------------------------
 Symbolic Z-matrix:
 Charge =  0 Multiplicity = 1

                         Standard orientation:
 ---------------------------------------------------------------------
 Center     Atomic      Atomic             Coordinates (Angstroms)
 Number     Number       Type             X           Y           Z
 ---------------------------------------------------------------------
      1          6           0        2.866889    0.136940   -0.844509
      2          6           0        3.177414   -1.324022   -0.517174
      3          6           0        3.653241   -2.114728   -1.736258
      4          1           0        2.099963    0.175013   -1.630206
      5          1           0        3.765961    0.610965   -1.262078
      6          1           0        2.278422   -1.794776   -0.099060
      7          1           0        3.943552   -1.358620    0.267971
      8          1           0        4.564054   -1.671342   -2.151503
      9          1           0        2.889464   -2.109976   -2.520620
     10          1           0        3.869552   -3.156472   -1.479667
     11          6           0        2.390024    0.940423    0.364103
     12          6           0        2.079498    2.401386    0.036767
     13          6           0        1.603671    3.192092    1.255852
     14          1           0        1.490951    0.466398    0.781672
     15          1           0        3.156949    0.902350    1.149800
     16          1           0        1.313361    2.435984   -0.748377
     17          1           0        2.978490    2.872140   -0.381347
     18          1           0        2.367448    3.187340    2.040213
     19          1           0        0.692858    2.748706    1.671097
     20          1           0        1.387360    4.233836    0.999261
     21          6           0       -1.925139   -0.607526    0.530096
     22          6           0       -1.781354   -1.780491    1.500386
     23          6           0       -0.368702   -1.905141    2.071938
     24          1           0       -1.205259   -0.728703   -0.290901
     25          1           0       -1.654747    0.323042    1.048097
     26          1           0       -2.053267   -2.708405    0.981104
     27          1           0       -2.501792   -1.656607    2.319066
     28          1           0       -0.090865   -0.995531    2.614173
     29          1           0        0.360208   -2.053306    1.268609
     30          1           0       -0.288339   -2.749998    2.763037
     31          6           0       -3.331773   -0.469837   -0.049689
     32          6           0       -3.475558    0.703127   -1.019980
     33          6           0       -4.888210    0.827777   -1.591531
     34          1           0       -3.602165   -1.400406   -0.567691
     35          1           0       -4.051654   -0.348661    0.771307
     36          1           0       -2.755121    0.579243   -1.838660
     37          1           0       -3.203644    1.631041   -0.500697
     38          1           0       -5.617119    0.975942   -0.788202
     39          1           0       -5.166047   -0.081833   -2.133767
     40          1           0       -4.968572    1.672634   -2.282630
 ---------------------------------------------------------------------

 SCF Done:  E(RHF) =  -470.733045342     A.U. after   11 cycles
 E2 =    -0.1584112992D+01 EUMP2 =    -0.47231715833421D+03

 The electronic state is 1-A.
 Alpha  occ. eigenvalues --  -11.21675 -11.21660 -11.21576 -11.21540 -11.21500
 Alpha  occ. eigenvalues --  -11.21431 -11.21347 -11.21248 -11.21115 -11.21113
 Alpha  occ. eigenvalues --  -11.21067 -11.21050  -1.08515  -1.08375  -1.03598
 Alpha  occ. eigenvalues --   -1.03497  -0.96049  -0.95944  -0.87066  -0.86962
 Alpha  occ. eigenvalues --   -0.79677  -0.79558  -0.78383  -0.78128  -0.65167
 Alpha  occ. eigenvalues --   -0.64999  -0.61077  -0.60828  -0.59416  -0.59314
 Alpha  occ. eigenvalues --   -0.57675  -0.57543  -0.55368  -0.55210  -0.52733
 Alpha  occ. eigenvalues --   -0.52669  -0.52468  -0.52372  -0.50073  -0.49831
 Alpha  occ. eigenvalues --   -0.48070  -0.47880  -0.46822  -0.46471  -0.46120
 Alpha  occ. eigenvalues --   -0.45770  -0.45701  -0.45248  -0.43854  -0.43739
 Alpha virt. eigenvalues --    0.20101   0.22809   0.23391   0.24083   0.25953
 Alpha virt. eigenvalues --    0.26253   0.26681   0.28107   0.28276   0.29209
 Alpha virt. eigenvalues --    0.30551   0.31573   0.31699   0.31945   0.32149

 Mulliken charges:
               1
     1  C   -0.297756
     2  C   -0.307198
     3  C   -0.475094
     4  H    0.148782
     5  H    0.149398
     6  H    0.158102
     7  H    0.152372
     8  H    0.155354
     9  H    0.154565
    10  H    0.160148
    11  C   -0.305359
    12  C   -0.299260
    13  C   -0.475962
    14  H    0.158504
    15  H    0.148937
    16  H    0.152151
    17  H    0.151520
    18  H    0.155123
    19  H    0.154472
    20  H    0.160095
    21  C   -0.300118
    22  C   -0.299377
    23  C   -0.484437
    24  H    0.149556
    25  H    0.149914
    26  H    0.152108
    27  H    0.152327
    28  H    0.156666
    29  H    0.162481
    30  H    0.160941
    31  C   -0.298380
    32  C   -0.299760
    33  C   -0.475762
    34  H    0.149864
    35  H    0.150101
    36  H    0.151692
    37  H    0.152155
    38  H    0.155361
    39  H    0.155284
    40  H    0.160491
 Sum of Mulliken charges =  -0.00000

 Dipole moment (field-independent basis, Debye):
    X=             -0.0381    Y=             -0.0265    Z=              0.0223  Tot=              0.0515
 Quadrupole moment (field-independent basis, Debye-Ang):
   XX=            -84.8203   YY=            -84.9266   ZZ=            -84.9952
   XY=              0.5330   XZ=             -0.1615   YZ=              0.0411

 Normal termination of Gaussian 16 at Wed May  5 19:53:28 2021.
