 Gaussian 16, Revision A.03,
 Gaussian 16:  EM64L-G16RevA.03 25-Dec-2016

 -------------
 #p 6-31g* mp2
 -------------

 ------------------------------------------------------
 Input file generated by CHIRIPA (05-May-2021 14:51:09)
 ------------------------------------------------------
 Symbolic Z-matrix:
 Charge =  0 Multiplicity = 1

                         Standard orientation:
 ---------------------------------------------------------------------
 Center     Atomic      Atomic             Coordinates (Angstroms)
 Number     Number       Type             X           Y           Z
 ---------------------------------------------------------------------
      1          6           0        2.867026   -0.157224   -0.159204
      2          6           0        3.630873   -1.136804    0.732393
      3          6           0        3.476356   -2.589810    0.282179
      4          1           0        1.802750   -0.429678   -0.164708
      5          1           0        3.221622   -0.261104   -1.194031
      6          1           0        3.275913   -1.030132    1.765467
      7          1           0        4.693424   -0.861871    0.735927
      8          1           0        3.848434   -2.718215   -0.739423
      9          1           0        2.422870   -2.887432    0.295967
     10          1           0        4.030449   -3.272980    0.933424
     11          6           0        3.011768    1.299319    0.278128
     12          6           0        2.247921    2.278900   -0.613469
     13          6           0        2.402438    3.731905   -0.163255
     14          1           0        2.657171    1.403199    1.312955
     15          1           0        4.076044    1.571773    0.283632
     16          1           0        1.185370    2.003967   -0.617003
     17          1           0        2.602880    2.172228   -1.646543
     18          1           0        3.455924    4.029527   -0.177043
     19          1           0        2.030359    3.860310    0.858346
     20          1           0        1.848345    4.415075   -0.814500
     21          6           0       -3.666511   -0.392281    0.091467
     22          6           0       -3.921371    1.114321    0.147887
     23          6           0       -5.380571    1.456097    0.450735
     24          1           0       -4.315716   -0.839137   -0.673907
     25          1           0       -3.958135   -0.842605    1.050403
     26          1           0       -3.628057    1.561869   -0.810385
     27          1           0       -3.271346    1.557670    0.913083
     28          1           0       -5.682199    1.036483    1.415901
     29          1           0       -6.040938    1.040706   -0.317358
     30          1           0       -5.540361    2.538248    0.486443
     31          6           0       -2.212283   -0.749814   -0.210391
     32          6           0       -1.957423   -2.256416   -0.266810
     33          6           0       -0.498222   -2.598193   -0.569659
     34          1           0       -1.920659   -0.299490   -1.169327
     35          1           0       -1.563078   -0.302958    0.554983
     36          1           0       -2.607448   -2.699766   -1.032006
     37          1           0       -2.250736   -2.703964    0.691461
     38          1           0        0.162143   -2.182801    0.198435
     39          1           0       -0.196595   -2.178578   -1.534824
     40          1           0       -0.338433   -3.680344   -0.605368
 ---------------------------------------------------------------------

 SCF Done:  E(RHF) =  -470.732467356     A.U. after   11 cycles
 E2 =    -0.1583735874D+01 EUMP2 =    -0.47231620322941D+03

 The electronic state is 1-A.
 Alpha  occ. eigenvalues --  -11.21667 -11.21646 -11.21548 -11.21521 -11.21478
 Alpha  occ. eigenvalues --  -11.21413 -11.21324 -11.21238 -11.21132 -11.21104
 Alpha  occ. eigenvalues --  -11.21035 -11.20912  -1.08499  -1.08354  -1.03603
 Alpha  occ. eigenvalues --   -1.03449  -0.96055  -0.95896  -0.87080  -0.86913
 Alpha  occ. eigenvalues --   -0.79725  -0.79473  -0.78351  -0.78118  -0.65167
 Alpha  occ. eigenvalues --   -0.64971  -0.61092  -0.60786  -0.59420  -0.59280
 Alpha  occ. eigenvalues --   -0.57649  -0.57516  -0.55401  -0.55142  -0.52770
 Alpha  occ. eigenvalues --   -0.52610  -0.52484  -0.52295  -0.50061  -0.49797
 Alpha  occ. eigenvalues --   -0.48145  -0.47746  -0.46793  -0.46447  -0.46055
 Alpha  occ. eigenvalues --   -0.45776  -0.45674  -0.45241  -0.43841  -0.43705
 Alpha virt. eigenvalues --    0.21207   0.23075   0.23721   0.24519   0.25968
 Alpha virt. eigenvalues --    0.26669   0.27044   0.27218   0.28237   0.29703
 Alpha virt. eigenvalues --    0.30705   0.31367   0.31714   0.31926   0.32154

 Mulliken charges:
               1
     1  C   -0.304892
     2  C   -0.299348
     3  C   -0.482314
     4  H    0.156802
     5  H    0.148986
     6  H    0.150449
     7  H    0.151624
     8  H    0.154664
     9  H    0.163785
    10  H    0.159200
    11  C   -0.297604
    12  C   -0.300152
    13  C   -0.475553
    14  H    0.148655
    15  H    0.149358
    16  H    0.152710
    17  H    0.151660
    18  H    0.155064
    19  H    0.154932
    20  H    0.160060
    21  C   -0.298246
    22  C   -0.299729
    23  C   -0.475758
    24  H    0.150027
    25  H    0.149685
    26  H    0.152116
    27  H    0.151825
    28  H    0.155241
    29  H    0.155298
    30  H    0.160459
    31  C   -0.299326
    32  C   -0.300155
    33  C   -0.480421
    34  H    0.150066
    35  H    0.149082
    36  H    0.152315
    37  H    0.152042
    38  H    0.159131
    39  H    0.157243
    40  H    0.161021
 Sum of Mulliken charges =  -0.00000

 Dipole moment (field-independent basis, Debye):
    X=             -0.0748    Y=             -0.0334    Z=             -0.0281  Tot=              0.0866
 Quadrupole moment (field-independent basis, Debye-Ang):
   XX=            -85.3076   YY=            -86.1488   ZZ=            -83.4945
   XY=              0.5083   XZ=             -0.1210   YZ=             -0.3270

 Normal termination of Gaussian 16 at Thu May  6 00:33:35 2021.
