 Gaussian 16, Revision A.03,
 Gaussian 16:  EM64L-G16RevA.03 25-Dec-2016

 -------------
 #p 6-31g* mp2
 -------------

 ------------------------------------------------------
 Input file generated by CHIRIPA (05-May-2021 14:57:26)
 ------------------------------------------------------
 Symbolic Z-matrix:
 Charge =  0 Multiplicity = 1

                         Standard orientation:
 ---------------------------------------------------------------------
 Center     Atomic      Atomic             Coordinates (Angstroms)
 Number     Number       Type             X           Y           Z
 ---------------------------------------------------------------------
      1          6           0       -1.847309    1.041629    0.444930
      2          6           0       -2.106561   -0.290655    0.783058
      3          6           0       -3.347230   -0.867553    0.495870
      4          6           0       -4.310045   -0.079634   -0.132987
      5          6           0       -4.081989    1.250478   -0.482389
      6          6           0       -2.834110    1.806594   -0.185603
      7          1           0       -0.880727    1.481705    0.671753
      8          1           0       -1.342081   -0.887120    1.272797
      9          1           0       -3.574620   -1.896557    0.746593
     10          1           0       -4.863902    1.819955   -0.969960
     11          1           0       -2.635569    2.841515   -0.449355
     12          7           0       -5.627302   -0.679370   -0.442101
     13          8           0       -6.458791    0.035986   -0.996653
     14          8           0       -5.803336   -1.853443   -0.123979
     15          6           0        2.124663    0.771572    1.448225
     16          6           0        2.757378    1.647507    0.560007
     17          6           0        3.848831    1.220201   -0.202020
     18          6           0        4.283231   -0.095659   -0.050036
     19          6           0        3.673842   -0.992164    0.826442
     20          6           0        2.584105   -0.543151    1.578377
     21          1           0        1.277462    1.111944    2.036265
     22          1           0        2.402729    2.669090    0.456865
     23          1           0        4.357187    1.877330   -0.897128
     24          1           0        4.050132   -2.004711    0.907516
     25          1           0        2.094673   -1.225614    2.267395
     26          7           0        5.437796   -0.559519   -0.851418
     27          8           0        5.801288   -1.723706   -0.699163
     28          8           0        5.957391    0.249876   -1.616623
 ---------------------------------------------------------------------

 SCF Done:  E(RHF) =  -868.336362667     A.U. after   16 cycles
 E2 =    -0.2600371962D+01 EUMP2 =    -0.87093673462891D+03

 The electronic state is 1-A.
 Alpha  occ. eigenvalues --  -20.61453 -20.61447 -20.61205 -20.61200 -15.86513
 Alpha  occ. eigenvalues --  -15.86264 -11.32100 -11.31756 -11.28674 -11.28669
 Alpha  occ. eigenvalues --  -11.28596 -11.28350 -11.28325 -11.28197 -11.27816
 Alpha  occ. eigenvalues --  -11.27802 -11.27456 -11.27400  -1.60522  -1.60278
 Alpha  occ. eigenvalues --   -1.40069  -1.39828  -1.20304  -1.19954  -1.09696
 Alpha  occ. eigenvalues --   -1.09344  -1.05728  -1.05375  -0.96490  -0.96149
 Alpha  occ. eigenvalues --   -0.87138  -0.86781  -0.83304  -0.82977  -0.78279
 Alpha  occ. eigenvalues --   -0.77988  -0.72729  -0.72481  -0.71846  -0.71649
 Alpha  occ. eigenvalues --   -0.71602  -0.70974  -0.65969  -0.65763  -0.65617
 Alpha  occ. eigenvalues --   -0.65391  -0.63060  -0.62719  -0.56499  -0.55791
 Alpha  occ. eigenvalues --   -0.54038  -0.53833  -0.53692  -0.53482  -0.49506
 Alpha  occ. eigenvalues --   -0.49468  -0.49251  -0.49226  -0.45425  -0.45204
 Alpha  occ. eigenvalues --   -0.38356  -0.37953  -0.37314  -0.36968
 Alpha virt. eigenvalues --    0.04195   0.04552   0.10233   0.10675   0.15475
 Alpha virt. eigenvalues --    0.15982   0.18260   0.22129   0.24723   0.25573
 Alpha virt. eigenvalues --    0.27444   0.29325   0.29849   0.30741   0.32774

 Mulliken charges:
               1
     1  C   -0.170831
     2  C   -0.217759
     3  C   -0.169896
     4  C    0.159152
     5  C   -0.169776
     6  C   -0.218437
     7  H    0.218055
     8  H    0.217786
     9  H    0.277045
    10  H    0.277521
    11  H    0.223805
    12  N    0.487974
    13  O   -0.458759
    14  O   -0.459074
    15  C   -0.176872
    16  C   -0.218485
    17  C   -0.169218
    18  C    0.160220
    19  C   -0.169355
    20  C   -0.219424
    21  H    0.220179
    22  H    0.222725
    23  H    0.278658
    24  H    0.278923
    25  H    0.223468
    26  N    0.487894
    27  O   -0.457629
    28  O   -0.457890
 Sum of Mulliken charges =  -0.00000

 Dipole moment (field-independent basis, Debye):
    X=              0.7135    Y=              3.6550    Z=              3.7648  Tot=              5.2955
 Quadrupole moment (field-independent basis, Debye-Ang):
   XX=           -178.4855   YY=            -97.7742   ZZ=           -105.1792
   XY=             -3.3431   XZ=              7.4989   YZ=             -5.1383

 Normal termination of Gaussian 16 at Thu May  6 02:00:45 2021.
