 Gaussian 16, Revision A.03,
 Gaussian 16:  EM64L-G16RevA.03 25-Dec-2016

 -------------
 #p 6-31g* mp2
 -------------

 ------------------------------------------------------
 Input file generated by CHIRIPA (05-May-2021 14:51:08)
 ------------------------------------------------------
 Symbolic Z-matrix:
 Charge =  0 Multiplicity = 1

                         Standard orientation:
 ---------------------------------------------------------------------
 Center     Atomic      Atomic             Coordinates (Angstroms)
 Number     Number       Type             X           Y           Z
 ---------------------------------------------------------------------
      1          6           0       -2.964852   -0.382367   -0.787921
      2          6           0       -2.728391   -1.817070   -0.314953
      3          6           0       -1.899028   -2.636501   -1.304137
      4          1           0       -3.470064   -0.403141   -1.763254
      5          1           0       -1.994707    0.107866   -0.948812
      6          1           0       -3.698696   -2.304013   -0.153675
      7          1           0       -2.223855   -1.792876    0.659457
      8          1           0       -0.917601   -2.176340   -1.457930
      9          1           0       -2.400821   -2.690380   -2.275683
     10          1           0       -1.742065   -3.658807   -0.946210
     11          6           0       -3.792460    0.449377    0.190340
     12          6           0       -4.028922    1.884080   -0.282629
     13          6           0       -4.858284    2.703511    0.706555
     14          1           0       -4.762605   -0.040856    0.351230
     15          1           0       -3.287249    0.470151    1.165673
     16          1           0       -4.533457    1.859886   -1.257038
     17          1           0       -3.058616    2.371023   -0.443906
     18          1           0       -4.356491    2.757390    1.678101
     19          1           0       -5.839712    2.243350    0.860349
     20          1           0       -5.015248    3.725817    0.348628
     21          6           0        2.915661   -0.638828    0.247298
     22          6           0        2.008637   -0.813862    1.465762
     23          6           0        1.088238   -2.029083    1.347885
     24          1           0        2.294340   -0.543968   -0.653762
     25          1           0        3.520532   -1.546691    0.115733
     26          1           0        1.406650    0.094607    1.595807
     27          1           0        2.632184   -0.908124    2.364050
     28          1           0        1.674535   -2.947507    1.241329
     29          1           0        0.442038   -1.939078    0.468722
     30          1           0        0.448612   -2.135287    2.229621
     31          6           0        3.841651    0.571818    0.350283
     32          6           0        4.748676    0.746851   -0.868182
     33          6           0        5.669075    1.962073   -0.750303
     34          1           0        3.236780    1.479681    0.481848
     35          1           0        4.462972    0.476959    1.251343
     36          1           0        4.125128    0.841114   -1.766468
     37          1           0        5.350663   -0.161618   -0.998225
     38          1           0        6.315275    1.872069    0.128859
     39          1           0        5.082777    2.880497   -0.643748
     40          1           0        6.308700    2.068277   -1.632041
 ---------------------------------------------------------------------

 SCF Done:  E(RHF) =  -470.732898950     A.U. after   11 cycles
 E2 =    -0.1583119753D+01 EUMP2 =    -0.47231601870273D+03

 The electronic state is 1-A.
 Alpha  occ. eigenvalues --  -11.21626 -11.21619 -11.21615 -11.21570 -11.21436
 Alpha  occ. eigenvalues --  -11.21415 -11.21376 -11.21356 -11.21085 -11.21082
 Alpha  occ. eigenvalues --  -11.21069 -11.21038  -1.08464  -1.08430  -1.03587
 Alpha  occ. eigenvalues --   -1.03500  -0.96052  -0.95937  -0.87052  -0.86969
 Alpha  occ. eigenvalues --   -0.79615  -0.79593  -0.78269  -0.78249  -0.65195
 Alpha  occ. eigenvalues --   -0.64989  -0.61221  -0.60709  -0.59390  -0.59331
 Alpha  occ. eigenvalues --   -0.57622  -0.57586  -0.55557  -0.55024  -0.52701
 Alpha  occ. eigenvalues --   -0.52665  -0.52443  -0.52373  -0.50066  -0.49794
 Alpha  occ. eigenvalues --   -0.47975  -0.47852  -0.46651  -0.46604  -0.45849
 Alpha  occ. eigenvalues --   -0.45767  -0.45718  -0.45685  -0.43804  -0.43785
 Alpha virt. eigenvalues --    0.20729   0.23206   0.23638   0.25056   0.26093
 Alpha virt. eigenvalues --    0.26628   0.27077   0.27622   0.28015   0.28995
 Alpha virt. eigenvalues --    0.30641   0.31155   0.31690   0.31892   0.32259

 Mulliken charges:
               1
     1  C   -0.298008
     2  C   -0.303548
     3  C   -0.477532
     4  H    0.149743
     5  H    0.148296
     6  H    0.152207
     7  H    0.155941
     8  H    0.154775
     9  H    0.155711
    10  H    0.161512
    11  C   -0.298309
    12  C   -0.299603
    13  C   -0.475713
    14  H    0.149661
    15  H    0.149754
    16  H    0.151982
    17  H    0.151632
    18  H    0.155183
    19  H    0.155260
    20  H    0.160252
    21  C   -0.298321
    22  C   -0.299464
    23  C   -0.484033
    24  H    0.148766
    25  H    0.149917
    26  H    0.151115
    27  H    0.152019
    28  H    0.155325
    29  H    0.165519
    30  H    0.159687
    31  C   -0.298276
    32  C   -0.299698
    33  C   -0.475724
    34  H    0.149371
    35  H    0.149838
    36  H    0.151977
    37  H    0.152049
    38  H    0.155215
    39  H    0.155165
    40  H    0.160358
 Sum of Mulliken charges =  -0.00000

 Dipole moment (field-independent basis, Debye):
    X=             -0.0037    Y=             -0.0237    Z=              0.0005  Tot=              0.0240
 Quadrupole moment (field-independent basis, Debye-Ang):
   XX=            -84.3603   YY=            -85.5342   ZZ=            -84.7948
   XY=             -0.3290   XZ=              1.1098   YZ=             -0.5109

 Normal termination of Gaussian 16 at Thu May  6 00:30:55 2021.
