 Gaussian 16, Revision A.03,
 Gaussian 16:  EM64L-G16RevA.03 25-Dec-2016

 -------------
 #p 6-31g* mp2
 -------------

 ------------------------------------------------------
 Input file generated by CHIRIPA (05-May-2021 14:53:18)
 ------------------------------------------------------
 Symbolic Z-matrix:
 Charge =  0 Multiplicity = 1

                         Standard orientation:
 ---------------------------------------------------------------------
 Center     Atomic      Atomic             Coordinates (Angstroms)
 Number     Number       Type             X           Y           Z
 ---------------------------------------------------------------------
      1          6           0       -3.030070   -0.192850    0.188172
      2          6           0       -4.154684   -1.193894   -0.078549
      3          6           0       -3.801150   -2.612928    0.367713
      4          1           0       -2.120649   -0.525974   -0.330408
      5          1           0       -2.795540   -0.192897    1.261667
      6          1           0       -4.387968   -1.190951   -1.151016
      7          1           0       -5.061587   -0.858247    0.440570
      8          1           0       -3.588642   -2.637408    1.441418
      9          1           0       -2.911197   -2.972002   -0.159211
     10          1           0       -4.619037   -3.312160    0.167720
     11          6           0       -3.368525    1.230158   -0.252538
     12          6           0       -2.243911    2.231201    0.014183
     13          6           0       -2.597445    3.650236   -0.432079
     14          1           0       -3.603055    1.230204   -1.326033
     15          1           0       -4.277946    1.563282    0.266042
     16          1           0       -1.337008    1.895554   -0.504936
     17          1           0       -2.010627    2.228258    1.086650
     18          1           0       -3.487398    4.009309    0.094845
     19          1           0       -2.809953    3.674715   -1.505784
     20          1           0       -1.779558    4.349467   -0.232086
     21          6           0        0.373920   -1.757148   -0.117236
     22          6           0        1.263936   -1.736434   -1.196106
     23          6           0        2.444637   -0.990851   -1.128298
     24          6           0        2.704940   -0.274497    0.038907
     25          6           0        1.838062   -0.275088    1.130610
     26          6           0        0.663313   -1.027694    1.040637
     27          1           0       -0.540966   -2.339062   -0.178519
     28          1           0        1.041783   -2.301974   -2.096582
     29          1           0        3.151191   -0.957127   -1.948703
     30          1           0        2.086832    0.298824    2.015006
     31          1           0       -0.026048   -1.041926    1.880056
     32          7           0        3.951745    0.518536    0.122425
     33          8           0        4.158010    1.141073    1.161915
     34          8           0        4.699117    0.502564   -0.853186
 ---------------------------------------------------------------------

 SCF Done:  E(RHF) =  -669.534156137     A.U. after   15 cycles
 E2 =    -0.2093772855D+01 EUMP2 =    -0.67162792899106D+03

 The electronic state is 1-A.
 Alpha  occ. eigenvalues --  -20.60748 -20.60742 -15.85802 -11.31163 -11.27740
 Alpha  occ. eigenvalues --  -11.27722 -11.27423 -11.26751 -11.26717 -11.22529
 Alpha  occ. eigenvalues --  -11.22298 -11.22230 -11.22042 -11.21973 -11.21372
 Alpha  occ. eigenvalues --   -1.59824  -1.39377  -1.19342  -1.09198  -1.08727
 Alpha  occ. eigenvalues --   -1.04739  -1.04258  -0.96730  -0.95577  -0.87746
 Alpha  occ. eigenvalues --   -0.86137  -0.82413  -0.80344  -0.78990  -0.77441
 Alpha  occ. eigenvalues --   -0.72019  -0.71148  -0.70488  -0.65814  -0.64987
 Alpha  occ. eigenvalues --   -0.64738  -0.62086  -0.61657  -0.60124  -0.58334
 Alpha  occ. eigenvalues --   -0.56060  -0.55266  -0.53427  -0.53235  -0.52998
 Alpha  occ. eigenvalues --   -0.52825  -0.50692  -0.48783  -0.48775  -0.48629
 Alpha  occ. eigenvalues --   -0.47356  -0.46495  -0.46387  -0.44784  -0.44492
 Alpha  occ. eigenvalues --   -0.37232  -0.36333
 Alpha virt. eigenvalues --    0.05044   0.11274   0.16422   0.19492   0.22644
 Alpha virt. eigenvalues --    0.23710   0.24527   0.26085   0.27127   0.28160
 Alpha virt. eigenvalues --    0.29196   0.30160   0.30916   0.31506   0.32123

 Mulliken charges:
               1
     1  C   -0.305776
     2  C   -0.299942
     3  C   -0.479622
     4  H    0.152728
     5  H    0.144351
     6  H    0.154378
     7  H    0.156177
     8  H    0.155508
     9  H    0.145813
    10  H    0.167157
    11  C   -0.297773
    12  C   -0.300989
    13  C   -0.476388
    14  H    0.150873
    15  H    0.151122
    16  H    0.156042
    17  H    0.149746
    18  H    0.155338
    19  H    0.155834
    20  H    0.163730
    21  C   -0.176444
    22  C   -0.223022
    23  C   -0.170726
    24  C    0.158225
    25  C   -0.171314
    26  C   -0.217393
    27  H    0.235761
    28  H    0.223484
    29  H    0.275431
    30  H    0.275496
    31  H    0.225264
    32  N    0.488004
    33  O   -0.460467
    34  O   -0.460605
 Sum of Mulliken charges =  -0.00000

 Dipole moment (field-independent basis, Debye):
    X=             -4.5191    Y=             -2.7076    Z=             -0.3143  Tot=              5.2775
 Quadrupole moment (field-independent basis, Debye-Ang):
   XX=           -118.3528   YY=            -94.4574   ZZ=            -89.8586
   XY=             -6.7478   XZ=             -2.5975   YZ=              1.9569

 Normal termination of Gaussian 16 at Thu May  6 19:00:58 2021.
