 Gaussian 16, Revision A.03,
 Gaussian 16:  EM64L-G16RevA.03 25-Dec-2016

 -------------
 #p 6-31g* mp2
 -------------

 ------------------------------------------------------
 Input file generated by CHIRIPA (05-May-2021 14:55:25)
 ------------------------------------------------------
 Symbolic Z-matrix:
 Charge =  0 Multiplicity = 1

                         Standard orientation:
 ---------------------------------------------------------------------
 Center     Atomic      Atomic             Coordinates (Angstroms)
 Number     Number       Type             X           Y           Z
 ---------------------------------------------------------------------
      1          6           0       -5.945869    1.227736    0.249698
      2          6           0       -5.799034   -0.113489    0.618581
      3          6           0       -4.566559   -0.758035    0.476753
      4          6           0       -3.497215   -0.027909   -0.039687
      5          6           0       -3.611933    1.309392   -0.416193
      6          6           0       -4.853775    1.933651   -0.265604
      7          1           0       -6.906923    1.720555    0.363276
      8          1           0       -6.645436   -0.664192    1.019052
      9          1           0       -4.425022   -1.795480    0.754408
     10          1           0       -2.749938    1.832236   -0.812446
     11          1           0       -4.964888    2.975358   -0.552914
     12          7           0       -2.187491   -0.699522   -0.194471
     13          8           0       -1.260814   -0.034226   -0.651951
     14          8           0       -2.112406   -1.878512    0.144619
     15          6           0        5.136884    0.551229    0.081107
     16          6           0        6.647948    0.359845    0.215435
     17          6           0        7.402690    1.683674    0.340467
     18          1           0        4.929683    1.177468   -0.797436
     19          1           0        4.765399    1.105096    0.954390
     20          1           0        7.016259   -0.194703   -0.657170
     21          1           0        6.851567   -0.266170    1.093649
     22          1           0        7.063293    2.238958    1.220849
     23          1           0        7.228921    2.310832   -0.539919
     24          1           0        8.481207    1.523507    0.435381
     25          6           0        4.368584   -0.763148   -0.044816
     26          6           0        2.857520   -0.571765   -0.179143
     27          6           0        2.102779   -1.895595   -0.304176
     28          1           0        4.740069   -1.317015   -0.918099
     29          1           0        4.575787   -1.389388    0.833727
     30          1           0        2.653902    0.054250   -1.057357
     31          1           0        2.489209   -0.017217    0.693462
     32          1           0        2.276548   -2.522751    0.576211
     33          1           0        2.442177   -2.450879   -1.184557
     34          1           0        1.024262   -1.735427   -0.399090
 ---------------------------------------------------------------------

 SCF Done:  E(RHF) =  -669.537008667     A.U. after   15 cycles
 E2 =    -0.2091426187D+01 EUMP2 =    -0.67162843485454D+03

 The electronic state is 1-A.
 Alpha  occ. eigenvalues --  -20.61121 -20.61113 -15.86102 -11.31381 -11.27929
 Alpha  occ. eigenvalues --  -11.27926 -11.27658 -11.26923 -11.26914 -11.20902
 Alpha  occ. eigenvalues --  -11.20513 -11.20497 -11.20222 -11.20038 -11.18994
 Alpha  occ. eigenvalues --   -1.60147  -1.39704  -1.19537  -1.08952  -1.07374
 Alpha  occ. eigenvalues --   -1.04923  -1.02345  -0.95802  -0.94779  -0.86326
 Alpha  occ. eigenvalues --   -0.85805  -0.82635  -0.78480  -0.77699  -0.77113
 Alpha  occ. eigenvalues --   -0.72305  -0.71446  -0.70645  -0.65191  -0.64926
 Alpha  occ. eigenvalues --   -0.64027  -0.62270  -0.59770  -0.58238  -0.56352
 Alpha  occ. eigenvalues --   -0.55423  -0.54114  -0.53259  -0.53013  -0.51466
 Alpha  occ. eigenvalues --   -0.51237  -0.49073  -0.48977  -0.48791  -0.46724
 Alpha  occ. eigenvalues --   -0.45566  -0.45126  -0.44655  -0.44569  -0.42544
 Alpha  occ. eigenvalues --   -0.37514  -0.36521
 Alpha virt. eigenvalues --    0.04836   0.11136   0.16348   0.21276   0.23809
 Alpha virt. eigenvalues --    0.25582   0.27201   0.27623   0.28154   0.28484
 Alpha virt. eigenvalues --    0.29297   0.30842   0.32395   0.32480   0.32676

 Mulliken charges:
               1
     1  C   -0.170376
     2  C   -0.218630
     3  C   -0.170662
     4  C    0.159108
     5  C   -0.170647
     6  C   -0.218602
     7  H    0.226309
     8  H    0.224140
     9  H    0.276130
    10  H    0.276164
    11  H    0.224160
    12  N    0.488434
    13  O   -0.458389
    14  O   -0.458331
    15  C   -0.296978
    16  C   -0.298686
    17  C   -0.475020
    18  H    0.148004
    19  H    0.147568
    20  H    0.150863
    21  H    0.150778
    22  H    0.153930
    23  H    0.154053
    24  H    0.158014
    25  C   -0.297150
    26  C   -0.295281
    27  C   -0.488973
    28  H    0.146725
    29  H    0.146705
    30  H    0.151194
    31  H    0.149361
    32  H    0.146433
    33  H    0.145681
    34  H    0.193970
 Sum of Mulliken charges =  -0.00000

 Dipole moment (field-independent basis, Debye):
    X=             -5.1582    Y=              2.3951    Z=              0.5231  Tot=              5.7111
 Quadrupole moment (field-independent basis, Debye-Ang):
   XX=            -64.1661   YY=            -92.4909   ZZ=            -93.9902
   XY=             -6.9092   XZ=             -2.8733   YZ=             -2.0999

 Normal termination of Gaussian 16 at Thu May  6 03:14:42 2021.
