 Gaussian 16, Revision A.03,
 Gaussian 16:  EM64L-G16RevA.03 25-Dec-2016

 -------------
 #p 6-31g* mp2
 -------------

 ------------------------------------------------------
 Input file generated by CHIRIPA (05-May-2021 14:57:21)
 ------------------------------------------------------
 Symbolic Z-matrix:
 Charge =  0 Multiplicity = 1

                         Standard orientation:
 ---------------------------------------------------------------------
 Center     Atomic      Atomic             Coordinates (Angstroms)
 Number     Number       Type             X           Y           Z
 ---------------------------------------------------------------------
      1          6           0        1.594578   -1.180368    1.030628
      2          6           0        1.560437   -0.221793    0.012547
      3          6           0        2.746841    0.302681   -0.508913
      4          6           0        3.955157   -0.156016    0.013447
      5          6           0        4.022000   -1.110045    1.027671
      6          6           0        2.823085   -1.620658    1.534053
      7          1           0        0.668091   -1.582408    1.429855
      8          1           0        0.607813    0.121994   -0.380342
      9          1           0        2.749377    1.045680   -1.297180
     10          1           0        4.986901   -1.433233    1.399066
     11          1           0        2.852635   -2.365005    2.324698
     12          7           0        5.217773    0.391884   -0.530619
     13          8           0        6.269402   -0.028705   -0.053318
     14          8           0        5.131873    1.231544   -1.424056
     15          6           0       -4.911594   -1.867981   -0.837645
     16          6           0       -5.432199   -1.112767    0.218359
     17          6           0       -4.795309    0.060405    0.633796
     18          6           0       -3.634481    0.450719   -0.032104
     19          6           0       -3.091208   -0.280189   -1.087527
     20          6           0       -3.744818   -1.450018   -1.486075
     21          1           0       -5.412840   -2.778031   -1.153806
     22          1           0       -6.338179   -1.434947    0.723774
     23          1           0       -5.176653    0.664065    1.448406
     24          1           0       -2.186465    0.066424   -1.572002
     25          1           0       -3.338237   -2.034537   -2.306486
     26          7           0       -2.951383    1.690935    0.398761
     27          8           0       -1.930057    2.013317   -0.204232
     28          8           0       -3.450232    2.317150    1.331306
 ---------------------------------------------------------------------

 SCF Done:  E(RHF) =  -868.338632896     A.U. after   16 cycles
 E2 =    -0.2599229746D+01 EUMP2 =    -0.87093786264225D+03

 The electronic state is 1-A.
 Alpha  occ. eigenvalues --  -20.61755 -20.61705 -20.60429 -20.60420 -15.86762
 Alpha  occ. eigenvalues --  -15.85478 -11.32069 -11.30800 -11.28663 -11.28570
 Alpha  occ. eigenvalues --  -11.28291 -11.27608 -11.27566 -11.27382 -11.27309
 Alpha  occ. eigenvalues --  -11.27111 -11.26417 -11.26284  -1.60789  -1.59503
 Alpha  occ. eigenvalues --   -1.40349  -1.39058  -1.20219  -1.18964  -1.09614
 Alpha  occ. eigenvalues --   -1.08375  -1.05606  -1.04349  -0.96464  -0.95218
 Alpha  occ. eigenvalues --   -0.87004  -0.85756  -0.83296  -0.82041  -0.78369
 Alpha  occ. eigenvalues --   -0.77088  -0.72976  -0.72108  -0.71698  -0.71308
 Alpha  occ. eigenvalues --   -0.70825  -0.70094  -0.65864  -0.65594  -0.64616
 Alpha  occ. eigenvalues --   -0.64342  -0.62957  -0.61685  -0.56078  -0.54885
 Alpha  occ. eigenvalues --   -0.53943  -0.53688  -0.52695  -0.52432  -0.49743
 Alpha  occ. eigenvalues --   -0.49716  -0.48456  -0.48451  -0.45753  -0.44472
 Alpha  occ. eigenvalues --   -0.38180  -0.37212  -0.36960  -0.35946
 Alpha virt. eigenvalues --    0.04119   0.05428   0.10396   0.11696   0.15648
 Alpha virt. eigenvalues --    0.16930   0.19983   0.21815   0.25257   0.26977
 Alpha virt. eigenvalues --    0.28505   0.28641   0.29938   0.30929   0.32389

 Mulliken charges:
               1
     1  C   -0.172048
     2  C   -0.222580
     3  C   -0.171733
     4  C    0.158564
     5  C   -0.171942
     6  C   -0.218395
     7  H    0.222889
     8  H    0.233200
     9  H    0.277297
    10  H    0.274190
    11  H    0.221284
    12  N    0.488061
    13  O   -0.461903
    14  O   -0.460078
    15  C   -0.170669
    16  C   -0.218171
    17  C   -0.170890
    18  C    0.158093
    19  C   -0.176226
    20  C   -0.218469
    21  H    0.228568
    22  H    0.226401
    23  H    0.277696
    24  H    0.272519
    25  H    0.226082
    26  N    0.488787
    27  O   -0.466220
    28  O   -0.454309
 Sum of Mulliken charges =  -0.00000

 Dipole moment (field-independent basis, Debye):
    X=             -7.2235    Y=             -6.2585    Z=              0.4130  Tot=              9.5666
 Quadrupole moment (field-independent basis, Debye-Ang):
   XX=           -118.6957   YY=           -107.4707   ZZ=           -101.0506
   XY=              6.1273   XZ=             12.0405   YZ=             -2.1838

 Normal termination of Gaussian 16 at Thu May  6 21:03:30 2021.
