 Gaussian 16, Revision A.03,
 Gaussian 16:  EM64L-G16RevA.03 25-Dec-2016

 -------------
 #p 6-31g* mp2
 -------------

 ------------------------------------------------------
 Input file generated by CHIRIPA (05-May-2021 14:57:24)
 ------------------------------------------------------
 Symbolic Z-matrix:
 Charge =  0 Multiplicity = 1

                         Standard orientation:
 ---------------------------------------------------------------------
 Center     Atomic      Atomic             Coordinates (Angstroms)
 Number     Number       Type             X           Y           Z
 ---------------------------------------------------------------------
      1          6           0        2.188902    2.212820   -0.075040
      2          6           0        1.435067    1.095526    0.299003
      3          6           0        2.024171   -0.170961    0.358305
      4          6           0        3.375562   -0.284358    0.035546
      5          6           0        4.153137    0.809770   -0.340687
      6          6           0        3.543144    2.066633   -0.393130
      7          1           0        1.723159    3.192919   -0.118443
      8          1           0        0.383149    1.206073    0.546576
      9          1           0        1.463968   -1.052749    0.644731
     10          1           0        5.199668    0.668140   -0.581791
     11          1           0        4.131034    2.932576   -0.683947
     12          7           0        4.010277   -1.620037    0.094696
     13          8           0        5.202604   -1.693405   -0.194457
     14          8           0        3.303420   -2.568284    0.429091
     15          6           0       -2.164016    2.311534    0.274535
     16          6           0       -2.590804    1.586519    1.391998
     17          6           0       -3.205328    0.340310    1.237488
     18          6           0       -3.377968   -0.153039   -0.054833
     19          6           0       -2.963594    0.545371   -1.187885
     20          6           0       -2.351442    1.789567   -1.009577
     21          1           0       -1.687560    3.278838    0.403806
     22          1           0       -2.446550    1.989416    2.390452
     23          1           0       -3.545303   -0.242097    2.085211
     24          1           0       -3.121132    0.117722   -2.170594
     25          1           0       -2.020996    2.350410   -1.879234
     26          7           0       -4.027281   -1.471280   -0.231004
     27          8           0       -4.167777   -1.883953   -1.380177
     28          8           0       -4.383421   -2.066881    0.783423
 ---------------------------------------------------------------------

 SCF Done:  E(RHF) =  -868.336459437     A.U. after   16 cycles
 E2 =    -0.2601729800D+01 EUMP2 =    -0.87093818923664D+03

 The electronic state is 1-A.
 Alpha  occ. eigenvalues --  -20.61403 -20.61398 -20.60896 -20.60885 -15.86465
 Alpha  occ. eigenvalues --  -15.85946 -11.32126 -11.31410 -11.28700 -11.28674
 Alpha  occ. eigenvalues --  -11.28560 -11.27978 -11.27930 -11.27826 -11.27815
 Alpha  occ. eigenvalues --  -11.27796 -11.27069 -11.26890  -1.60472  -1.59966
 Alpha  occ. eigenvalues --   -1.40016  -1.39516  -1.20347  -1.19586  -1.09716
 Alpha  occ. eigenvalues --   -1.08986  -1.05752  -1.04986  -0.96479  -0.95805
 Alpha  occ. eigenvalues --   -0.87140  -0.86400  -0.83275  -0.82620  -0.78252
 Alpha  occ. eigenvalues --   -0.77639  -0.72675  -0.72164  -0.71801  -0.71466
 Alpha  occ. eigenvalues --   -0.71291  -0.70753  -0.65974  -0.65729  -0.65239
 Alpha  occ. eigenvalues --   -0.65027  -0.63055  -0.62355  -0.56302  -0.55600
 Alpha  occ. eigenvalues --   -0.54257  -0.53818  -0.53334  -0.52875  -0.49457
 Alpha  occ. eigenvalues --   -0.49413  -0.48929  -0.48913  -0.45354  -0.44899
 Alpha  occ. eigenvalues --   -0.38373  -0.37648  -0.37358  -0.36554
 Alpha virt. eigenvalues --    0.04217   0.04875   0.10123   0.11160   0.15556
 Alpha virt. eigenvalues --    0.16340   0.19709   0.21714   0.25947   0.26490
 Alpha virt. eigenvalues --    0.27493   0.28976   0.30177   0.31322   0.31935

 Mulliken charges:
               1
     1  C   -0.176102
     2  C   -0.226034
     3  C   -0.174227
     4  C    0.159726
     5  C   -0.171780
     6  C   -0.217716
     7  H    0.216579
     8  H    0.235105
     9  H    0.278161
    10  H    0.276207
    11  H    0.222799
    12  N    0.487777
    13  O   -0.460192
    14  O   -0.458139
    15  C   -0.188317
    16  C   -0.220956
    17  C   -0.171038
    18  C    0.159570
    19  C   -0.170041
    20  C   -0.214839
    21  H    0.224568
    22  H    0.227547
    23  H    0.280059
    24  H    0.280186
    25  H    0.226626
    26  N    0.487945
    27  O   -0.456531
    28  O   -0.456940
 Sum of Mulliken charges =  -0.00000

 Dipole moment (field-independent basis, Debye):
    X=             -0.2626    Y=              9.1078    Z=              0.3656  Tot=              9.1189
 Quadrupole moment (field-independent basis, Debye-Ang):
   XX=           -131.4613   YY=           -109.5524   ZZ=           -100.1162
   XY=              2.5360   XZ=             -4.9623   YZ=             -1.3262

 Normal termination of Gaussian 16 at Thu May  6 22:46:59 2021.
