 Gaussian 16, Revision A.03,
 Gaussian 16:  EM64L-G16RevA.03 25-Dec-2016

 -------------
 #p 6-31g* mp2
 -------------

 ------------------------------------------------------
 Input file generated by CHIRIPA (05-May-2021 14:51:11)
 ------------------------------------------------------
 Symbolic Z-matrix:
 Charge =  0 Multiplicity = 1

                         Standard orientation:
 ---------------------------------------------------------------------
 Center     Atomic      Atomic             Coordinates (Angstroms)
 Number     Number       Type             X           Y           Z
 ---------------------------------------------------------------------
      1          6           0       -2.888440   -0.588938   -0.455984
      2          6           0       -3.648038   -1.915819   -0.436453
      3          6           0       -2.735142   -3.122852   -0.654363
      4          1           0       -2.366289   -0.486772   -1.417163
      5          1           0       -2.111857   -0.607537    0.321170
      6          1           0       -4.423865   -1.894188   -1.212495
      7          1           0       -4.168597   -2.014750    0.524717
      8          1           0       -1.969117   -3.172413    0.126246
      9          1           0       -2.225835   -3.051166   -1.620836
     10          1           0       -3.298760   -4.060872   -0.636643
     11          6           0       -3.787477    0.627035   -0.239490
     12          6           0       -3.027879    1.953916   -0.259021
     13          6           0       -3.940775    3.160949   -0.041111
     14          1           0       -4.564060    0.645635   -1.016644
     15          1           0       -4.309628    0.524869    0.721689
     16          1           0       -2.507320    2.052847   -1.220190
     17          1           0       -2.252052    1.932285    0.517021
     18          1           0       -4.450081    3.089263    0.925362
     19          1           0       -4.706800    3.210510   -0.821720
     20          1           0       -3.377157    4.098969   -0.058831
     21          6           0        4.053065    0.236982    0.267093
     22          6           0        4.596212    0.081409   -1.153742
     23          6           0        6.027876    0.598105   -1.299205
     24          1           0        4.092870    1.296707    0.554048
     25          1           0        4.710496   -0.300566    0.964389
     26          1           0        3.937182    0.617935   -1.848317
     27          1           0        4.554931   -0.978044   -1.437418
     28          1           0        6.703030    0.055970   -0.629237
     29          1           0        6.081772    1.661018   -1.042471
     30          1           0        6.396278    0.477196   -2.322689
     31          6           0        2.622852   -0.275079    0.428381
     32          6           0        2.079705   -0.119506    1.849216
     33          6           0        0.648041   -0.636202    1.994678
     34          1           0        1.965421    0.262468   -0.268916
     35          1           0        2.583047   -1.334804    0.141426
     36          1           0        2.120986    0.939946    2.132892
     37          1           0        2.738735   -0.656032    2.543791
     38          1           0        0.594145   -1.699116    1.737944
     39          1           0       -0.027114   -0.094068    1.324711
     40          1           0        0.279639   -0.515293    3.018164
 ---------------------------------------------------------------------

 SCF Done:  E(RHF) =  -470.733263249     A.U. after   11 cycles
 E2 =    -0.1582891750D+01 EUMP2 =    -0.47231615499960D+03

 The electronic state is 1-A.
 Alpha  occ. eigenvalues --  -11.21627 -11.21616 -11.21600 -11.21552 -11.21405
 Alpha  occ. eigenvalues --  -11.21361 -11.21346 -11.21277 -11.21111 -11.21078
 Alpha  occ. eigenvalues --  -11.21070 -11.21024  -1.08440  -1.08396  -1.03547
 Alpha  occ. eigenvalues --   -1.03503  -0.96006  -0.95944  -0.87029  -0.86960
 Alpha  occ. eigenvalues --   -0.79635  -0.79555  -0.78289  -0.78169  -0.65105
 Alpha  occ. eigenvalues --   -0.65002  -0.60946  -0.60903  -0.59365  -0.59318
 Alpha  occ. eigenvalues --   -0.57646  -0.57535  -0.55379  -0.55156  -0.52700
 Alpha  occ. eigenvalues --   -0.52657  -0.52486  -0.52328  -0.50024  -0.49822
 Alpha  occ. eigenvalues --   -0.48024  -0.47844  -0.46692  -0.46601  -0.45925
 Alpha  occ. eigenvalues --   -0.45737  -0.45718  -0.45368  -0.43798  -0.43754
 Alpha virt. eigenvalues --    0.21439   0.23043   0.23910   0.24060   0.25406
 Alpha virt. eigenvalues --    0.26358   0.27093   0.27677   0.27756   0.29314
 Alpha virt. eigenvalues --    0.30420   0.31612   0.31703   0.31874   0.32322

 Mulliken charges:
               1
     1  C   -0.307298
     2  C   -0.298890
     3  C   -0.476385
     4  H    0.148775
     5  H    0.159879
     6  H    0.151579
     7  H    0.151812
     8  H    0.156065
     9  H    0.155001
    10  H    0.159910
    11  C   -0.297614
    12  C   -0.301252
    13  C   -0.475609
    14  H    0.149404
    15  H    0.149595
    16  H    0.151631
    17  H    0.152377
    18  H    0.155354
    19  H    0.155379
    20  H    0.160060
    21  C   -0.298334
    22  C   -0.299669
    23  C   -0.475711
    24  H    0.149630
    25  H    0.149496
    26  H    0.151978
    27  H    0.152015
    28  H    0.155179
    29  H    0.155168
    30  H    0.160256
    31  C   -0.298488
    32  C   -0.299437
    33  C   -0.482748
    34  H    0.150149
    35  H    0.149868
    36  H    0.151982
    37  H    0.152009
    38  H    0.155522
    39  H    0.161312
    40  H    0.160050
 Sum of Mulliken charges =  -0.00000

 Dipole moment (field-independent basis, Debye):
    X=              0.0167    Y=             -0.0004    Z=              0.0093  Tot=              0.0191
 Quadrupole moment (field-independent basis, Debye-Ang):
   XX=            -86.0492   YY=            -85.0018   ZZ=            -83.8248
   XY=             -0.1981   XZ=              0.5329   YZ=             -0.3599

 Normal termination of Gaussian 16 at Wed May  5 19:51:35 2021.
