 Gaussian 16, Revision A.03,
 Gaussian 16:  EM64L-G16RevA.03 25-Dec-2016

 -------------
 #p 6-31g* mp2
 -------------

 ------------------------------------------------------
 Input file generated by CHIRIPA (05-May-2021 14:53:18)
 ------------------------------------------------------
 Symbolic Z-matrix:
 Charge =  0 Multiplicity = 1

                         Standard orientation:
 ---------------------------------------------------------------------
 Center     Atomic      Atomic             Coordinates (Angstroms)
 Number     Number       Type             X           Y           Z
 ---------------------------------------------------------------------
      1          6           0        4.567610   -0.410089   -0.239195
      2          6           0        4.088428   -1.852354   -0.071137
      3          6           0        5.141604   -2.877971   -0.491521
      4          1           0        4.845936   -0.242845   -1.288723
      5          1           0        5.481031   -0.263120    0.353643
      6          1           0        3.175406   -1.996173   -0.663019
      7          1           0        3.811029   -2.016128    0.978074
      8          1           0        6.051357   -2.763254    0.106635
      9          1           0        5.412123   -2.743186   -1.543782
     10          1           0        4.778129   -3.902314   -0.363196
     11          6           0        3.525777    0.626806    0.176933
     12          6           0        4.004959    2.069070    0.008875
     13          6           0        2.951783    3.094687    0.429259
     14          1           0        2.612356    0.479836   -0.415905
     15          1           0        3.247451    0.459562    1.226461
     16          1           0        4.282358    2.232844   -1.040336
     17          1           0        4.917981    2.212889    0.600757
     18          1           0        2.681264    2.959902    1.481520
     19          1           0        2.042030    2.979971   -0.168897
     20          1           0        3.315258    4.119030    0.300934
     21          6           0       -0.677238    0.216320    0.346628
     22          6           0       -1.301340    0.724593   -0.797345
     23          6           0       -2.677176    0.563692   -0.986381
     24          6           0       -3.401647   -0.113752   -0.006838
     25          6           0       -2.808713   -0.631587    1.143625
     26          6           0       -1.431586   -0.458957    1.311761
     27          1           0        0.392045    0.345868    0.485357
     28          1           0       -0.718011    1.249452   -1.548541
     29          1           0       -3.185814    0.947093   -1.862570
     30          1           0       -3.416620   -1.150263    1.874954
     31          1           0       -0.949569   -0.854746    2.201175
     32          7           0       -4.858866   -0.290300   -0.195899
     33          8           0       -5.474823   -0.890952    0.681854
     34          8           0       -5.357484    0.175318   -1.218257
 ---------------------------------------------------------------------

 SCF Done:  E(RHF) =  -669.535618862     A.U. after   15 cycles
 E2 =    -0.2091536440D+01 EUMP2 =    -0.67162715530198D+03

 The electronic state is 1-A.
 Alpha  occ. eigenvalues --  -20.60700 -20.60694 -15.85754 -11.31099 -11.27679
 Alpha  occ. eigenvalues --  -11.27671 -11.27330 -11.26678 -11.26658 -11.22709
 Alpha  occ. eigenvalues --  -11.22635 -11.22476 -11.22342 -11.22146 -11.21753
 Alpha  occ. eigenvalues --   -1.59776  -1.39330  -1.19269  -1.09492  -1.08658
 Alpha  occ. eigenvalues --   -1.04676  -1.04486  -0.96948  -0.95499  -0.87956
 Alpha  occ. eigenvalues --   -0.86070  -0.82343  -0.80563  -0.79345  -0.77394
 Alpha  occ. eigenvalues --   -0.71971  -0.71100  -0.70365  -0.66115  -0.64918
 Alpha  occ. eigenvalues --   -0.64683  -0.62032  -0.61867  -0.60319  -0.58567
 Alpha  occ. eigenvalues --   -0.56251  -0.55178  -0.53583  -0.53360  -0.52997
 Alpha  occ. eigenvalues --   -0.52766  -0.50883  -0.48867  -0.48728  -0.48725
 Alpha  occ. eigenvalues --   -0.47600  -0.46822  -0.46770  -0.44772  -0.44740
 Alpha  occ. eigenvalues --   -0.37232  -0.36287
 Alpha virt. eigenvalues --    0.05141   0.11355   0.16614   0.19336   0.22439
 Alpha virt. eigenvalues --    0.23655   0.25006   0.25657   0.26738   0.27613
 Alpha virt. eigenvalues --    0.29526   0.29946   0.30787   0.31284   0.31582

 Mulliken charges:
               1
     1  C   -0.297613
     2  C   -0.301122
     3  C   -0.476221
     4  H    0.152605
     5  H    0.153301
     6  H    0.151449
     7  H    0.150778
     8  H    0.156843
     9  H    0.156978
    10  H    0.162785
    11  C   -0.304342
    12  C   -0.299871
    13  C   -0.477189
    14  H    0.142982
    15  H    0.148124
    16  H    0.154938
    17  H    0.156610
    18  H    0.156205
    19  H    0.149187
    20  H    0.166313
    21  C   -0.177896
    22  C   -0.221913
    23  C   -0.170692
    24  C    0.157971
    25  C   -0.170604
    26  C   -0.220770
    27  H    0.238720
    28  H    0.222014
    29  H    0.275207
    30  H    0.275180
    31  H    0.223444
    32  N    0.488071
    33  O   -0.460701
    34  O   -0.460770
 Sum of Mulliken charges =  -0.00000

 Dipole moment (field-independent basis, Debye):
    X=              5.4596    Y=              0.6342    Z=              0.6678  Tot=              5.5367
 Quadrupole moment (field-independent basis, Debye-Ang):
   XX=           -129.4683   YY=            -94.6373   ZZ=            -90.3150
   XY=             -1.9025   XZ=             -2.1179   YZ=             -2.7418

 Normal termination of Gaussian 16 at Wed May  5 23:40:05 2021.
