 Gaussian 16, Revision A.03,
 Gaussian 16:  EM64L-G16RevA.03 25-Dec-2016

 -------------
 #p 6-31g* mp2
 -------------

 ------------------------------------------------------
 Input file generated by CHIRIPA (05-May-2021 14:51:10)
 ------------------------------------------------------
 Symbolic Z-matrix:
 Charge =  0 Multiplicity = 1

                         Standard orientation:
 ---------------------------------------------------------------------
 Center     Atomic      Atomic             Coordinates (Angstroms)
 Number     Number       Type             X           Y           Z
 ---------------------------------------------------------------------
      1          6           0       -2.917976   -0.405775   -0.845703
      2          6           0       -3.119513   -1.696884   -0.051723
      3          6           0       -3.360335   -2.911211   -0.949057
      4          1           0       -3.800423   -0.228709   -1.475687
      5          1           0       -2.066671   -0.532696   -1.528759
      6          1           0       -3.969321   -1.567090    0.630623
      7          1           0       -2.236565   -1.870796    0.576587
      8          1           0       -2.509984   -3.068842   -1.620366
      9          1           0       -4.252585   -2.763411   -1.566023
     10          1           0       -3.501854   -3.823281   -0.360872
     11          6           0       -2.676109    0.817034    0.037454
     12          6           0       -2.474572    2.108144   -0.756526
     13          6           0       -2.233750    3.322471    0.140807
     14          1           0       -3.527414    0.943956    0.720510
     15          1           0       -1.793662    0.639969    0.667438
     16          1           0       -3.357520    2.282055   -1.384837
     17          1           0       -1.624764    1.978349   -1.438872
     18          1           0       -1.341500    3.174671    0.757774
     19          1           0       -3.084101    3.480102    0.812116
     20          1           0       -2.092231    4.234541   -0.447377
     21          6           0        3.133458    0.078671   -0.219919
     22          6           0        4.581837   -0.380733   -0.390595
     23          6           0        5.241324    0.196387   -1.643513
     24          1           0        2.555840   -0.213309   -1.107640
     25          1           0        3.106933    1.176322   -0.176863
     26          1           0        4.605769   -1.477244   -0.431926
     27          1           0        5.156031   -0.087794    0.497720
     28          1           0        5.246907    1.290560   -1.606693
     29          1           0        4.693519   -0.106785   -2.541622
     30          1           0        6.276161   -0.144904   -1.745945
     31          6           0        2.460626   -0.489931    1.028168
     32          6           0        1.012248   -0.030527    1.198845
     33          6           0        0.352762   -0.607647    2.451763
     34          1           0        2.487152   -1.587582    0.985114
     35          1           0        3.038246   -0.197951    1.915889
     36          1           0        0.438054   -0.323465    0.310529
     37          1           0        0.988317    1.065984    1.240175
     38          1           0        0.900566   -0.304475    3.349871
     39          1           0        0.347177   -1.701820    2.414944
     40          1           0       -0.682076   -0.266355    2.554195
 ---------------------------------------------------------------------

 SCF Done:  E(RHF) =  -470.732471263     A.U. after   11 cycles
 E2 =    -0.1584617102D+01 EUMP2 =    -0.47231708836506D+03

 The electronic state is 1-A.
 Alpha  occ. eigenvalues --  -11.21724 -11.21652 -11.21575 -11.21546 -11.21485
 Alpha  occ. eigenvalues --  -11.21422 -11.21358 -11.21240 -11.21146 -11.21110
 Alpha  occ. eigenvalues --  -11.21067 -11.21043  -1.08535  -1.08373  -1.03622
 Alpha  occ. eigenvalues --   -1.03495  -0.96079  -0.95934  -0.87073  -0.86966
 Alpha  occ. eigenvalues --   -0.79708  -0.79543  -0.78389  -0.78158  -0.65264
 Alpha  occ. eigenvalues --   -0.64963  -0.61057  -0.60856  -0.59453  -0.59309
 Alpha  occ. eigenvalues --   -0.57794  -0.57470  -0.55360  -0.55198  -0.52786
 Alpha  occ. eigenvalues --   -0.52637  -0.52528  -0.52320  -0.50018  -0.49863
 Alpha  occ. eigenvalues --   -0.48006  -0.47873  -0.46724  -0.46580  -0.45974
 Alpha  occ. eigenvalues --   -0.45796  -0.45703  -0.45469  -0.43864  -0.43741
 Alpha virt. eigenvalues --    0.20108   0.23158   0.23340   0.23978   0.26011
 Alpha virt. eigenvalues --    0.26477   0.26558   0.27839   0.28212   0.29781
 Alpha virt. eigenvalues --    0.30421   0.31188   0.31711   0.31835   0.31999

 Mulliken charges:
               1
     1  C   -0.298028
     2  C   -0.303712
     3  C   -0.475518
     4  H    0.149689
     5  H    0.148491
     6  H    0.151889
     7  H    0.155879
     8  H    0.154595
     9  H    0.155285
    10  H    0.160177
    11  C   -0.311339
    12  C   -0.298559
    13  C   -0.476763
    14  H    0.148461
    15  H    0.165722
    16  H    0.151583
    17  H    0.151864
    18  H    0.155491
    19  H    0.155014
    20  H    0.160085
    21  C   -0.298416
    22  C   -0.299757
    23  C   -0.475765
    24  H    0.149376
    25  H    0.149724
    26  H    0.152056
    27  H    0.152140
    28  H    0.155316
    29  H    0.155215
    30  H    0.160471
    31  C   -0.297748
    32  C   -0.305700
    33  C   -0.480957
    34  H    0.149901
    35  H    0.150147
    36  H    0.154314
    37  H    0.152890
    38  H    0.156177
    39  H    0.155574
    40  H    0.164736
 Sum of Mulliken charges =  -0.00000

 Dipole moment (field-independent basis, Debye):
    X=              0.0480    Y=             -0.0093    Z=              0.0327  Tot=              0.0588
 Quadrupole moment (field-independent basis, Debye-Ang):
   XX=            -84.1389   YY=            -85.2258   ZZ=            -85.4847
   XY=             -0.2723   XZ=              0.5407   YZ=              0.2308

 Normal termination of Gaussian 16 at Thu May  6 03:47:56 2021.
