 Gaussian 16, Revision A.03,
 Gaussian 16:  EM64L-G16RevA.03 25-Dec-2016

 -------------
 #p 6-31g* mp2
 -------------

 ------------------------------------------------------
 Input file generated by CHIRIPA (05-May-2021 14:53:16)
 ------------------------------------------------------
 Symbolic Z-matrix:
 Charge =  0 Multiplicity = 1

                         Standard orientation:
 ---------------------------------------------------------------------
 Center     Atomic      Atomic             Coordinates (Angstroms)
 Number     Number       Type             X           Y           Z
 ---------------------------------------------------------------------
      1          6           0        3.821391   -0.445288   -0.098987
      2          6           0        4.872897   -1.383331    0.494643
      3          6           0        4.549013   -2.858960    0.259247
      4          1           0        2.840953   -0.681044    0.337021
      5          1           0        3.737594   -0.635660   -1.177936
      6          1           0        4.955676   -1.190289    1.571907
      7          1           0        5.850980   -1.145187    0.057313
      8          1           0        4.486436   -3.073419   -0.812523
      9          1           0        3.586045   -3.118777    0.710677
     10          1           0        5.313620   -3.511762    0.691780
     11          6           0        4.131213    1.033270    0.128183
     12          6           0        3.079707    1.971312   -0.465447
     13          6           0        3.403591    3.446942   -0.230052
     14          1           0        4.215011    1.223642    1.207132
     15          1           0        5.111652    1.269026   -0.307826
     16          1           0        2.101624    1.733168   -0.028117
     17          1           0        2.996928    1.778271   -1.542712
     18          1           0        4.366559    3.706759   -0.681481
     19          1           0        3.466169    3.661401    0.841719
     20          1           0        2.638984    4.099744   -0.662585
     21          6           0       -0.811642   -1.233897   -0.313331
     22          6           0       -0.945222    0.109134    0.054019
     23          6           0       -2.211776    0.676102    0.224123
     24          6           0       -3.328343   -0.132596    0.017784
     25          6           0       -3.227943   -1.473836   -0.348667
     26          6           0       -1.951419   -2.019710   -0.513149
     27          1           0        0.176121   -1.666139   -0.443288
     28          1           0       -0.061816    0.721789    0.209872
     29          1           0       -2.344036    1.713057    0.508115
     30          1           0       -4.127104   -2.059443   -0.496958
     31          1           0       -1.850701   -3.063016   -0.798481
     32          7           0       -4.674465    0.456462    0.194890
     33          8           0       -5.642510   -0.277209    0.007137
     34          8           0       -4.736020    1.640684    0.518104
 ---------------------------------------------------------------------

 SCF Done:  E(RHF) =  -669.535601037     A.U. after   15 cycles
 E2 =    -0.2091585843D+01 EUMP2 =    -0.67162718687985D+03

 The electronic state is 1-A.
 Alpha  occ. eigenvalues --  -20.60716 -20.60711 -15.85769 -11.31122 -11.27692
 Alpha  occ. eigenvalues --  -11.27685 -11.27411 -11.26702 -11.26670 -11.22697
 Alpha  occ. eigenvalues --  -11.22542 -11.22479 -11.22346 -11.21961 -11.21877
 Alpha  occ. eigenvalues --   -1.59792  -1.39346  -1.19292  -1.09444  -1.08686
 Alpha  occ. eigenvalues --   -1.04696  -1.04475  -0.96906  -0.95524  -0.87920
 Alpha  occ. eigenvalues --   -0.86095  -0.82360  -0.80552  -0.79291  -0.77409
 Alpha  occ. eigenvalues --   -0.71987  -0.71115  -0.70395  -0.66098  -0.64942
 Alpha  occ. eigenvalues --   -0.64696  -0.62111  -0.61809  -0.60273  -0.58528
 Alpha  occ. eigenvalues --   -0.56192  -0.55186  -0.53577  -0.53331  -0.53024
 Alpha  occ. eigenvalues --   -0.52805  -0.50841  -0.48876  -0.48743  -0.48723
 Alpha  occ. eigenvalues --   -0.47579  -0.46815  -0.46716  -0.44754  -0.44743
 Alpha  occ. eigenvalues --   -0.37269  -0.36299
 Alpha virt. eigenvalues --    0.05125   0.11347   0.16616   0.18553   0.22570
 Alpha virt. eigenvalues --    0.22740   0.24772   0.26120   0.26781   0.27086
 Alpha virt. eigenvalues --    0.29305   0.30496   0.30849   0.31328   0.31776

 Mulliken charges:
               1
     1  C   -0.300821
     2  C   -0.300042
     3  C   -0.476560
     4  H    0.141175
     5  H    0.150742
     6  H    0.154749
     7  H    0.155696
     8  H    0.155485
     9  H    0.151591
    10  H    0.164615
    11  C   -0.298366
    12  C   -0.306207
    13  C   -0.475959
    14  H    0.152290
    15  H    0.154369
    16  H    0.145215
    17  H    0.155092
    18  H    0.158883
    19  H    0.157257
    20  H    0.162781
    21  C   -0.176607
    22  C   -0.226511
    23  C   -0.173632
    24  C    0.158863
    25  C   -0.171159
    26  C   -0.218694
    27  H    0.229051
    28  H    0.235422
    29  H    0.275890
    30  H    0.275307
    31  H    0.223341
    32  N    0.488024
    33  O   -0.460705
    34  O   -0.460577
 Sum of Mulliken charges =  -0.00000

 Dipole moment (field-independent basis, Debye):
    X=              5.0529    Y=             -2.0133    Z=             -0.6403  Tot=              5.4768
 Quadrupole moment (field-independent basis, Debye-Ang):
   XX=           -124.4404   YY=            -91.2680   ZZ=            -94.5452
   XY=              8.5378   XZ=              2.2719   YZ=              1.0822

 Normal termination of Gaussian 16 at Thu May  6 17:16:06 2021.
