 Gaussian 16, Revision A.03,
 Gaussian 16:  EM64L-G16RevA.03 25-Dec-2016

 -------------
 #p 6-31g* mp2
 -------------

 ------------------------------------------------------
 Input file generated by CHIRIPA (05-May-2021 14:53:15)
 ------------------------------------------------------
 Symbolic Z-matrix:
 Charge =  0 Multiplicity = 1

                         Standard orientation:
 ---------------------------------------------------------------------
 Center     Atomic      Atomic             Coordinates (Angstroms)
 Number     Number       Type             X           Y           Z
 ---------------------------------------------------------------------
      1          6           0       -2.159979    1.116564   -0.145358
      2          6           0       -1.940450    1.982370    1.095679
      3          6           0       -1.069919    3.207650    0.815217
      4          1           0       -1.185418    0.793931   -0.536617
      5          1           0       -2.626081    1.726453   -0.931601
      6          1           0       -1.476166    1.370669    1.879820
      7          1           0       -2.915655    2.302821    1.484140
      8          1           0       -1.531527    3.841437    0.051127
      9          1           0       -0.083859    2.903988    0.449055
     10          1           0       -0.925865    3.812452    1.715952
     11          6           0       -3.028333   -0.112164    0.119061
     12          6           0       -3.247862   -0.977970   -1.121976
     13          6           0       -4.118393   -2.203251   -0.841514
     14          1           0       -2.562231   -0.722054    0.905304
     15          1           0       -4.002894    0.210469    0.510320
     16          1           0       -2.272657   -1.298422   -1.510437
     17          1           0       -3.712146   -0.366270   -1.906117
     18          1           0       -5.104454   -1.899589   -0.475352
     19          1           0       -3.656785   -2.837037   -0.077424
     20          1           0       -4.262447   -2.808052   -1.742249
     21          6           0        1.533728   -2.145234    1.756781
     22          6           0        1.475950   -0.788260    2.091156
     23          6           0        1.747162    0.191618    1.131557
     24          6           0        2.074341   -0.222881   -0.158574
     25          6           0        2.140104   -1.566945   -0.522522
     26          6           0        1.865036   -2.529568    0.453308
     27          1           0        1.321546   -2.899724    2.508525
     28          1           0        1.218920   -0.486862    3.102659
     29          1           0        1.709665    1.249130    1.363239
     30          1           0        2.399161   -1.836620   -1.539174
     31          1           0        1.910666   -3.582677    0.190779
     32          7           0        2.363502    0.805339   -1.183050
     33          8           0        2.649353    0.414185   -2.312618
     34          8           0        2.298822    1.982942   -0.837067
 ---------------------------------------------------------------------

 SCF Done:  E(RHF) =  -669.536098216     A.U. after   15 cycles
 E2 =    -0.2093810425D+01 EUMP2 =    -0.67162990864099D+03

 The electronic state is 1-A.
 Alpha  occ. eigenvalues --  -20.60990 -20.60984 -15.86014 -11.31352 -11.27914
 Alpha  occ. eigenvalues --  -11.27908 -11.27646 -11.26920 -11.26909 -11.21611
 Alpha  occ. eigenvalues --  -11.21528 -11.21383 -11.21242 -11.21180 -11.20663
 Alpha  occ. eigenvalues --   -1.60046  -1.39602  -1.19523  -1.08920  -1.08374
 Alpha  occ. eigenvalues --   -1.04916  -1.03464  -0.95900  -0.95751  -0.86902
 Alpha  occ. eigenvalues --   -0.86314  -0.82590  -0.79525  -0.78185  -0.77646
 Alpha  occ. eigenvalues --   -0.72236  -0.71363  -0.70624  -0.65175  -0.65055
 Alpha  occ. eigenvalues --   -0.64882  -0.62291  -0.60842  -0.59276  -0.57503
 Alpha  occ. eigenvalues --   -0.55433  -0.55161  -0.53237  -0.52997  -0.52591
 Alpha  occ. eigenvalues --   -0.52292  -0.49846  -0.48991  -0.48982  -0.47826
 Alpha  occ. eigenvalues --   -0.46578  -0.45743  -0.45683  -0.44892  -0.43717
 Alpha  occ. eigenvalues --   -0.37482  -0.36495
 Alpha virt. eigenvalues --    0.04827   0.11070   0.16277   0.20735   0.22841
 Alpha virt. eigenvalues --    0.24113   0.26348   0.26907   0.27191   0.27858
 Alpha virt. eigenvalues --    0.28858   0.30532   0.31484   0.31768   0.31977

 Mulliken charges:
               1
     1  C   -0.297509
     2  C   -0.299527
     3  C   -0.489405
     4  H    0.149424
     5  H    0.152478
     6  H    0.141661
     7  H    0.151102
     8  H    0.158738
     9  H    0.173597
    10  H    0.155256
    11  C   -0.297558
    12  C   -0.299524
    13  C   -0.475331
    14  H    0.145871
    15  H    0.149011
    16  H    0.151987
    17  H    0.154011
    18  H    0.155466
    19  H    0.151740
    20  H    0.160327
    21  C   -0.170706
    22  C   -0.219561
    23  C   -0.170455
    24  C    0.157515
    25  C   -0.171405
    26  C   -0.218479
    27  H    0.226460
    28  H    0.224820
    29  H    0.279346
    30  H    0.276199
    31  H    0.224247
    32  N    0.488968
    33  O   -0.458346
    34  O   -0.460417
 Sum of Mulliken charges =  -0.00000

 Dipole moment (field-independent basis, Debye):
    X=             -0.8648    Y=             -3.6242    Z=              3.4847  Tot=              5.1016
 Quadrupole moment (field-independent basis, Debye-Ang):
   XX=            -99.4105   YY=            -91.3438   ZZ=            -93.9827
   XY=             -9.1128   XZ=              7.5232   YZ=              2.1143

 Normal termination of Gaussian 16 at Thu May  6 20:24:44 2021.
