 Gaussian 16, Revision A.03,
 Gaussian 16:  EM64L-G16RevA.03 25-Dec-2016

 -------------
 #p 6-31g* mp2
 -------------

 ------------------------------------------------------
 Input file generated by CHIRIPA (05-May-2021 14:53:11)
 ------------------------------------------------------
 Symbolic Z-matrix:
 Charge =  0 Multiplicity = 1

                         Standard orientation:
 ---------------------------------------------------------------------
 Center     Atomic      Atomic             Coordinates (Angstroms)
 Number     Number       Type             X           Y           Z
 ---------------------------------------------------------------------
      1          6           0       -2.586412    1.089702    0.286726
      2          6           0       -2.458750    2.130813   -0.825828
      3          6           0       -1.484646    3.255584   -0.473964
      4          1           0       -2.915936    1.586833    1.209342
      5          1           0       -1.595138    0.664994    0.497423
      6          1           0       -3.450194    2.552437   -1.035320
      7          1           0       -2.129676    1.631116   -1.745952
      8          1           0       -0.483980    2.853571   -0.285144
      9          1           0       -1.812001    3.780127    0.429526
     10          1           0       -1.408643    3.988631   -1.283114
     11          6           0       -3.556699   -0.041114   -0.050209
     12          6           0       -3.684361   -1.082225    1.062345
     13          6           0       -4.658465   -2.206995    0.710481
     14          1           0       -4.547973    0.383595   -0.260907
     15          1           0       -3.227175   -0.538244   -0.972825
     16          1           0       -4.013435   -0.582527    1.982469
     17          1           0       -2.692917   -1.503848    1.271837
     18          1           0       -4.331110   -2.731539   -0.193009
     19          1           0       -5.659131   -1.804983    0.521661
     20          1           0       -4.734468   -2.940043    1.519631
     21          6           0        3.423418    1.682570    0.877473
     22          6           0        2.326232    1.775171    0.014844
     23          6           0        1.750921    0.622598   -0.528424
     24          6           0        2.300679   -0.611868   -0.186152
     25          6           0        3.393344   -0.736845    0.670443
     26          6           0        3.952539    0.429067    1.201948
     27          1           0        3.864073    2.583097    1.294929
     28          1           0        1.913222    2.747323   -0.238903
     29          1           0        0.901086    0.665419   -1.198771
     30          1           0        3.783047   -1.719997    0.904883
     31          1           0        4.804582    0.354126    1.871612
     32          7           0        1.700154   -1.839107   -0.755060
     33          8           0        2.203070   -2.914801   -0.437893
     34          8           0        0.737917   -1.702084   -1.507364
 ---------------------------------------------------------------------

 SCF Done:  E(RHF) =  -669.535431780     A.U. after   15 cycles
 E2 =    -0.2092592329D+01 EUMP2 =    -0.67162802410912D+03

 The electronic state is 1-A.
 Alpha  occ. eigenvalues --  -20.60855 -20.60847 -15.85904 -11.31255 -11.27818
 Alpha  occ. eigenvalues --  -11.27811 -11.27544 -11.26829 -11.26797 -11.21855
 Alpha  occ. eigenvalues --  -11.21684 -11.21385 -11.21241 -11.21089 -11.20640
 Alpha  occ. eigenvalues --   -1.59927  -1.39481  -1.19424  -1.08818  -1.08363
 Alpha  occ. eigenvalues --   -1.04829  -1.03519  -0.95989  -0.95656  -0.87019
 Alpha  occ. eigenvalues --   -0.86216  -0.82496  -0.79612  -0.78111  -0.77541
 Alpha  occ. eigenvalues --   -0.72122  -0.71249  -0.70530  -0.65105  -0.64987
 Alpha  occ. eigenvalues --   -0.64828  -0.62249  -0.60850  -0.59393  -0.57566
 Alpha  occ. eigenvalues --   -0.55390  -0.55217  -0.53155  -0.52968  -0.52686
 Alpha  occ. eigenvalues --   -0.52370  -0.49927  -0.48880  -0.48876  -0.47910
 Alpha  occ. eigenvalues --   -0.46629  -0.45671  -0.45531  -0.44882  -0.43737
 Alpha  occ. eigenvalues --   -0.37395  -0.36398
 Alpha virt. eigenvalues --    0.04946   0.11159   0.16353   0.19889   0.22855
 Alpha virt. eigenvalues --    0.24230   0.26112   0.26505   0.27697   0.28321
 Alpha virt. eigenvalues --    0.29179   0.30420   0.31496   0.31631   0.32604

 Mulliken charges:
               1
     1  C   -0.299411
     2  C   -0.301988
     3  C   -0.481500
     4  H    0.148277
     5  H    0.150172
     6  H    0.154798
     7  H    0.154700
     8  H    0.145904
     9  H    0.158370
    10  H    0.160620
    11  C   -0.299727
    12  C   -0.299827
    13  C   -0.476426
    14  H    0.147513
    15  H    0.158538
    16  H    0.148635
    17  H    0.156120
    18  H    0.160349
    19  H    0.152824
    20  H    0.159844
    21  C   -0.171064
    22  C   -0.221023
    23  C   -0.172262
    24  C    0.157418
    25  C   -0.170752
    26  C   -0.218420
    27  H    0.226247
    28  H    0.227579
    29  H    0.277956
    30  H    0.275782
    31  H    0.223795
    32  N    0.488324
    33  O   -0.459805
    34  O   -0.461561
 Sum of Mulliken charges =  -0.00000

 Dipole moment (field-independent basis, Debye):
    X=              2.1007    Y=              4.2115    Z=              1.9856  Tot=              5.1081
 Quadrupole moment (field-independent basis, Debye-Ang):
   XX=            -82.7012   YY=            -99.5349   ZZ=            -94.8216
   XY=              5.7872   XZ=              6.1302   YZ=             -3.3709

 Normal termination of Gaussian 16 at Thu May  6 07:15:02 2021.
