 Gaussian 16, Revision A.03,
 Gaussian 16:  EM64L-G16RevA.03 25-Dec-2016

 -------------
 #p 6-31g* mp2
 -------------

 ------------------------------------------------------
 Input file generated by CHIRIPA (05-May-2021 14:53:18)
 ------------------------------------------------------
 Symbolic Z-matrix:
 Charge =  0 Multiplicity = 1

                         Standard orientation:
 ---------------------------------------------------------------------
 Center     Atomic      Atomic             Coordinates (Angstroms)
 Number     Number       Type             X           Y           Z
 ---------------------------------------------------------------------
      1          6           0        4.354333   -0.307477    0.405366
      2          6           0        5.073143    0.184793   -0.851203
      3          6           0        6.583633   -0.046003   -0.796895
      4          1           0        4.773330    0.202817    1.283425
      5          1           0        4.557886   -1.378871    0.539807
      6          1           0        4.867167    1.254631   -0.983999
      7          1           0        4.652255   -0.326592   -1.726392
      8          1           0        6.806755   -1.112327   -0.688402
      9          1           0        7.022888    0.477880    0.058209
     10          1           0        7.077562    0.313267   -1.705090
     11          6           0        2.843669   -0.083696    0.366050
     12          6           0        2.124859   -0.575965    1.622619
     13          6           0        0.614370   -0.345169    1.568311
     14          1           0        2.640116    0.987699    0.231609
     15          1           0        2.424672   -0.593990   -0.512009
     16          1           0        2.545747   -0.064581    2.497808
     17          1           0        2.330836   -1.645804    1.755415
     18          1           0        0.175114   -0.869053    0.713207
     19          1           0        0.391247    0.721155    1.459818
     20          1           0        0.120441   -0.704439    2.476506
     21          6           0       -3.569430   -2.251207   -0.413337
     22          6           0       -2.407493   -1.851621   -1.081734
     23          6           0       -1.978226   -0.522246   -1.026606
     24          6           0       -2.738467    0.385212   -0.290506
     25          6           0       -3.900526    0.017814    0.386198
     26          6           0       -4.310931   -1.316860    0.317208
     27          1           0       -3.895569   -3.285955   -0.461546
     28          1           0       -1.829648   -2.575077   -1.649846
     29          1           0       -1.082568   -0.185797   -1.534558
     30          1           0       -4.455630    0.761848    0.944490
     31          1           0       -5.213713   -1.624342    0.837289
     32          7           0       -2.294005    1.795367   -0.224807
     33          8           0       -2.981440    2.575542    0.430477
     34          8           0       -1.266617    2.093771   -0.829841
 ---------------------------------------------------------------------

 SCF Done:  E(RHF) =  -669.534869693     A.U. after   15 cycles
 E2 =    -0.2092972069D+01 EUMP2 =    -0.67162784176200D+03

 The electronic state is 1-A.
 Alpha  occ. eigenvalues --  -20.60804 -20.60789 -15.85835 -11.31161 -11.27767
 Alpha  occ. eigenvalues --  -11.27751 -11.27514 -11.26766 -11.26753 -11.21421
 Alpha  occ. eigenvalues --  -11.21397 -11.21210 -11.21131 -11.20927 -11.20765
 Alpha  occ. eigenvalues --   -1.59863  -1.39419  -1.19365  -1.08757  -1.08231
 Alpha  occ. eigenvalues --   -1.04779  -1.03334  -0.95798  -0.95591  -0.86820
 Alpha  occ. eigenvalues --   -0.86160  -0.82437  -0.79413  -0.78046  -0.77475
 Alpha  occ. eigenvalues --   -0.72062  -0.71178  -0.70487  -0.65023  -0.64874
 Alpha  occ. eigenvalues --   -0.64767  -0.62133  -0.60738  -0.59150  -0.57409
 Alpha  occ. eigenvalues --   -0.55285  -0.55113  -0.53217  -0.52868  -0.52460
 Alpha  occ. eigenvalues --   -0.52106  -0.49710  -0.48823  -0.48816  -0.47724
 Alpha  occ. eigenvalues --   -0.46436  -0.45614  -0.45504  -0.44764  -0.43590
 Alpha  occ. eigenvalues --   -0.37320  -0.36297
 Alpha virt. eigenvalues --    0.05025   0.11276   0.16477   0.21127   0.23056
 Alpha virt. eigenvalues --    0.24357   0.26407   0.27261   0.27707   0.28139
 Alpha virt. eigenvalues --    0.28854   0.30948   0.31550   0.31954   0.32178

 Mulliken charges:
               1
     1  C   -0.298195
     2  C   -0.299569
     3  C   -0.475614
     4  H    0.150500
     5  H    0.147039
     6  H    0.155005
     7  H    0.149910
     8  H    0.153765
     9  H    0.155595
    10  H    0.160129
    11  C   -0.298085
    12  C   -0.299371
    13  C   -0.482858
    14  H    0.159023
    15  H    0.142378
    16  H    0.153010
    17  H    0.147963
    18  H    0.150545
    19  H    0.166194
    20  H    0.157638
    21  C   -0.169898
    22  C   -0.219164
    23  C   -0.171534
    24  C    0.162890
    25  C   -0.170742
    26  C   -0.218872
    27  H    0.225623
    28  H    0.223241
    29  H    0.276828
    30  H    0.275619
    31  H    0.223344
    32  N    0.488063
    33  O   -0.460226
    34  O   -0.460174
 Sum of Mulliken charges =  -0.00000

 Dipole moment (field-independent basis, Debye):
    X=             -1.6393    Y=             -4.8396    Z=             -0.2379  Tot=              5.1152
 Quadrupole moment (field-independent basis, Debye-Ang):
   XX=            -84.6429   YY=            -98.1891   ZZ=            -93.4648
   XY=             12.7597   XZ=             -1.3757   YZ=              2.6344

 Normal termination of Gaussian 16 at Thu May  6 13:59:55 2021.
