 Gaussian 16, Revision A.03,
 Gaussian 16:  EM64L-G16RevA.03 25-Dec-2016

 -------------
 #p 6-31g* mp2
 -------------

 ------------------------------------------------------
 Input file generated by CHIRIPA (05-May-2021 14:51:11)
 ------------------------------------------------------
 Symbolic Z-matrix:
 Charge =  0 Multiplicity = 1

                         Standard orientation:
 ---------------------------------------------------------------------
 Center     Atomic      Atomic             Coordinates (Angstroms)
 Number     Number       Type             X           Y           Z
 ---------------------------------------------------------------------
      1          6           0        3.037035    0.773651   -0.205167
      2          6           0        4.298962    1.547400    0.178028
      3          6           0        4.022833    3.023464    0.465746
      4          1           0        2.581546    1.241903   -1.088465
      5          1           0        2.302330    0.858576    0.607477
      6          1           0        5.031594    1.459889   -0.634505
      7          1           0        4.751605    1.077137    1.060401
      8          1           0        3.310968    3.128508    1.290861
      9          1           0        3.592547    3.513436   -0.413676
     10          1           0        4.938579    3.557632    0.737651
     11          6           0        3.296901   -0.703417   -0.495798
     12          6           0        2.034974   -1.477166   -0.878993
     13          6           0        2.311104   -2.953230   -1.166711
     14          1           0        4.031607   -0.788342   -1.308443
     15          1           0        3.752390   -1.171669    0.387499
     16          1           0        1.582331   -1.006903   -1.761367
     17          1           0        1.302343   -1.389656   -0.066461
     18          1           0        2.741390   -3.443202   -0.287290
     19          1           0        3.022969   -3.058274   -1.991826
     20          1           0        1.395357   -3.487398   -1.438616
     21          6           0       -3.430787    0.554422   -0.057287
     22          6           0       -4.911557    0.428537   -0.417090
     23          6           0       -5.424672    1.615556   -1.232868
     24          1           0       -3.274899    1.483911    0.507241
     25          1           0       -2.842813    0.647326   -0.980895
     26          1           0       -5.496431    0.334507    0.506868
     27          1           0       -5.063969   -0.500857   -0.980662
     28          1           0       -4.866619    1.708868   -2.170136
     29          1           0       -5.301538    2.548978   -0.674155
     30          1           0       -6.485329    1.504953   -1.479115
     31          6           0       -2.903149   -0.624655    0.758253
     32          6           0       -1.422380   -0.498772    1.118056
     33          6           0       -0.909264   -1.685789    1.933833
     34          1           0       -3.491123   -0.717560    1.681861
     35          1           0       -3.059038   -1.554145    0.193725
     36          1           0       -1.269967    0.430622    1.681627
     37          1           0       -0.837506   -0.404742    0.194098
     38          1           0       -1.032399   -2.619212    1.375120
     39          1           0       -1.467317   -1.779101    2.871101
     40          1           0        0.151391   -1.575187    2.180080
 ---------------------------------------------------------------------

 SCF Done:  E(RHF) =  -470.732742194     A.U. after   11 cycles
 E2 =    -0.1583607773D+01 EUMP2 =    -0.47231634996731D+03

 The electronic state is 1-A.
 Alpha  occ. eigenvalues --  -11.21600 -11.21595 -11.21578 -11.21526 -11.21405
 Alpha  occ. eigenvalues --  -11.21391 -11.21345 -11.21332 -11.21124 -11.21070
 Alpha  occ. eigenvalues --  -11.21064 -11.21056  -1.08457  -1.08396  -1.03588
 Alpha  occ. eigenvalues --   -1.03475  -0.96013  -0.95955  -0.87017  -0.86979
 Alpha  occ. eigenvalues --   -0.79658  -0.79543  -0.78330  -0.78148  -0.65172
 Alpha  occ. eigenvalues --   -0.64971  -0.61151  -0.60768  -0.59447  -0.59239
 Alpha  occ. eigenvalues --   -0.57644  -0.57540  -0.55344  -0.55190  -0.52712
 Alpha  occ. eigenvalues --   -0.52649  -0.52442  -0.52375  -0.49937  -0.49901
 Alpha  occ. eigenvalues --   -0.47996  -0.47860  -0.46746  -0.46516  -0.45953
 Alpha  occ. eigenvalues --   -0.45758  -0.45718  -0.45388  -0.43798  -0.43766
 Alpha virt. eigenvalues --    0.21067   0.23055   0.23745   0.24878   0.26183
 Alpha virt. eigenvalues --    0.26229   0.26895   0.27674   0.28056   0.29345
 Alpha virt. eigenvalues --    0.30642   0.31341   0.31662   0.31747   0.32376

 Mulliken charges:
               1
     1  C   -0.299231
     2  C   -0.299596
     3  C   -0.475667
     4  H    0.149515
     5  H    0.150242
     6  H    0.151984
     7  H    0.151843
     8  H    0.155183
     9  H    0.155204
    10  H    0.160195
    11  C   -0.297515
    12  C   -0.311808
    13  C   -0.474693
    14  H    0.149352
    15  H    0.149119
    16  H    0.150444
    17  H    0.167018
    18  H    0.155142
    19  H    0.154964
    20  H    0.159466
    21  C   -0.298378
    22  C   -0.299668
    23  C   -0.475705
    24  H    0.149695
    25  H    0.149782
    26  H    0.151909
    27  H    0.151912
    28  H    0.155171
    29  H    0.155205
    30  H    0.160239
    31  C   -0.297681
    32  C   -0.305829
    33  C   -0.478340
    34  H    0.149361
    35  H    0.149565
    36  H    0.151594
    37  H    0.158091
    38  H    0.156091
    39  H    0.156524
    40  H    0.159301
 Sum of Mulliken charges =  -0.00000

 Dipole moment (field-independent basis, Debye):
    X=             -0.0164    Y=              0.0010    Z=              0.0080  Tot=              0.0183
 Quadrupole moment (field-independent basis, Debye-Ang):
   XX=            -85.0782   YY=            -86.3332   ZZ=            -83.5043
   XY=              0.3894   XZ=             -0.6351   YZ=              0.3786

 Normal termination of Gaussian 16 at Thu May  6 05:28:56 2021.
