 Gaussian 16, Revision A.03,
 Gaussian 16:  EM64L-G16RevA.03 25-Dec-2016

 -------------
 #p 6-31g* mp2
 -------------

 ------------------------------------------------------
 Input file generated by CHIRIPA (05-May-2021 14:53:15)
 ------------------------------------------------------
 Symbolic Z-matrix:
 Charge =  0 Multiplicity = 1

                         Standard orientation:
 ---------------------------------------------------------------------
 Center     Atomic      Atomic             Coordinates (Angstroms)
 Number     Number       Type             X           Y           Z
 ---------------------------------------------------------------------
      1          6           0       -3.271378   -0.307824   -0.290464
      2          6           0       -2.650467   -1.637042   -0.721317
      3          6           0       -3.698795   -2.687751   -1.088487
      4          1           0       -3.934829   -0.481441    0.567810
      5          1           0       -3.904986    0.073449   -1.103216
      6          1           0       -2.017122   -2.015009    0.091475
      7          1           0       -1.988268   -1.460210   -1.578545
      8          1           0       -4.324445   -2.335323   -1.914900
      9          1           0       -4.353462   -2.893274   -0.235391
     10          1           0       -3.233066   -3.630053   -1.393483
     11          6           0       -2.236025    0.752704    0.079743
     12          6           0       -2.856936    2.081922    0.510596
     13          6           0       -1.808608    3.132631    0.877766
     14          1           0       -1.602417    0.371431    0.892495
     15          1           0       -1.572574    0.926320   -0.778531
     16          1           0       -3.519135    1.905090    1.367824
     17          1           0       -3.490281    2.459889   -0.302196
     18          1           0       -1.153941    3.338154    0.024670
     19          1           0       -1.182959    2.780202    1.704178
     20          1           0       -2.274337    4.074933    1.182762
     21          6           0        1.797266   -2.329806    1.344105
     22          6           0        2.721034   -2.276225    0.295151
     23          6           0        2.925395   -1.087001   -0.410915
     24          6           0        2.185558    0.034655   -0.039672
     25          6           0        1.257962    0.012962    1.000704
     26          6           0        1.069960   -1.187056    1.692919
     27          1           0        1.644868   -3.257816    1.887213
     28          1           0        3.287274   -3.162137    0.022065
     29          1           0        3.634169   -1.017558   -1.227146
     30          1           0        0.708322    0.912547    1.249822
     31          1           0        0.351882   -1.225737    2.507113
     32          7           0        2.393248    1.299347   -0.779821
     33          8           0        1.728941    2.273627   -0.433248
     34          8           0        3.216407    1.292386   -1.692508
 ---------------------------------------------------------------------

 SCF Done:  E(RHF) =  -669.534656113     A.U. after   15 cycles
 E2 =    -0.2094245536D+01 EUMP2 =    -0.67162890164866D+03

 The electronic state is 1-A.
 Alpha  occ. eigenvalues --  -20.60814 -20.60809 -15.85855 -11.31158 -11.27764
 Alpha  occ. eigenvalues --  -11.27713 -11.27515 -11.26757 -11.26745 -11.21779
 Alpha  occ. eigenvalues --  -11.21540 -11.21514 -11.21448 -11.21277 -11.20735
 Alpha  occ. eigenvalues --   -1.59882  -1.39436  -1.19356  -1.08760  -1.08526
 Alpha  occ. eigenvalues --   -1.04762  -1.03559  -0.95997  -0.95602  -0.87010
 Alpha  occ. eigenvalues --   -0.86158  -0.82441  -0.79626  -0.78439  -0.77418
 Alpha  occ. eigenvalues --   -0.72076  -0.71199  -0.70478  -0.65222  -0.64975
 Alpha  occ. eigenvalues --   -0.64768  -0.62131  -0.60941  -0.59377  -0.57616
 Alpha  occ. eigenvalues --   -0.55286  -0.55270  -0.53136  -0.52868  -0.52656
 Alpha  occ. eigenvalues --   -0.52389  -0.49939  -0.48843  -0.48831  -0.47902
 Alpha  occ. eigenvalues --   -0.46659  -0.45881  -0.45812  -0.44801  -0.43829
 Alpha  occ. eigenvalues --   -0.37336  -0.36274
 Alpha virt. eigenvalues --    0.05022   0.11232   0.16381   0.20254   0.22972
 Alpha virt. eigenvalues --    0.23695   0.25709   0.26799   0.27081   0.28286
 Alpha virt. eigenvalues --    0.29787   0.30868   0.31357   0.31728   0.32073

 Mulliken charges:
               1
     1  C   -0.298123
     2  C   -0.299473
     3  C   -0.475707
     4  H    0.147525
     5  H    0.151956
     6  H    0.147281
     7  H    0.154361
     8  H    0.157023
     9  H    0.153922
    10  H    0.158965
    11  C   -0.299792
    12  C   -0.300168
    13  C   -0.480614
    14  H    0.137383
    15  H    0.157424
    16  H    0.148317
    17  H    0.153941
    18  H    0.177591
    19  H    0.144515
    20  H    0.160243
    21  C   -0.170212
    22  C   -0.219257
    23  C   -0.170143
    24  C    0.153531
    25  C   -0.168330
    26  C   -0.220812
    27  H    0.225649
    28  H    0.223307
    29  H    0.275435
    30  H    0.284811
    31  H    0.222894
    32  N    0.488875
    33  O   -0.462162
    34  O   -0.460153
 Sum of Mulliken charges =  -0.00000

 Dipole moment (field-independent basis, Debye):
    X=             -0.6728    Y=             -4.3239    Z=              2.4520  Tot=              5.0161
 Quadrupole moment (field-independent basis, Debye-Ang):
   XX=            -96.7322   YY=            -94.8881   ZZ=            -93.0930
   XY=            -12.3687   XZ=              3.6216   YZ=              0.8932

 Normal termination of Gaussian 16 at Thu May  6 05:52:57 2021.
