 Gaussian 16, Revision A.03,
 Gaussian 16:  EM64L-G16RevA.03 25-Dec-2016

 -------------
 #p 6-31g* mp2
 -------------

 ------------------------------------------------------
 Input file generated by CHIRIPA (05-May-2021 14:51:14)
 ------------------------------------------------------
 Symbolic Z-matrix:
 Charge =  0 Multiplicity = 1

                         Standard orientation:
 ---------------------------------------------------------------------
 Center     Atomic      Atomic             Coordinates (Angstroms)
 Number     Number       Type             X           Y           Z
 ---------------------------------------------------------------------
      1          6           0        2.398347    0.856646   -0.343784
      2          6           0        2.906434    1.531596    0.930686
      3          6           0        3.045323    3.046984    0.782012
      4          1           0        3.085379    1.083973   -1.170376
      5          1           0        1.426234    1.289805   -0.617212
      6          1           0        3.876653    1.096323    1.202399
      7          1           0        2.218216    1.302478    1.754382
      8          1           0        2.079895    3.499835    0.534070
      9          1           0        3.747755    3.292509   -0.021049
     10          1           0        3.409876    3.509164    1.704699
     11          6           0        2.254273   -0.658376   -0.210826
     12          6           0        1.746186   -1.333327   -1.485297
     13          6           0        1.607297   -2.848715   -1.336623
     14          1           0        3.226387   -1.091536    0.062602
     15          1           0        1.567241   -0.885704    0.615766
     16          1           0        2.434405   -1.104208   -2.308993
     17          1           0        0.775967   -0.898053   -1.757010
     18          1           0        0.904865   -3.094240   -0.533561
     19          1           0        2.572725   -3.301566   -1.088681
     20          1           0        1.242744   -3.310894   -2.259310
     21          6           0       -1.973907   -0.469978    0.844508
     22          6           0       -1.805938   -1.966295    0.578405
     23          6           0       -1.099246   -2.694452    1.722155
     24          1           0       -0.985495   -0.020594    1.011959
     25          1           0       -2.541861   -0.331607    1.774925
     26          1           0       -1.239662   -2.101806   -0.351964
     27          1           0       -2.794849   -2.412135    0.411378
     28          1           0       -1.664628   -2.588853    2.653709
     29          1           0       -0.100605   -2.276762    1.886030
     30          1           0       -0.989699   -3.762761    1.511027
     31          6           0       -2.678713    0.271710   -0.289897
     32          6           0       -2.846682    1.768025   -0.023793
     33          6           0       -3.553375    2.496182   -1.167545
     34          1           0       -2.110759    0.133338   -1.220315
     35          1           0       -3.667125   -0.177676   -0.457348
     36          1           0       -1.857771    2.213865    0.143233
     37          1           0       -3.412958    1.903536    0.906574
     38          1           0       -4.552014    2.078492   -1.331419
     39          1           0       -2.987992    2.390584   -2.099098
     40          1           0       -3.662921    3.564491   -0.956416
 ---------------------------------------------------------------------

 SCF Done:  E(RHF) =  -470.732260175     A.U. after   11 cycles
 E2 =    -0.1585832348D+01 EUMP2 =    -0.47231809252241D+03

 The electronic state is 1-A.
 Alpha  occ. eigenvalues --  -11.21667 -11.21657 -11.21655 -11.21625 -11.21473
 Alpha  occ. eigenvalues --  -11.21467 -11.21414 -11.21407 -11.21140 -11.21114
 Alpha  occ. eigenvalues --  -11.21110 -11.21032  -1.08567  -1.08428  -1.03673
 Alpha  occ. eigenvalues --   -1.03504  -0.96094  -0.95981  -0.87074  -0.87027
 Alpha  occ. eigenvalues --   -0.79665  -0.79634  -0.78367  -0.78259  -0.65673
 Alpha  occ. eigenvalues --   -0.64680  -0.61450  -0.60514  -0.59426  -0.59383
 Alpha  occ. eigenvalues --   -0.57735  -0.57567  -0.55558  -0.55104  -0.52749
 Alpha  occ. eigenvalues --   -0.52703  -0.52509  -0.52388  -0.50007  -0.49971
 Alpha  occ. eigenvalues --   -0.48048  -0.47885  -0.46720  -0.46663  -0.46074
 Alpha  occ. eigenvalues --   -0.45900  -0.45646  -0.45459  -0.43849  -0.43828
 Alpha virt. eigenvalues --    0.18366   0.22096   0.23249   0.24570   0.25419
 Alpha virt. eigenvalues --    0.26320   0.26645   0.27912   0.29044   0.30100
 Alpha virt. eigenvalues --    0.30990   0.31442   0.31587   0.32077   0.32223

 Mulliken charges:
               1
     1  C   -0.299200
     2  C   -0.300067
     3  C   -0.475656
     4  H    0.150233
     5  H    0.149536
     6  H    0.152336
     7  H    0.151838
     8  H    0.155044
     9  H    0.155351
    10  H    0.160582
    11  C   -0.305484
    12  C   -0.302278
    13  C   -0.483490
    14  H    0.150249
    15  H    0.155942
    16  H    0.152734
    17  H    0.152541
    18  H    0.164733
    19  H    0.155398
    20  H    0.159850
    21  C   -0.301247
    22  C   -0.307025
    23  C   -0.482046
    24  H    0.151851
    25  H    0.149970
    26  H    0.159596
    27  H    0.152757
    28  H    0.156589
    29  H    0.158384
    30  H    0.160954
    31  C   -0.299617
    32  C   -0.300013
    33  C   -0.475791
    34  H    0.150148
    35  H    0.150243
    36  H    0.151457
    37  H    0.152333
    38  H    0.155406
    39  H    0.155354
    40  H    0.160507
 Sum of Mulliken charges =  -0.00000

 Dipole moment (field-independent basis, Debye):
    X=             -0.0091    Y=             -0.0163    Z=              0.0127  Tot=              0.0226
 Quadrupole moment (field-independent basis, Debye-Ang):
   XX=            -83.1905   YY=            -86.3285   ZZ=            -85.0582
   XY=              0.2423   XZ=             -1.0589   YZ=              0.3683

 Normal termination of Gaussian 16 at Wed May  5 15:24:23 2021.
