 Gaussian 16, Revision A.03,
 Gaussian 16:  EM64L-G16RevA.03 25-Dec-2016

 -------------
 #p 6-31g* mp2
 -------------

 ------------------------------------------------------
 Input file generated by CHIRIPA (05-May-2021 14:57:21)
 ------------------------------------------------------
 Symbolic Z-matrix:
 Charge =  0 Multiplicity = 1

                         Standard orientation:
 ---------------------------------------------------------------------
 Center     Atomic      Atomic             Coordinates (Angstroms)
 Number     Number       Type             X           Y           Z
 ---------------------------------------------------------------------
      1          6           0       -2.022065    2.334152    0.177806
      2          6           0       -2.749331    1.910789    1.295110
      3          6           0       -3.545705    0.763526    1.230890
      4          6           0       -3.591818    0.060447    0.028041
      5          6           0       -2.878868    0.456833   -1.102388
      6          6           0       -2.089036    1.607105   -1.015274
      7          1           0       -1.405964    3.226542    0.236585
      8          1           0       -2.699227    2.473453    2.222980
      9          1           0       -4.119003    0.413340    2.080665
     10          1           0       -2.948902   -0.124814   -2.013541
     11          1           0       -1.525309    1.933544   -1.884580
     12          7           0       -4.431441   -1.155702   -0.052064
     13          8           0       -4.455107   -1.757592   -1.123421
     14          8           0       -5.049972   -1.484001    0.958023
     15          6           0        5.932665    0.041714    0.316244
     16          6           0        5.164373    1.096016   -0.188431
     17          6           0        3.789873    0.939631   -0.390528
     18          6           0        3.213756   -0.290138   -0.075804
     19          6           0        3.952384   -1.359436    0.428497
     20          6           0        5.325288   -1.180492    0.622557
     21          1           0        6.999789    0.171960    0.470116
     22          1           0        5.633384    2.046312   -0.427200
     23          1           0        3.171405    1.739183   -0.779923
     24          1           0        3.456562   -2.294992    0.657219
     25          1           0        5.919471   -2.001022    1.014631
     26          7           0        1.759479   -0.467636   -0.285501
     27          8           0        1.275802   -1.560980   -0.000383
     28          8           0        1.130831    0.489945   -0.731009
 ---------------------------------------------------------------------

 SCF Done:  E(RHF) =  -868.338058396     A.U. after   16 cycles
 E2 =    -0.2599793491D+01 EUMP2 =    -0.87093785188718D+03

 The electronic state is 1-A.
 Alpha  occ. eigenvalues --  -20.61313 -20.61255 -20.59622 -20.59606 -15.86334
 Alpha  occ. eigenvalues --  -15.84661 -11.31629 -11.29817 -11.28226 -11.28153
 Alpha  occ. eigenvalues --  -11.27903 -11.27201 -11.27155 -11.26405 -11.26276
 Alpha  occ. eigenvalues --  -11.26087 -11.25456 -11.25275  -1.60352  -1.58692
 Alpha  occ. eigenvalues --   -1.39913  -1.38253  -1.19792  -1.17954  -1.09196
 Alpha  occ. eigenvalues --   -1.07406  -1.05185  -1.03337  -0.96046  -0.94284
 Alpha  occ. eigenvalues --   -0.86586  -0.84767  -0.82884  -0.81131  -0.77945
 Alpha  occ. eigenvalues --   -0.76198  -0.72567  -0.71670  -0.70902  -0.70893
 Alpha  occ. eigenvalues --   -0.69999  -0.69130  -0.65449  -0.65185  -0.63636
 Alpha  occ. eigenvalues --   -0.63381  -0.62537  -0.60720  -0.55680  -0.53910
 Alpha  occ. eigenvalues --   -0.53516  -0.53277  -0.51678  -0.51472  -0.49306
 Alpha  occ. eigenvalues --   -0.49265  -0.47656  -0.47633  -0.45335  -0.43707
 Alpha  occ. eigenvalues --   -0.37763  -0.36786  -0.35901  -0.34848
 Alpha virt. eigenvalues --    0.04584   0.06345   0.10870   0.12773   0.16099
 Alpha virt. eigenvalues --    0.17903   0.21018   0.22652   0.26925   0.27867
 Alpha virt. eigenvalues --    0.28593   0.29493   0.30601   0.32101   0.32154

 Mulliken charges:
               1
     1  C   -0.168303
     2  C   -0.219321
     3  C   -0.172664
     4  C    0.159487
     5  C   -0.167726
     6  C   -0.194886
     7  H    0.218584
     8  H    0.216515
     9  H    0.270442
    10  H    0.272855
    11  H    0.222367
    12  N    0.488584
    13  O   -0.462089
    14  O   -0.465148
    15  C   -0.170490
    16  C   -0.218319
    17  C   -0.171240
    18  C    0.158351
    19  C   -0.170424
    20  C   -0.218393
    21  H    0.226951
    22  H    0.223512
    23  H    0.271224
    24  H    0.277794
    25  H    0.225379
    26  N    0.490294
    27  O   -0.454424
    28  O   -0.468914
 Sum of Mulliken charges =  -0.00000

 Dipole moment (field-independent basis, Debye):
    X=              8.4856    Y=              4.7862    Z=              0.8988  Tot=              9.7837
 Quadrupole moment (field-independent basis, Debye-Ang):
   XX=            -94.8554   YY=           -101.1589   ZZ=           -100.8491
   XY=            -15.4146   XZ=              0.3291   YZ=             -1.5152

 Normal termination of Gaussian 16 at Thu May  6 19:29:54 2021.
