 Gaussian 16, Revision A.03,
 Gaussian 16:  EM64L-G16RevA.03 25-Dec-2016

 -------------
 #p 6-31g* mp2
 -------------

 ------------------------------------------------------
 Input file generated by CHIRIPA (05-May-2021 14:57:25)
 ------------------------------------------------------
 Symbolic Z-matrix:
 Charge =  0 Multiplicity = 1

                         Standard orientation:
 ---------------------------------------------------------------------
 Center     Atomic      Atomic             Coordinates (Angstroms)
 Number     Number       Type             X           Y           Z
 ---------------------------------------------------------------------
      1          6           0        5.812389    1.080239   -1.095564
      2          6           0        4.826034    1.882257   -0.512133
      3          6           0        3.752760    1.303260    0.171527
      4          6           0        3.696953   -0.087268    0.252823
      5          6           0        4.664079   -0.913240   -0.317903
      6          6           0        5.728412   -0.312494   -0.996761
      7          1           0        6.642661    1.538466   -1.624783
      8          1           0        4.888675    2.964142   -0.587279
      9          1           0        2.975388    1.900418    0.632519
     10          1           0        4.574481   -1.988878   -0.226285
     11          1           0        6.492985   -0.937840   -1.448884
     12          7           0        2.565459   -0.711738    0.974042
     13          8           0        2.539218   -1.939191    1.031557
     14          8           0        1.726259    0.038079    1.468162
     15          6           0       -6.260267    0.826906   -0.215790
     16          6           0       -5.918589   -0.367788   -0.858039
     17          6           0       -4.604771   -0.844159   -0.819285
     18          6           0       -3.653654   -0.097109   -0.126046
     19          6           0       -3.962981    1.096755    0.523798
     20          6           0       -5.283096    1.554083    0.471867
     21          1           0       -7.283318    1.189565   -0.251012
     22          1           0       -6.675395   -0.934607   -1.392832
     23          1           0       -4.312817   -1.765909   -1.307709
     24          1           0       -3.186667    1.639817    1.049001
     25          1           0       -5.545572    2.482226    0.971566
     26          7           0       -2.259441   -0.591340   -0.078045
     27          8           0       -1.439988    0.085363    0.539375
     28          8           0       -2.012509   -1.646065   -0.658749
 ---------------------------------------------------------------------

 SCF Done:  E(RHF) =  -868.334863125     A.U. after   16 cycles
 E2 =    -0.2600530243D+01 EUMP2 =    -0.87093539336826D+03

 The electronic state is 1-A.
 Alpha  occ. eigenvalues --  -20.59772 -20.59706 -20.59420 -20.59317 -15.84805
 Alpha  occ. eigenvalues --  -15.84433 -11.30522 -11.30230 -11.27141 -11.27128
 Alpha  occ. eigenvalues --  -11.26952 -11.26855 -11.26850 -11.26696 -11.26237
 Alpha  occ. eigenvalues --  -11.26226 -11.25982 -11.25971  -1.58820  -1.58424
 Alpha  occ. eigenvalues --   -1.38364  -1.37972  -1.18733  -1.18447  -1.08063
 Alpha  occ. eigenvalues --   -1.07764  -1.04188  -1.03919  -0.94836  -0.94523
 Alpha  occ. eigenvalues --   -0.85569  -0.85297  -0.81668  -0.81357  -0.76657
 Alpha  occ. eigenvalues --   -0.76331  -0.71063  -0.70585  -0.70174  -0.69841
 Alpha  occ. eigenvalues --   -0.69744  -0.69563  -0.64375  -0.64197  -0.64091
 Alpha  occ. eigenvalues --   -0.63935  -0.61531  -0.61264  -0.54683  -0.54420
 Alpha  occ. eigenvalues --   -0.52500  -0.52286  -0.52221  -0.52023  -0.47862
 Alpha  occ. eigenvalues --   -0.47772  -0.47400  -0.47303  -0.43694  -0.43246
 Alpha  occ. eigenvalues --   -0.36737  -0.36454  -0.35809  -0.35542
 Alpha virt. eigenvalues --    0.05886   0.06227   0.11840   0.12107   0.17314
 Alpha virt. eigenvalues --    0.17632   0.21930   0.22158   0.27814   0.28035
 Alpha virt. eigenvalues --    0.28856   0.29096   0.31454   0.31670   0.33119

 Mulliken charges:
               1
     1  C   -0.172358
     2  C   -0.218730
     3  C   -0.170838
     4  C    0.160653
     5  C   -0.171233
     6  C   -0.218615
     7  H    0.221934
     8  H    0.219851
     9  H    0.275588
    10  H    0.275112
    11  H    0.220461
    12  N    0.488672
    13  O   -0.462377
    14  O   -0.447992
    15  C   -0.172011
    16  C   -0.218574
    17  C   -0.171584
    18  C    0.159056
    19  C   -0.171689
    20  C   -0.218623
    21  H    0.223100
    22  H    0.221290
    23  H    0.275019
    24  H    0.276446
    25  H    0.221234
    26  N    0.486567
    27  O   -0.447962
    28  O   -0.462399
 Sum of Mulliken charges =  -0.00000

 Dipole moment (field-independent basis, Debye):
    X=             -0.9850    Y=              3.9031    Z=             -2.5466  Tot=              4.7634
 Quadrupole moment (field-independent basis, Debye-Ang):
   XX=            -42.6340   YY=            -98.9770   ZZ=           -105.8572
   XY=              1.0257   XZ=             -6.8164   YZ=              4.2302

 Normal termination of Gaussian 16 at Fri May  7 11:07:56 2021.
