 Gaussian 16, Revision A.03,
 Gaussian 16:  EM64L-G16RevA.03 25-Dec-2016

 -------------
 #p 6-31g* mp2
 -------------

 ------------------------------------------------------
 Input file generated by CHIRIPA (05-May-2021 14:51:08)
 ------------------------------------------------------
 Symbolic Z-matrix:
 Charge =  0 Multiplicity = 1

                         Standard orientation:
 ---------------------------------------------------------------------
 Center     Atomic      Atomic             Coordinates (Angstroms)
 Number     Number       Type             X           Y           Z
 ---------------------------------------------------------------------
      1          6           0        3.707866   -0.609177    0.098468
      2          6           0        3.024214   -1.651066   -0.787575
      3          6           0        3.164755   -3.073197   -0.243897
      4          1           0        4.772428   -0.862249    0.196480
      5          1           0        3.280101   -0.660216    1.109313
      6          1           0        3.452175   -1.597133   -1.796811
      7          1           0        1.961195   -1.395377   -0.883645
      8          1           0        2.720847   -3.149775    0.753942
      9          1           0        4.220299   -3.352678   -0.164412
     10          1           0        2.668797   -3.801869   -0.892683
     11          6           0        3.576087    0.817388   -0.431884
     12          6           0        4.259739    1.859277    0.454159
     13          6           0        4.119198    3.281408   -0.089519
     14          1           0        4.003851    0.868427   -1.442729
     15          1           0        2.511524    1.070460   -0.529896
     16          1           0        5.322758    1.603588    0.550229
     17          1           0        3.831777    1.805345    1.463395
     18          1           0        3.063654    3.560889   -0.169004
     19          1           0        4.563106    3.357986   -1.087358
     20          1           0        4.615155    4.010080    0.559267
     21          6           0       -4.254675    0.318670    0.337859
     22          6           0       -5.329450    0.296786   -0.749509
     23          6           0       -6.548924    1.147228   -0.392546
     24          1           0       -4.689330   -0.038843    1.281365
     25          1           0       -3.940391    1.357053    0.512154
     26          1           0       -5.640622   -0.741385   -0.922678
     27          1           0       -4.892135    0.654212   -1.690583
     28          1           0       -6.258765    2.191766   -0.239746
     29          1           0       -7.011504    0.788240    0.532521
     30          1           0       -7.304705    1.117306   -1.183596
     31          6           0       -3.029277   -0.526881   -0.004443
     32          6           0       -1.954503   -0.504997    1.082925
     33          6           0       -0.735028   -1.355440    0.725962
     34          1           0       -3.343562   -1.565265   -0.178738
     35          1           0       -2.594623   -0.169369   -0.947949
     36          1           0       -2.391817   -0.862423    2.023999
     37          1           0       -1.643331    0.533174    1.256094
     38          1           0       -0.272449   -0.996451   -0.199105
     39          1           0       -1.025188   -2.399978    0.573162
     40          1           0        0.020753   -1.325517    1.517012
 ---------------------------------------------------------------------

 SCF Done:  E(RHF) =  -470.733148451     A.U. after   11 cycles
 E2 =    -0.1582874017D+01 EUMP2 =    -0.47231602246781D+03

 The electronic state is 1-A.
 Alpha  occ. eigenvalues --  -11.21668 -11.21630 -11.21582 -11.21467 -11.21451
 Alpha  occ. eigenvalues --  -11.21390 -11.21362 -11.21294 -11.21158 -11.21093
 Alpha  occ. eigenvalues --  -11.21063 -11.20979  -1.08480  -1.08375  -1.03590
 Alpha  occ. eigenvalues --   -1.03463  -0.96039  -0.95921  -0.87060  -0.86937
 Alpha  occ. eigenvalues --   -0.79677  -0.79511  -0.78296  -0.78185  -0.65143
 Alpha  occ. eigenvalues --   -0.64985  -0.61059  -0.60810  -0.59395  -0.59295
 Alpha  occ. eigenvalues --   -0.57655  -0.57527  -0.55333  -0.55212  -0.52726
 Alpha  occ. eigenvalues --   -0.52621  -0.52470  -0.52343  -0.50079  -0.49795
 Alpha  occ. eigenvalues --   -0.48031  -0.47814  -0.46799  -0.46451  -0.45885
 Alpha  occ. eigenvalues --   -0.45769  -0.45705  -0.45505  -0.43831  -0.43727
 Alpha virt. eigenvalues --    0.20991   0.23002   0.23914   0.24666   0.25637
 Alpha virt. eigenvalues --    0.26499   0.26844   0.27675   0.27982   0.29247
 Alpha virt. eigenvalues --    0.30578   0.30777   0.31699   0.31832   0.32429

 Mulliken charges:
               1
     1  C   -0.298069
     2  C   -0.305900
     3  C   -0.475462
     4  H    0.149347
     5  H    0.149379
     6  H    0.150893
     7  H    0.159925
     8  H    0.155716
     9  H    0.154470
    10  H    0.159863
    11  C   -0.298405
    12  C   -0.299593
    13  C   -0.475639
    14  H    0.149399
    15  H    0.149104
    16  H    0.151983
    17  H    0.151841
    18  H    0.154879
    19  H    0.155144
    20  H    0.160189
    21  C   -0.298313
    22  C   -0.299706
    23  C   -0.475740
    24  H    0.149772
    25  H    0.149554
    26  H    0.152017
    27  H    0.152026
    28  H    0.155227
    29  H    0.155223
    30  H    0.160377
    31  C   -0.298575
    32  C   -0.299833
    33  C   -0.479401
    34  H    0.149776
    35  H    0.149779
    36  H    0.152216
    37  H    0.151762
    38  H    0.158023
    39  H    0.156313
    40  H    0.160439
 Sum of Mulliken charges =  -0.00000

 Dipole moment (field-independent basis, Debye):
    X=             -0.0506    Y=             -0.0111    Z=              0.0033  Tot=              0.0519
 Quadrupole moment (field-independent basis, Debye-Ang):
   XX=            -84.8402   YY=            -85.6400   ZZ=            -84.4135
   XY=              0.8639   XZ=             -0.5331   YZ=             -0.1052

 Normal termination of Gaussian 16 at Wed May  5 21:19:05 2021.
