 Gaussian 16, Revision A.03,
 Gaussian 16:  EM64L-G16RevA.03 25-Dec-2016

 -------------
 #p 6-31g* mp2
 -------------

 ------------------------------------------------------
 Input file generated by CHIRIPA (05-May-2021 14:53:14)
 ------------------------------------------------------
 Symbolic Z-matrix:
 Charge =  0 Multiplicity = 1

                         Standard orientation:
 ---------------------------------------------------------------------
 Center     Atomic      Atomic             Coordinates (Angstroms)
 Number     Number       Type             X           Y           Z
 ---------------------------------------------------------------------
      1          6           0        3.719807    0.184267   -0.240251
      2          6           0        3.693156   -1.279064    0.202396
      3          6           0        4.742657   -2.131748   -0.511238
      4          1           0        3.559332    0.235305   -1.325879
      5          1           0        4.719928    0.598785   -0.052293
      6          1           0        2.692978   -1.690305    0.014937
      7          1           0        3.853523   -1.326613    1.287126
      8          1           0        5.749103   -1.748327   -0.314626
      9          1           0        4.581964   -2.114086   -1.594043
     10          1           0        4.705988   -3.174173   -0.179779
     11          6           0        2.676339    1.049417    0.464317
     12          6           0        2.702990    2.512748    0.021669
     13          6           0        1.653489    3.365431    0.735303
     14          1           0        1.676218    0.634898    0.276358
     15          1           0        2.836814    0.998379    1.549945
     16          1           0        2.542623    2.560296   -1.063060
     17          1           0        3.703168    2.923988    0.209128
     18          1           0        1.814182    3.347769    1.818109
     19          1           0        0.647043    2.982011    0.538691
     20          1           0        1.690159    4.407857    0.403845
     21          6           0       -0.713619   -2.247807    0.160945
     22          6           0       -0.460709   -1.098398   -0.594976
     23          6           0       -1.442270   -0.113404   -0.739457
     24          6           0       -2.671050   -0.311187   -0.111547
     25          6           0       -2.953302   -1.445435    0.648128
     26          6           0       -1.956915   -2.417358    0.778994
     27          1           0        0.054640   -3.007897    0.267892
     28          1           0        0.503932   -0.964053   -1.076083
     29          1           0       -1.273188    0.786082   -1.318901
     30          1           0       -3.924598   -1.551235    1.115896
     31          1           0       -2.156128   -3.308994    1.366656
     32          7           0       -3.718032    0.724664   -0.257295
     33          8           0       -4.792404    0.526674    0.305876
     34          8           0       -3.444459    1.714938   -0.931945
 ---------------------------------------------------------------------

 SCF Done:  E(RHF) =  -669.534641115     A.U. after   15 cycles
 E2 =    -0.2093444338D+01 EUMP2 =    -0.67162808545336D+03

 The electronic state is 1-A.
 Alpha  occ. eigenvalues --  -20.60801 -20.60796 -15.85855 -11.31244 -11.27821
 Alpha  occ. eigenvalues --  -11.27808 -11.27543 -11.26826 -11.26803 -11.22609
 Alpha  occ. eigenvalues --  -11.22180 -11.22042 -11.21937 -11.21913 -11.21295
 Alpha  occ. eigenvalues --   -1.59876  -1.39429  -1.19421  -1.09158  -1.08802
 Alpha  occ. eigenvalues --   -1.04831  -1.04180  -0.96597  -0.95637  -0.87608
 Alpha  occ. eigenvalues --   -0.86230  -0.82477  -0.80273  -0.78945  -0.77511
 Alpha  occ. eigenvalues --   -0.72073  -0.71199  -0.70518  -0.65984  -0.65073
 Alpha  occ. eigenvalues --   -0.64718  -0.62155  -0.61592  -0.59987  -0.58204
 Alpha  occ. eigenvalues --   -0.55905  -0.55306  -0.53298  -0.53181  -0.53008
 Alpha  occ. eigenvalues --   -0.52874  -0.50553  -0.48838  -0.48827  -0.48565
 Alpha  occ. eigenvalues --   -0.47346  -0.46438  -0.46369  -0.44828  -0.44429
 Alpha  occ. eigenvalues --   -0.37376  -0.36376
 Alpha virt. eigenvalues --    0.04989   0.11105   0.16360   0.18983   0.22825
 Alpha virt. eigenvalues --    0.23205   0.25598   0.26277   0.26842   0.27550
 Alpha virt. eigenvalues --    0.29939   0.30627   0.30980   0.31344   0.32155

 Mulliken charges:
               1
     1  C   -0.300119
     2  C   -0.301201
     3  C   -0.475854
     4  H    0.146865
     5  H    0.154370
     6  H    0.139700
     7  H    0.156339
     8  H    0.159616
     9  H    0.155310
    10  H    0.160148
    11  C   -0.305667
    12  C   -0.300221
    13  C   -0.476294
    14  H    0.149545
    15  H    0.152553
    16  H    0.149926
    17  H    0.153626
    18  H    0.156361
    19  H    0.157212
    20  H    0.163605
    21  C   -0.173097
    22  C   -0.218013
    23  C   -0.172739
    24  C    0.158887
    25  C   -0.170553
    26  C   -0.218517
    27  H    0.226972
    28  H    0.227740
    29  H    0.276060
    30  H    0.275926
    31  H    0.223866
    32  N    0.488069
    33  O   -0.460112
    34  O   -0.460308
 Sum of Mulliken charges =  -0.00000

 Dipole moment (field-independent basis, Debye):
    X=              3.7474    Y=             -3.5906    Z=              0.5921  Tot=              5.2236
 Quadrupole moment (field-independent basis, Debye-Ang):
   XX=           -112.4242   YY=            -91.6723   ZZ=            -93.4700
   XY=             11.4014   XZ=             -2.8673   YZ=             -1.6991

 Normal termination of Gaussian 16 at Thu May  6 01:03:31 2021.
