 Gaussian 16, Revision A.03,
 Gaussian 16:  EM64L-G16RevA.03 25-Dec-2016

 -------------
 #p 6-31g* mp2
 -------------

 ------------------------------------------------------
 Input file generated by CHIRIPA (05-May-2021 14:53:16)
 ------------------------------------------------------
 Symbolic Z-matrix:
 Charge =  0 Multiplicity = 1

                         Standard orientation:
 ---------------------------------------------------------------------
 Center     Atomic      Atomic             Coordinates (Angstroms)
 Number     Number       Type             X           Y           Z
 ---------------------------------------------------------------------
      1          6           0        3.263685   -1.195307    0.161914
      2          6           0        1.805541   -1.180104    0.621881
      3          6           0        1.169423   -2.570470    0.616414
      4          1           0        3.318079   -1.621004   -0.849406
      5          1           0        3.839810   -1.865700    0.814639
      6          1           0        1.232619   -0.508867   -0.030666
      7          1           0        1.754590   -0.754216    1.632148
      8          1           0        1.715778   -3.246698    1.281856
      9          1           0        1.190842   -2.999954   -0.390405
     10          1           0        0.127147   -2.536407    0.948619
     11          6           0        3.913390    0.187304    0.161972
     12          6           0        5.371534    0.172101   -0.297995
     13          6           0        6.007652    1.562467   -0.292528
     14          1           0        3.337265    0.857697   -0.490752
     15          1           0        3.858996    0.613001    1.173292
     16          1           0        5.422485   -0.253787   -1.308262
     17          1           0        5.944456   -0.499136    0.354552
     18          1           0        5.986233    1.991951    0.714292
     19          1           0        5.461297    2.238695   -0.957970
     20          1           0        7.049928    1.528404   -0.624733
     21          6           0       -1.995650    2.767709    0.151960
     22          6           0       -1.151065    1.801611   -0.404682
     23          6           0       -1.588117    0.483189   -0.563733
     24          6           0       -2.881649    0.164246   -0.153441
     25          6           0       -3.746750    1.104223    0.404531
     26          6           0       -3.288517    2.416552    0.554081
     27          1           0       -1.647911    3.789524    0.271825
     28          1           0       -0.146506    2.071465   -0.717867
     29          1           0       -0.955110   -0.284647   -0.991689
     30          1           0       -4.742867    0.805082    0.707324
     31          1           0       -3.946618    3.164750    0.986689
     32          7           0       -3.355548   -1.228283   -0.316792
     33          8           0       -4.499608   -1.483829    0.052617
     34          8           0       -2.573959   -2.037833   -0.811141
 ---------------------------------------------------------------------

 SCF Done:  E(RHF) =  -669.535339407     A.U. after   15 cycles
 E2 =    -0.2092367948D+01 EUMP2 =    -0.67162770735489D+03

 The electronic state is 1-A.
 Alpha  occ. eigenvalues --  -20.60813 -20.60808 -15.85850 -11.31184 -11.27762
 Alpha  occ. eigenvalues --  -11.27730 -11.27499 -11.26772 -11.26756 -11.21921
 Alpha  occ. eigenvalues --  -11.21863 -11.21783 -11.21616 -11.21409 -11.20836
 Alpha  occ. eigenvalues --   -1.59879  -1.39433  -1.19363  -1.08763  -1.08723
 Alpha  occ. eigenvalues --   -1.04767  -1.03743  -0.96155  -0.95599  -0.87155
 Alpha  occ. eigenvalues --   -0.86161  -0.82440  -0.79819  -0.78567  -0.77480
 Alpha  occ. eigenvalues --   -0.72071  -0.71198  -0.70482  -0.65386  -0.65013
 Alpha  occ. eigenvalues --   -0.64766  -0.62191  -0.61089  -0.59516  -0.57770
 Alpha  occ. eigenvalues --   -0.55460  -0.55246  -0.53092  -0.52854  -0.52793
 Alpha  occ. eigenvalues --   -0.52566  -0.50094  -0.48834  -0.48828  -0.48111
 Alpha  occ. eigenvalues --   -0.46872  -0.46089  -0.46017  -0.44845  -0.43972
 Alpha  occ. eigenvalues --   -0.37344  -0.36336
 Alpha virt. eigenvalues --    0.05005   0.11259   0.16457   0.19977   0.22866
 Alpha virt. eigenvalues --    0.23870   0.25080   0.26763   0.27112   0.28326
 Alpha virt. eigenvalues --    0.29264   0.31201   0.31439   0.31915   0.32145

 Mulliken charges:
               1
     1  C   -0.298133
     2  C   -0.301531
     3  C   -0.478275
     4  H    0.150884
     5  H    0.152322
     6  H    0.138254
     7  H    0.152776
     8  H    0.154995
     9  H    0.158989
    10  H    0.171252
    11  C   -0.296842
    12  C   -0.299808
    13  C   -0.475679
    14  H    0.141642
    15  H    0.149800
    16  H    0.153026
    17  H    0.153923
    18  H    0.155094
    19  H    0.153061
    20  H    0.161813
    21  C   -0.170901
    22  C   -0.218406
    23  C   -0.171846
    24  C    0.157378
    25  C   -0.171002
    26  C   -0.218667
    27  H    0.225746
    28  H    0.223951
    29  H    0.279412
    30  H    0.275505
    31  H    0.223450
    32  N    0.487929
    33  O   -0.459874
    34  O   -0.460239
 Sum of Mulliken charges =  -0.00000

 Dipole moment (field-independent basis, Debye):
    X=              1.6625    Y=              4.7826    Z=              0.6232  Tot=              5.1015
 Quadrupole moment (field-independent basis, Debye-Ang):
   XX=           -100.6778   YY=            -93.8990   ZZ=            -93.9524
   XY=            -16.0762   XZ=             -3.5873   YZ=             -0.1744

 Normal termination of Gaussian 16 at Thu May  6 20:27:08 2021.
