 Gaussian 16, Revision A.03,
 Gaussian 16:  EM64L-G16RevA.03 25-Dec-2016

 -------------
 #p 6-31g* mp2
 -------------

 ------------------------------------------------------
 Input file generated by CHIRIPA (05-May-2021 14:57:26)
 ------------------------------------------------------
 Symbolic Z-matrix:
 Charge =  0 Multiplicity = 1

                         Standard orientation:
 ---------------------------------------------------------------------
 Center     Atomic      Atomic             Coordinates (Angstroms)
 Number     Number       Type             X           Y           Z
 ---------------------------------------------------------------------
      1          6           0       -5.219717    1.418421   -0.356853
      2          6           0       -5.316370    0.135691   -0.906200
      3          6           0       -4.352684   -0.834998   -0.617027
      4          6           0       -3.300920   -0.487117    0.229177
      5          6           0       -3.177002    0.782198    0.792003
      6          6           0       -4.152223    1.737019    0.489004
      7          1           0       -5.972812    2.166312   -0.586859
      8          1           0       -6.144307   -0.114554   -1.563423
      9          1           0       -4.403138   -1.835722   -1.028639
     10          1           0       -2.340167    1.001975    1.443787
     11          1           0       -4.074607    2.732399    0.917068
     12          7           0       -2.274602   -1.506343    0.542630
     13          8           0       -1.357711   -1.174802    1.290980
     14          8           0       -2.406500   -2.617452    0.034029
     15          6           0        1.331840    1.638200   -0.409839
     16          6           0        2.491560    2.262204    0.061531
     17          6           0        3.681934    1.541141    0.194290
     18          6           0        3.676785    0.191615   -0.155056
     19          6           0        2.537723   -0.458407   -0.627603
     20          6           0        1.358576    0.282276   -0.752297
     21          1           0        0.411490    2.205959   -0.509836
     22          1           0        2.473737    3.315102    0.328242
     23          1           0        4.594218    1.999245    0.556640
     24          1           0        2.586469   -1.509364   -0.885536
     25          1           0        0.459439   -0.204953   -1.118638
     26          7           0        4.931038   -0.582128   -0.018780
     27          8           0        4.900348   -1.769900   -0.333255
     28          8           0        5.921063    0.013834    0.399929
 ---------------------------------------------------------------------

 SCF Done:  E(RHF) =  -868.337842909     A.U. after   16 cycles
 E2 =    -0.2599787154D+01 EUMP2 =    -0.87093763006332D+03

 The electronic state is 1-A.
 Alpha  occ. eigenvalues --  -20.61663 -20.61651 -20.60206 -20.60189 -15.86689
 Alpha  occ. eigenvalues --  -15.85250 -11.32041 -11.30573 -11.28617 -11.28562
 Alpha  occ. eigenvalues --  -11.28292 -11.27604 -11.27552 -11.27170 -11.27047
 Alpha  occ. eigenvalues --  -11.26947 -11.26250 -11.26106  -1.60743  -1.59275
 Alpha  occ. eigenvalues --   -1.40288  -1.38829  -1.20201  -1.18741  -1.09594
 Alpha  occ. eigenvalues --   -1.08171  -1.05591  -1.04127  -0.96430  -0.95010
 Alpha  occ. eigenvalues --   -0.86984  -0.85551  -0.83252  -0.81833  -0.78316
 Alpha  occ. eigenvalues --   -0.76869  -0.72890  -0.72094  -0.71474  -0.71279
 Alpha  occ. eigenvalues --   -0.70593  -0.69912  -0.65840  -0.65574  -0.64408
 Alpha  occ. eigenvalues --   -0.64152  -0.62929  -0.61478  -0.56064  -0.54726
 Alpha  occ. eigenvalues --   -0.53931  -0.53666  -0.52463  -0.52242  -0.49671
 Alpha  occ. eigenvalues --   -0.49656  -0.48234  -0.48224  -0.45677  -0.44244
 Alpha  occ. eigenvalues --   -0.38174  -0.37203  -0.36750  -0.35683
 Alpha virt. eigenvalues --    0.04179   0.05649   0.10425   0.11939   0.15697
 Alpha virt. eigenvalues --    0.17143   0.20556   0.21821   0.26431   0.27291
 Alpha virt. eigenvalues --    0.27734   0.28810   0.30384   0.31066   0.32035

 Mulliken charges:
               1
     1  C   -0.170366
     2  C   -0.218147
     3  C   -0.170965
     4  C    0.155609
     5  C   -0.176655
     6  C   -0.218931
     7  H    0.228281
     8  H    0.226501
     9  H    0.277778
    10  H    0.275575
    11  H    0.224433
    12  N    0.484590
    13  O   -0.458434
    14  O   -0.457456
    15  C   -0.172443
    16  C   -0.218397
    17  C   -0.172033
    18  C    0.158332
    19  C   -0.168987
    20  C   -0.205452
    21  H    0.217109
    22  H    0.218888
    23  H    0.273328
    24  H    0.278890
    25  H    0.222980
    26  N    0.488085
    27  O   -0.459129
    28  O   -0.462986
 Sum of Mulliken charges =  -0.00000

 Dipole moment (field-independent basis, Debye):
    X=             -8.3228    Y=              6.1144    Z=             -1.5938  Tot=             10.4497
 Quadrupole moment (field-independent basis, Debye-Ang):
   XX=           -111.6828   YY=           -102.4733   ZZ=           -104.2732
   XY=              2.5534   XZ=              4.4579   YZ=              4.7160

 Normal termination of Gaussian 16 at Fri May  7 09:40:08 2021.
