 Gaussian 16, Revision A.03,
 Gaussian 16:  EM64L-G16RevA.03 25-Dec-2016

 -------------
 #p 6-31g* mp2
 -------------

 ------------------------------------------------------
 Input file generated by CHIRIPA (05-May-2021 14:51:11)
 ------------------------------------------------------
 Symbolic Z-matrix:
 Charge =  0 Multiplicity = 1

                         Standard orientation:
 ---------------------------------------------------------------------
 Center     Atomic      Atomic             Coordinates (Angstroms)
 Number     Number       Type             X           Y           Z
 ---------------------------------------------------------------------
      1          6           0        3.851769    0.849515   -0.367765
      2          6           0        3.916537    1.889598    0.751171
      3          6           0        4.409275    3.252441    0.263667
      4          1           0        4.848340    0.741357   -0.817311
      5          1           0        3.188465    1.217331   -1.162834
      6          1           0        4.578431    1.519319    1.544522
      7          1           0        2.919737    1.995152    1.198233
      8          1           0        3.745439    3.647064   -0.512346
      9          1           0        5.413558    3.168527   -0.164089
     10          1           0        4.447859    3.980794    1.079678
     11          6           0        3.360958   -0.518065    0.103996
     12          6           0        3.296190   -1.558149   -1.014940
     13          6           0        2.803451   -2.920992   -0.527436
     14          1           0        4.024261   -0.885881    0.899065
     15          1           0        2.364386   -0.409908    0.553542
     16          1           0        4.292990   -1.663703   -1.462002
     17          1           0        2.634295   -1.187870   -1.808291
     18          1           0        1.799169   -2.837078   -0.099680
     19          1           0        3.467288   -3.315614    0.248577
     20          1           0        2.764868   -3.649345   -1.343447
     21          6           0       -3.347335   -0.749338    0.551089
     22          6           0       -1.924812   -1.174320    0.185300
     23          6           0       -1.420645   -2.342944    1.032605
     24          1           0       -3.378991   -0.473841    1.614125
     25          1           0       -4.021649   -1.608518    0.430646
     26          1           0       -1.253614   -0.314224    0.305070
     27          1           0       -1.896496   -1.448654   -0.877035
     28          1           0       -2.066687   -3.217667    0.905746
     29          1           0       -1.420152   -2.076790    2.094566
     30          1           0       -0.401898   -2.630395    0.754422
     31          6           0       -3.865391    0.417888   -0.287320
     32          6           0       -5.287915    0.842871    0.078469
     33          6           0       -5.792082    2.011495   -0.768836
     34          1           0       -3.191078    1.277068   -0.166876
     35          1           0       -3.833736    0.142391   -1.350355
     36          1           0       -5.316231    1.117205    1.140805
     37          1           0       -5.959112   -0.017225   -0.041300
     38          1           0       -5.792575    1.745341   -1.830798
     39          1           0       -5.146041    2.886217   -0.641976
     40          1           0       -6.810829    2.298945   -0.490652
 ---------------------------------------------------------------------

 SCF Done:  E(RHF) =  -470.733376710     A.U. after   11 cycles
 E2 =    -0.1582517056D+01 EUMP2 =    -0.47231589376600D+03

 The electronic state is 1-A.
 Alpha  occ. eigenvalues --  -11.21656 -11.21625 -11.21608 -11.21601 -11.21439
 Alpha  occ. eigenvalues --  -11.21406 -11.21380 -11.21346 -11.21105 -11.21091
 Alpha  occ. eigenvalues --  -11.21076 -11.21073  -1.08466  -1.08432  -1.03571
 Alpha  occ. eigenvalues --   -1.03528  -0.96029  -0.95970  -0.87056  -0.86977
 Alpha  occ. eigenvalues --   -0.79641  -0.79582  -0.78277  -0.78244  -0.65099
 Alpha  occ. eigenvalues --   -0.65062  -0.60970  -0.60952  -0.59433  -0.59315
 Alpha  occ. eigenvalues --   -0.57708  -0.57524  -0.55300  -0.55276  -0.52785
 Alpha  occ. eigenvalues --   -0.52676  -0.52491  -0.52297  -0.49950  -0.49914
 Alpha  occ. eigenvalues --   -0.48008  -0.47844  -0.46661  -0.46617  -0.45819
 Alpha  occ. eigenvalues --   -0.45789  -0.45746  -0.45698  -0.43801  -0.43785
 Alpha virt. eigenvalues --    0.20858   0.23111   0.23455   0.24993   0.26188
 Alpha virt. eigenvalues --    0.26489   0.27004   0.27351   0.27912   0.28830
 Alpha virt. eigenvalues --    0.30073   0.31365   0.31723   0.31808   0.31977

 Mulliken charges:
               1
     1  C   -0.298367
     2  C   -0.299587
     3  C   -0.475718
     4  H    0.149704
     5  H    0.149651
     6  H    0.151979
     7  H    0.151692
     8  H    0.155189
     9  H    0.155234
    10  H    0.160214
    11  C   -0.298886
    12  C   -0.299103
    13  C   -0.483880
    14  H    0.149586
    15  H    0.149985
    16  H    0.151987
    17  H    0.152147
    18  H    0.162073
    19  H    0.155556
    20  H    0.160527
    21  C   -0.298434
    22  C   -0.299290
    23  C   -0.484271
    24  H    0.149811
    25  H    0.149818
    26  H    0.151176
    27  H    0.152135
    28  H    0.155872
    29  H    0.155637
    30  H    0.167402
    31  C   -0.298267
    32  C   -0.299692
    33  C   -0.475730
    34  H    0.149371
    35  H    0.149695
    36  H    0.152012
    37  H    0.152032
    38  H    0.155208
    39  H    0.155171
    40  H    0.160362
 Sum of Mulliken charges =  -0.00000

 Dipole moment (field-independent basis, Debye):
    X=             -0.0089    Y=             -0.0068    Z=             -0.0004  Tot=              0.0112
 Quadrupole moment (field-independent basis, Debye-Ang):
   XX=            -84.0135   YY=            -86.0555   ZZ=            -84.5909
   XY=              0.0625   XZ=              0.2567   YZ=              1.0541

 Normal termination of Gaussian 16 at Wed May  5 19:50:15 2021.
