 Gaussian 16, Revision A.03,
 Gaussian 16:  EM64L-G16RevA.03 25-Dec-2016

 -------------
 #p 6-31g* mp2
 -------------

 ------------------------------------------------------
 Input file generated by CHIRIPA (05-May-2021 14:55:24)
 ------------------------------------------------------
 Symbolic Z-matrix:
 Charge =  0 Multiplicity = 1

                         Standard orientation:
 ---------------------------------------------------------------------
 Center     Atomic      Atomic             Coordinates (Angstroms)
 Number     Number       Type             X           Y           Z
 ---------------------------------------------------------------------
      1          6           0       -5.242877    0.435347    0.227623
      2          6           0       -4.439577    1.327995   -0.489601
      3          6           0       -3.072403    1.082678   -0.648356
      4          6           0       -2.539230   -0.070214   -0.074023
      5          6           0       -3.313423   -0.978638    0.646172
      6          6           0       -4.678232   -0.713095    0.792225
      7          1           0       -6.304012    0.633771    0.346014
      8          1           0       -4.875370    2.220692   -0.929171
      9          1           0       -2.427437    1.756920   -1.198659
     10          1           0       -2.850353   -1.860074    1.072852
     11          1           0       -5.299666   -1.408100    1.349750
     12          7           0       -1.093116   -0.340626   -0.235366
     13          8           0       -0.647578   -1.363457    0.280335
     14          8           0       -0.432573    0.475378   -0.874473
     15          6           0        3.420043    0.746063   -0.176849
     16          6           0        4.003253    1.814314    0.748728
     17          6           0        3.724426    3.236041    0.260118
     18          1           0        3.835959    0.876937   -1.185228
     19          1           0        2.335374    0.898752   -0.263877
     20          1           0        5.086295    1.658816    0.835083
     21          1           0        3.586046    1.680763    1.755066
     22          1           0        2.646591    3.415288    0.191251
     23          1           0        4.155364    3.393217   -0.733960
     24          1           0        4.150156    3.983754    0.936533
     25          6           0        3.690530   -0.680409    0.298274
     26          6           0        3.107320   -1.748659   -0.627302
     27          6           0        3.386148   -3.170387   -0.138691
     28          1           0        4.775199   -0.833097    0.385303
     29          1           0        3.274613   -0.811282    1.306654
     30          1           0        3.524527   -1.615108   -1.633642
     31          1           0        2.024278   -1.593161   -0.713657
     32          1           0        2.955209   -3.327562    0.855385
     33          1           0        4.463983   -3.349634   -0.069825
     34          1           0        2.960416   -3.918100   -0.815107
 ---------------------------------------------------------------------

 SCF Done:  E(RHF) =  -669.537337694     A.U. after   15 cycles
 E2 =    -0.2092705124D+01 EUMP2 =    -0.67163004281772D+03

 The electronic state is 1-A.
 Alpha  occ. eigenvalues --  -20.61330 -20.61325 -15.86294 -11.31500 -11.28038
 Alpha  occ. eigenvalues --  -11.28035 -11.27754 -11.27015 -11.27005 -11.20312
 Alpha  occ. eigenvalues --  -11.20026 -11.19680 -11.19546 -11.19530 -11.19484
 Alpha  occ. eigenvalues --   -1.60346  -1.39906  -1.19648  -1.09078  -1.06757
 Alpha  occ. eigenvalues --   -1.05023  -1.01987  -0.95937  -0.94481  -0.86430
 Alpha  occ. eigenvalues --   -0.85514  -0.82776  -0.78057  -0.77844  -0.76518
 Alpha  occ. eigenvalues --   -0.72498  -0.71637  -0.70755  -0.65304  -0.65028
 Alpha  occ. eigenvalues --   -0.63382  -0.62369  -0.59383  -0.57878  -0.56081
 Alpha  occ. eigenvalues --   -0.55533  -0.53775  -0.53360  -0.53111  -0.51252
 Alpha  occ. eigenvalues --   -0.50915  -0.49366  -0.49292  -0.48420  -0.46377
 Alpha  occ. eigenvalues --   -0.45375  -0.44999  -0.44127  -0.43720  -0.42203
 Alpha  occ. eigenvalues --   -0.37620  -0.36616
 Alpha virt. eigenvalues --    0.04659   0.11042   0.16181   0.21179   0.24516
 Alpha virt. eigenvalues --    0.25756   0.27122   0.27972   0.28377   0.29171
 Alpha virt. eigenvalues --    0.29677   0.30840   0.32285   0.32797   0.33216

 Mulliken charges:
               1
     1  C   -0.170071
     2  C   -0.218626
     3  C   -0.170488
     4  C    0.158371
     5  C   -0.170277
     6  C   -0.218634
     7  H    0.226803
     8  H    0.224634
     9  H    0.276352
    10  H    0.276343
    11  H    0.224592
    12  N    0.489279
    13  O   -0.457150
    14  O   -0.458052
    15  C   -0.310112
    16  C   -0.297815
    17  C   -0.474447
    18  H    0.143173
    19  H    0.177043
    20  H    0.146750
    21  H    0.148361
    22  H    0.155481
    23  H    0.152907
    24  H    0.154282
    25  C   -0.294767
    26  C   -0.310947
    27  C   -0.473351
    28  H    0.140247
    29  H    0.147567
    30  H    0.142577
    31  H    0.183557
    32  H    0.154315
    33  H    0.147091
    34  H    0.155011
 Sum of Mulliken charges =  -0.00000

 Dipole moment (field-independent basis, Debye):
    X=             -5.7941    Y=              0.9641    Z=              0.5222  Tot=              5.8970
 Quadrupole moment (field-independent basis, Debye-Ang):
   XX=            -70.7235   YY=            -93.7364   ZZ=            -94.0411
   XY=             -1.4164   XZ=             -2.0666   YZ=             -2.7366

 Normal termination of Gaussian 16 at Wed May  5 16:05:58 2021.
