 Gaussian 16, Revision A.03,
 Gaussian 16:  EM64L-G16RevA.03 25-Dec-2016

 -------------
 #p 6-31g* mp2
 -------------

 ------------------------------------------------------
 Input file generated by CHIRIPA (05-May-2021 14:55:20)
 ------------------------------------------------------
 Symbolic Z-matrix:
 Charge =  0 Multiplicity = 1

                         Standard orientation:
 ---------------------------------------------------------------------
 Center     Atomic      Atomic             Coordinates (Angstroms)
 Number     Number       Type             X           Y           Z
 ---------------------------------------------------------------------
      1          6           0       -0.504326   -0.126222   -0.018457
      2          6           0       -1.246675   -1.110093    0.642934
      3          6           0       -2.643734   -1.058446    0.653278
      4          6           0       -3.268620   -0.004096   -0.010917
      5          6           0       -2.556814    0.991198   -0.678758
      6          6           0       -1.160608    0.919440   -0.676032
      7          1           0        0.580611   -0.174155   -0.021416
      8          1           0       -0.739679   -1.923327    1.154451
      9          1           0       -3.242979   -1.806855    1.157468
     10          1           0       -3.090460    1.789659   -1.179857
     11          1           0       -0.586663    1.684918   -1.190498
     12          7           0       -4.747172    0.061226   -0.006884
     13          8           0       -5.273849    1.000419   -0.599475
     14          8           0       -5.351388   -0.828004    0.588792
     15          6           0        3.998243   -0.592349   -0.425288
     16          6           0        3.684332   -1.916572    0.271762
     17          6           0        3.942056   -3.130444   -0.621483
     18          1           0        3.392006   -0.513037   -1.338048
     19          1           0        5.048859   -0.595457   -0.747144
     20          1           0        2.634996   -1.910408    0.593433
     21          1           0        4.291246   -1.992652    1.183070
     22          1           0        4.991354   -3.164402   -0.932001
     23          1           0        3.325694   -3.081691   -1.524988
     24          1           0        3.711120   -4.066430   -0.103353
     25          6           0        3.745594    0.630395    0.454937
     26          6           0        4.059506    1.954618   -0.242113
     27          6           0        3.801781    3.168491    0.651131
     28          1           0        2.694979    0.633504    0.776792
     29          1           0        4.351831    0.551085    1.367696
     30          1           0        3.452592    2.030699   -1.153422
     31          1           0        5.108842    1.948455   -0.563785
     32          1           0        4.418143    3.119738    1.554636
     33          1           0        2.752483    3.202449    0.961649
     34          1           0        4.032717    4.104477    0.133001
 ---------------------------------------------------------------------

 SCF Done:  E(RHF) =  -669.535349363     A.U. after   15 cycles
 E2 =    -0.2091827214D+01 EUMP2 =    -0.67162717657754D+03

 The electronic state is 1-A.
 Alpha  occ. eigenvalues --  -20.60753 -20.60748 -15.85807 -11.31177 -11.27746
 Alpha  occ. eigenvalues --  -11.27742 -11.27459 -11.26765 -11.26753 -11.22773
 Alpha  occ. eigenvalues --  -11.22633 -11.22573 -11.22504 -11.21987 -11.21928
 Alpha  occ. eigenvalues --   -1.59829  -1.39382  -1.19349  -1.09565  -1.08741
 Alpha  occ. eigenvalues --   -1.04753  -1.04557  -0.96988  -0.95579  -0.87993
 Alpha  occ. eigenvalues --   -0.86150  -0.82414  -0.80624  -0.79378  -0.77457
 Alpha  occ. eigenvalues --   -0.72025  -0.71152  -0.70508  -0.66215  -0.65001
 Alpha  occ. eigenvalues --   -0.64745  -0.62112  -0.61955  -0.60349  -0.58599
 Alpha  occ. eigenvalues --   -0.56341  -0.55203  -0.53641  -0.53388  -0.53081
 Alpha  occ. eigenvalues --   -0.52844  -0.50932  -0.48926  -0.48786  -0.48780
 Alpha  occ. eigenvalues --   -0.47687  -0.46877  -0.46848  -0.44836  -0.44787
 Alpha  occ. eigenvalues --   -0.37325  -0.36359
 Alpha virt. eigenvalues --    0.05063   0.11292   0.16501   0.17922   0.22731
 Alpha virt. eigenvalues --    0.23233   0.25199   0.25745   0.26684   0.27394
 Alpha virt. eigenvalues --    0.29820   0.30352   0.30947   0.31077   0.32522

 Mulliken charges:
               1
     1  C   -0.179750
     2  C   -0.221056
     3  C   -0.170651
     4  C    0.158380
     5  C   -0.170556
     6  C   -0.221263
     7  H    0.238971
     8  H    0.223711
     9  H    0.275594
    10  H    0.275568
    11  H    0.223442
    12  N    0.487986
    13  O   -0.460438
    14  O   -0.460407
    15  C   -0.301048
    16  C   -0.299880
    17  C   -0.476382
    18  H    0.147531
    19  H    0.155683
    20  H    0.141079
    21  H    0.156794
    22  H    0.158985
    23  H    0.156338
    24  H    0.162674
    25  C   -0.302992
    26  C   -0.299941
    27  C   -0.476411
    28  H    0.141564
    29  H    0.155651
    30  H    0.148509
    31  H    0.156476
    32  H    0.158370
    33  H    0.153971
    34  H    0.163501
 Sum of Mulliken charges =  -0.00000

 Dipole moment (field-independent basis, Debye):
    X=              5.4938    Y=             -0.2317    Z=             -0.0128  Tot=              5.4987
 Quadrupole moment (field-independent basis, Debye-Ang):
   XX=           -127.1216   YY=            -91.9732   ZZ=            -94.0302
   XY=              0.9682   XZ=              0.3167   YZ=             -3.1215

 Normal termination of Gaussian 16 at Wed May  5 22:10:38 2021.
