 Gaussian 16, Revision A.03,
 Gaussian 16:  EM64L-G16RevA.03 25-Dec-2016

 -------------
 #p 6-31g* mp2
 -------------

 ------------------------------------------------------
 Input file generated by CHIRIPA (05-May-2021 14:53:17)
 ------------------------------------------------------
 Symbolic Z-matrix:
 Charge =  0 Multiplicity = 1

                         Standard orientation:
 ---------------------------------------------------------------------
 Center     Atomic      Atomic             Coordinates (Angstroms)
 Number     Number       Type             X           Y           Z
 ---------------------------------------------------------------------
      1          6           0       -3.506642   -0.296033    0.367989
      2          6           0       -2.943109   -1.715387    0.291502
      3          6           0       -3.785196   -2.728392    1.067713
      4          1           0       -3.571731    0.009543    1.421237
      5          1           0       -4.534031   -0.295418   -0.021711
      6          1           0       -1.916600   -1.713060    0.679947
      7          1           0       -2.879175   -2.017548   -0.761696
      8          1           0       -4.807171   -2.760180    0.676359
      9          1           0       -3.839127   -2.453963    2.126194
     10          1           0       -3.364321   -3.736402    0.999598
     11          6           0       -2.675735    0.728051   -0.403097
     12          6           0       -3.239267    2.147405   -0.326610
     13          6           0       -2.397180    3.160410   -1.102821
     14          1           0       -1.648345    0.727436   -0.013397
     15          1           0       -2.610646    0.422475   -1.456345
     16          1           0       -3.303202    2.449566    0.726589
     17          1           0       -4.265776    2.145078   -0.715055
     18          1           0       -2.343249    2.885981   -2.161301
     19          1           0       -1.375205    3.192198   -0.711466
     20          1           0       -2.818055    4.168420   -1.034706
     21          6           0        2.777596    0.817154    2.307711
     22          6           0        1.513049    0.345394    1.940444
     23          6           0        1.300601   -0.202849    0.672042
     24          6           0        2.379936   -0.264072   -0.208061
     25          6           0        3.651560    0.197540    0.128353
     26          6           0        3.840941    0.741854    1.402090
     27          1           0        2.933671    1.241516    3.295108
     28          1           0        0.685401    0.402596    2.641708
     29          1           0        0.331979   -0.575495    0.361683
     30          1           0        4.457210    0.127067   -0.592327
     31          1           0        4.824089    1.107450    1.684586
     32          7           0        2.167236   -0.842391   -1.553685
     33          8           0        3.134502   -0.884973   -2.310799
     34          8           0        1.037285   -1.242148   -1.825793
 ---------------------------------------------------------------------

 SCF Done:  E(RHF) =  -669.535142841     A.U. after   15 cycles
 E2 =    -0.2092484824D+01 EUMP2 =    -0.67162762766528D+03

 The electronic state is 1-A.
 Alpha  occ. eigenvalues --  -20.60748 -20.60741 -15.85800 -11.31181 -11.27762
 Alpha  occ. eigenvalues --  -11.27720 -11.27511 -11.26787 -11.26778 -11.21735
 Alpha  occ. eigenvalues --  -11.21699 -11.21547 -11.21470 -11.21162 -11.21076
 Alpha  occ. eigenvalues --   -1.59822  -1.39374  -1.19363  -1.08754  -1.08562
 Alpha  occ. eigenvalues --   -1.04772  -1.03621  -0.96067  -0.95586  -0.87079
 Alpha  occ. eigenvalues --   -0.86169  -0.82418  -0.79681  -0.78401  -0.77437
 Alpha  occ. eigenvalues --   -0.72019  -0.71145  -0.70483  -0.65282  -0.65008
 Alpha  occ. eigenvalues --   -0.64733  -0.62115  -0.61028  -0.59425  -0.57668
 Alpha  occ. eigenvalues --   -0.55389  -0.55251  -0.53100  -0.52909  -0.52720
 Alpha  occ. eigenvalues --   -0.52471  -0.50015  -0.48782  -0.48772  -0.47992
 Alpha  occ. eigenvalues --   -0.46737  -0.45878  -0.45810  -0.44772  -0.43885
 Alpha  occ. eigenvalues --   -0.37345  -0.36364
 Alpha virt. eigenvalues --    0.05033   0.11230   0.16524   0.19863   0.23059
 Alpha virt. eigenvalues --    0.24042   0.24940   0.26933   0.27769   0.27925
 Alpha virt. eigenvalues --    0.30215   0.30500   0.31404   0.31711   0.31904

 Mulliken charges:
               1
     1  C   -0.299645
     2  C   -0.301242
     3  C   -0.475751
     4  H    0.144685
     5  H    0.152172
     6  H    0.143619
     7  H    0.163322
     8  H    0.156900
     9  H    0.151928
    10  H    0.162901
    11  C   -0.300367
    12  C   -0.299439
    13  C   -0.475832
    14  H    0.140714
    15  H    0.160828
    16  H    0.148180
    17  H    0.153480
    18  H    0.159694
    19  H    0.153976
    20  H    0.159592
    21  C   -0.170542
    22  C   -0.222803
    23  C   -0.181665
    24  C    0.158092
    25  C   -0.169997
    26  C   -0.218822
    27  H    0.225632
    28  H    0.223074
    29  H    0.291823
    30  H    0.275688
    31  H    0.223557
    32  N    0.486695
    33  O   -0.460619
    34  O   -0.459826
 Sum of Mulliken charges =  -0.00000

 Dipole moment (field-independent basis, Debye):
    X=              0.6732    Y=              1.9851    Z=              4.5649  Tot=              5.0232
 Quadrupole moment (field-independent basis, Debye-Ang):
   XX=            -86.1311   YY=            -97.1392   ZZ=            -96.6251
   XY=              5.5626   XZ=             11.3089   YZ=             -1.2147

 Normal termination of Gaussian 16 at Thu May  6 20:31:23 2021.
