 Gaussian 16, Revision A.03,
 Gaussian 16:  EM64L-G16RevA.03 25-Dec-2016

 -------------
 #p 6-31g* mp2
 -------------

 ------------------------------------------------------
 Input file generated by CHIRIPA (05-May-2021 14:55:23)
 ------------------------------------------------------
 Symbolic Z-matrix:
 Charge =  0 Multiplicity = 1

                         Standard orientation:
 ---------------------------------------------------------------------
 Center     Atomic      Atomic             Coordinates (Angstroms)
 Number     Number       Type             X           Y           Z
 ---------------------------------------------------------------------
      1          6           0        5.321723   -1.509027   -0.275280
      2          6           0        5.045070   -0.551907   -1.257066
      3          6           0        4.024727    0.384915   -1.067820
      4          6           0        3.297586    0.335563    0.120507
      5          6           0        3.549228   -0.605752    1.117448
      6          6           0        4.574237   -1.532853    0.906760
      7          1           0        6.116161   -2.232997   -0.430620
      8          1           0        5.623949   -0.531034   -2.176037
      9          1           0        3.789380    1.136728   -1.811330
     10          1           0        2.955023   -0.601597    2.023164
     11          1           0        4.786870   -2.275029    1.670963
     12          7           0        2.214925    1.322188    0.332204
     13          8           0        1.588792    1.257634    1.387868
     14          8           0        2.012969    2.141377   -0.561541
     15          6           0       -5.110930   -0.555027   -0.294977
     16          6           0       -6.334337    0.172432    0.263648
     17          6           0       -7.650446   -0.507070   -0.115728
     18          1           0       -5.193884   -0.611817   -1.388978
     19          1           0       -5.109272   -1.590560    0.072536
     20          1           0       -6.332940    1.206681   -0.103697
     21          1           0       -6.248367    0.227664    1.356430
     22          1           0       -7.677706   -1.533379    0.264465
     23          1           0       -7.762759   -0.548799   -1.203959
     24          1           0       -8.511943    0.029468    0.293920
     25          6           0       -3.787685    0.112264    0.075797
     26          6           0       -2.564277   -0.615196   -0.482826
     27          6           0       -1.248168    0.064305   -0.103450
     28          1           0       -3.789341    1.147795   -0.291716
     29          1           0       -3.704730    0.169052    1.169799
     30          1           0       -2.650247   -0.670429   -1.575609
     31          1           0       -2.565674   -1.649446   -0.115481
     32          1           0       -1.135855    0.106036    0.984780
     33          1           0       -1.220908    1.090615   -0.483644
     34          1           0       -0.386672   -0.472232   -0.513098
 ---------------------------------------------------------------------

 SCF Done:  E(RHF) =  -669.535773753     A.U. after   15 cycles
 E2 =    -0.2091648085D+01 EUMP2 =    -0.67162742183806D+03

 The electronic state is 1-A.
 Alpha  occ. eigenvalues --  -20.60810 -20.60792 -15.85832 -11.31218 -11.27786
 Alpha  occ. eigenvalues --  -11.27782 -11.27532 -11.26803 -11.26793 -11.21103
 Alpha  occ. eigenvalues --  -11.20806 -11.20728 -11.20672 -11.20610 -11.19800
 Alpha  occ. eigenvalues --   -1.59856  -1.39414  -1.19389  -1.08781  -1.07749
 Alpha  occ. eigenvalues --   -1.04793  -1.02797  -0.95619  -0.95220  -0.86235
 Alpha  occ. eigenvalues --   -0.86189  -0.82449  -0.78878  -0.77547  -0.77492
 Alpha  occ. eigenvalues --   -0.72061  -0.71162  -0.70497  -0.65043  -0.64796
 Alpha  occ. eigenvalues --   -0.64385  -0.62139  -0.60192  -0.58650  -0.56843
 Alpha  occ. eigenvalues --   -0.55295  -0.54493  -0.53125  -0.52885  -0.51944
 Alpha  occ. eigenvalues --   -0.51628  -0.49148  -0.48824  -0.48811  -0.47157
 Alpha  occ. eigenvalues --   -0.45942  -0.45133  -0.45023  -0.44660  -0.43065
 Alpha  occ. eigenvalues --   -0.37368  -0.36396
 Alpha virt. eigenvalues --    0.05011   0.11257   0.16486   0.21385   0.23508
 Alpha virt. eigenvalues --    0.25017   0.27291   0.27332   0.28129   0.28183
 Alpha virt. eigenvalues --    0.28780   0.30936   0.32141   0.32306   0.32509

 Mulliken charges:
               1
     1  C   -0.170730
     2  C   -0.218600
     3  C   -0.171035
     4  C    0.158246
     5  C   -0.170730
     6  C   -0.218610
     7  H    0.225694
     8  H    0.223543
     9  H    0.275755
    10  H    0.275691
    11  H    0.223528
    12  N    0.489750
    13  O   -0.458118
    14  O   -0.460353
    15  C   -0.297535
    16  C   -0.299258
    17  C   -0.475305
    18  H    0.148230
    19  H    0.147365
    20  H    0.152307
    21  H    0.151712
    22  H    0.153992
    23  H    0.154371
    24  H    0.159117
    25  C   -0.297776
    26  C   -0.301491
    27  C   -0.472845
    28  H    0.151312
    29  H    0.150019
    30  H    0.147956
    31  H    0.146256
    32  H    0.165187
    33  H    0.166750
    34  H    0.145604
 Sum of Mulliken charges =  -0.00000

 Dipole moment (field-independent basis, Debye):
    X=              4.0053    Y=             -3.3325    Z=             -0.6676  Tot=              5.2530
 Quadrupole moment (field-independent basis, Debye-Ang):
   XX=            -71.9531   YY=            -96.7922   ZZ=            -90.4286
   XY=            -10.7413   XZ=             -3.3661   YZ=             -3.4177

 Normal termination of Gaussian 16 at Thu May  6 12:38:05 2021.
