 Gaussian 16, Revision A.03,
 Gaussian 16:  EM64L-G16RevA.03 25-Dec-2016

 -------------
 #p 6-31g* mp2
 -------------

 ------------------------------------------------------
 Input file generated by CHIRIPA (05-May-2021 14:57:21)
 ------------------------------------------------------
 Symbolic Z-matrix:
 Charge =  0 Multiplicity = 1

                         Standard orientation:
 ---------------------------------------------------------------------
 Center     Atomic      Atomic             Coordinates (Angstroms)
 Number     Number       Type             X           Y           Z
 ---------------------------------------------------------------------
      1          6           0       -2.484084    2.326497   -1.142195
      2          6           0       -1.363626    1.569276   -0.784828
      3          6           0       -1.514722    0.285506   -0.252236
      4          6           0       -2.806717   -0.212156   -0.089846
      5          6           0       -3.942701    0.517763   -0.436326
      6          6           0       -3.767783    1.799253   -0.967112
      7          1           0       -2.357456    3.322875   -1.555223
      8          1           0       -0.365486    1.976183   -0.919685
      9          1           0       -0.664635   -0.322344    0.032873
     10          1           0       -4.925014    0.085197   -0.290151
     11          1           0       -4.639762    2.385053   -1.243762
     12          7           0       -2.979286   -1.570019    0.473029
     13          8           0       -4.128244   -1.985715    0.606181
     14          8           0       -1.962319   -2.192904    0.770402
     15          6           0        2.021349    1.638122    1.935123
     16          6           0        2.930838    2.032944    0.948479
     17          6           0        3.357172    1.127287   -0.027518
     18          6           0        2.851453   -0.171128    0.013188
     19          6           0        1.944332   -0.594670    0.983258
     20          6           0        1.531862    0.327884    1.949338
     21          1           0        1.695547    2.348221    2.689449
     22          1           0        3.312648    3.049844    0.934985
     23          1           0        4.060408    1.406326   -0.802769
     24          1           0        1.581297   -1.615194    0.970842
     25          1           0        0.825450    0.018469    2.714381
     26          7           0        3.295455   -1.138851   -1.014806
     27          8           0        2.835081   -2.276992   -0.957104
     28          8           0        4.095431   -0.740889   -1.858787
 ---------------------------------------------------------------------

 SCF Done:  E(RHF) =  -868.337751123     A.U. after   16 cycles
 E2 =    -0.2602422871D+01 EUMP2 =    -0.87094017399362D+03

 The electronic state is 1-A.
 Alpha  occ. eigenvalues --  -20.61106 -20.61074 -20.61042 -20.61021 -15.86152
 Alpha  occ. eigenvalues --  -15.86078 -11.31746 -11.31338 -11.28337 -11.28171
 Alpha  occ. eigenvalues --  -11.28053 -11.27916 -11.27815 -11.27657 -11.27402
 Alpha  occ. eigenvalues --  -11.27269 -11.26925 -11.26874  -1.60171  -1.60101
 Alpha  occ. eigenvalues --   -1.39713  -1.39661  -1.19944  -1.19515  -1.09272
 Alpha  occ. eigenvalues --   -1.08936  -1.05360  -1.04885  -0.96068  -0.95781
 Alpha  occ. eigenvalues --   -0.86697  -0.86313  -0.82871  -0.82613  -0.77911
 Alpha  occ. eigenvalues --   -0.77655  -0.72357  -0.72298  -0.71516  -0.71421
 Alpha  occ. eigenvalues --   -0.70969  -0.70636  -0.65547  -0.65268  -0.65168
 Alpha  occ. eigenvalues --   -0.64907  -0.62653  -0.62247  -0.55781  -0.55465
 Alpha  occ. eigenvalues --   -0.53699  -0.53361  -0.53220  -0.52952  -0.49139
 Alpha  occ. eigenvalues --   -0.49099  -0.49062  -0.49037  -0.45085  -0.45066
 Alpha  occ. eigenvalues --   -0.37975  -0.37521  -0.37029  -0.36368
 Alpha virt. eigenvalues --    0.04558   0.04844   0.10482   0.11231   0.16024
 Alpha virt. eigenvalues --    0.16360   0.20843   0.21520   0.26528   0.27216
 Alpha virt. eigenvalues --    0.27697   0.28628   0.30653   0.30874   0.31857

 Mulliken charges:
               1
     1  C   -0.170994
     2  C   -0.224853
     3  C   -0.175255
     4  C    0.157290
     5  C   -0.170196
     6  C   -0.219162
     7  H    0.225063
     8  H    0.225566
     9  H    0.281876
    10  H    0.275769
    11  H    0.223617
    12  N    0.487983
    13  O   -0.458301
    14  O   -0.465016
    15  C   -0.172848
    16  C   -0.221958
    17  C   -0.174549
    18  C    0.159993
    19  C   -0.192454
    20  C   -0.220645
    21  H    0.228179
    22  H    0.224597
    23  H    0.277048
    24  H    0.291753
    25  H    0.234134
    26  N    0.487631
    27  O   -0.453701
    28  O   -0.460568
 Sum of Mulliken charges =  -0.00000

 Dipole moment (field-independent basis, Debye):
    X=             -0.8415    Y=              8.0812    Z=              1.7182  Tot=              8.3046
 Quadrupole moment (field-independent basis, Debye-Ang):
   XX=           -110.8073   YY=           -106.3023   ZZ=           -104.5639
   XY=             -2.0100   XZ=             15.2115   YZ=             -2.2792

 Normal termination of Gaussian 16 at Wed May  5 20:53:29 2021.
