 Gaussian 16, Revision A.03,
 Gaussian 16:  EM64L-G16RevA.03 25-Dec-2016

 -------------
 #p 6-31g* mp2
 -------------

 ------------------------------------------------------
 Input file generated by CHIRIPA (05-May-2021 14:51:09)
 ------------------------------------------------------
 Symbolic Z-matrix:
 Charge =  0 Multiplicity = 1

                         Standard orientation:
 ---------------------------------------------------------------------
 Center     Atomic      Atomic             Coordinates (Angstroms)
 Number     Number       Type             X           Y           Z
 ---------------------------------------------------------------------
      1          6           0       -3.498873   -0.321532   -0.419220
      2          6           0       -4.393869   -1.344439    0.281229
      3          6           0       -4.331240   -2.727380   -0.367881
      4          1           0       -3.794880   -0.246562   -1.474542
      5          1           0       -2.461977   -0.685078   -0.410496
      6          1           0       -5.428553   -0.978423    0.272406
      7          1           0       -4.095821   -1.416841    1.335051
      8          1           0       -3.308499   -3.117394   -0.345699
      9          1           0       -4.648803   -2.676485   -1.414382
     10          1           0       -4.978503   -3.442997    0.148649
     11          6           0       -3.550693    1.065836    0.218161
     12          6           0       -2.655697    2.088742   -0.482288
     13          6           0       -2.718326    3.471684    0.166822
     14          1           0       -4.587589    1.429382    0.209437
     15          1           0       -3.254685    0.990866    1.273483
     16          1           0       -2.953745    2.161145   -1.536110
     17          1           0       -1.621013    1.722727   -0.473465
     18          1           0       -2.400763    3.420788    1.213323
     19          1           0       -3.741067    3.861697    0.144640
     20          1           0       -2.071063    4.187301   -0.349708
     21          6           0        4.155822   -0.360676   -0.329691
     22          6           0        5.336305    0.339796    0.343944
     23          6           0        6.591418    0.354637   -0.529135
     24          1           0        4.442971   -1.391365   -0.579033
     25          1           0        3.935320    0.141412   -1.281889
     26          1           0        5.553629   -0.162607    1.295246
     27          1           0        5.046249    1.368877    0.591884
     28          1           0        6.397791    0.873910   -1.473309
     29          1           0        6.908054   -0.666276   -0.765949
     30          1           0        7.422934    0.860159   -0.028246
     31          6           0        2.893744   -0.383627    0.530750
     32          6           0        1.713261   -1.084100   -0.142885
     33          6           0        0.458148   -1.098940    0.730194
     34          1           0        3.114245   -0.885716    1.482948
     35          1           0        2.606595    0.647062    0.780092
     36          1           0        2.003317   -2.113181   -0.390824
     37          1           0        1.495937   -0.581696   -1.094187
     38          1           0        0.141513   -0.078028    0.967008
     39          1           0        0.651775   -1.618214    1.674368
     40          1           0       -0.373368   -1.604462    0.229306
 ---------------------------------------------------------------------

 SCF Done:  E(RHF) =  -470.733119182     A.U. after   11 cycles
 E2 =    -0.1583097519D+01 EUMP2 =    -0.47231621670126D+03

 The electronic state is 1-A.
 Alpha  occ. eigenvalues --  -11.21677 -11.21630 -11.21580 -11.21547 -11.21453
 Alpha  occ. eigenvalues --  -11.21391 -11.21338 -11.21254 -11.21182 -11.21092
 Alpha  occ. eigenvalues --  -11.21065 -11.21052  -1.08484  -1.08378  -1.03590
 Alpha  occ. eigenvalues --   -1.03498  -0.96052  -0.95938  -0.87070  -0.86958
 Alpha  occ. eigenvalues --   -0.79659  -0.79556  -0.78294  -0.78189  -0.65153
 Alpha  occ. eigenvalues --   -0.64992  -0.61008  -0.60887  -0.59437  -0.59298
 Alpha  occ. eigenvalues --   -0.57675  -0.57536  -0.55365  -0.55203  -0.52789
 Alpha  occ. eigenvalues --   -0.52641  -0.52485  -0.52337  -0.49989  -0.49884
 Alpha  occ. eigenvalues --   -0.48012  -0.47842  -0.46704  -0.46580  -0.45839
 Alpha  occ. eigenvalues --   -0.45775  -0.45718  -0.45615  -0.43785  -0.43732
 Alpha virt. eigenvalues --    0.20442   0.22987   0.23430   0.24363   0.26242
 Alpha virt. eigenvalues --    0.26722   0.27233   0.27447   0.27820   0.29093
 Alpha virt. eigenvalues --    0.30101   0.31591   0.31754   0.31872   0.32311

 Mulliken charges:
               1
     1  C   -0.306294
     2  C   -0.299326
     3  C   -0.476032
     4  H    0.148832
     5  H    0.158473
     6  H    0.151668
     7  H    0.152225
     8  H    0.154523
     9  H    0.155141
    10  H    0.160277
    11  C   -0.297493
    12  C   -0.302201
    13  C   -0.475655
    14  H    0.149263
    15  H    0.149785
    16  H    0.151859
    17  H    0.153633
    18  H    0.154997
    19  H    0.155341
    20  H    0.159869
    21  C   -0.298360
    22  C   -0.299708
    23  C   -0.475742
    24  H    0.149777
    25  H    0.149730
    26  H    0.151965
    27  H    0.152037
    28  H    0.155269
    29  H    0.155228
    30  H    0.160360
    31  C   -0.298634
    32  C   -0.299769
    33  C   -0.482379
    34  H    0.149681
    35  H    0.149725
    36  H    0.152370
    37  H    0.152628
    38  H    0.156867
    39  H    0.155796
    40  H    0.164276
 Sum of Mulliken charges =  -0.00000

 Dipole moment (field-independent basis, Debye):
    X=              0.0456    Y=             -0.0140    Z=              0.0070  Tot=              0.0482
 Quadrupole moment (field-independent basis, Debye-Ang):
   XX=            -85.1488   YY=            -85.0863   ZZ=            -84.6317
   XY=             -0.6323   XZ=              1.0579   YZ=             -0.8715

 Normal termination of Gaussian 16 at Wed May  5 19:44:50 2021.
