 Gaussian 16, Revision A.03,
 Gaussian 16:  EM64L-G16RevA.03 25-Dec-2016

 -------------
 #p 6-31g* mp2
 -------------

 ------------------------------------------------------
 Input file generated by CHIRIPA (05-May-2021 14:57:26)
 ------------------------------------------------------
 Symbolic Z-matrix:
 Charge =  0 Multiplicity = 1

                         Standard orientation:
 ---------------------------------------------------------------------
 Center     Atomic      Atomic             Coordinates (Angstroms)
 Number     Number       Type             X           Y           Z
 ---------------------------------------------------------------------
      1          6           0       -6.261495    0.890052    0.489900
      2          6           0       -6.195614   -0.279687   -0.274228
      3          6           0       -4.967500   -0.903661   -0.512848
      4          6           0       -3.819920   -0.328055    0.030317
      5          6           0       -3.852979    0.836574    0.795716
      6          6           0       -5.092029    1.443473    1.021497
      7          1           0       -7.219771    1.368138    0.670279
      8          1           0       -7.102211   -0.711721   -0.688324
      9          1           0       -4.887750   -1.809948   -1.100812
     10          1           0       -2.932098    1.243644    1.195328
     11          1           0       -5.140179    2.351832    1.615306
     12          7           0       -2.513982   -0.979591   -0.215503
     13          8           0       -1.517434   -0.452554    0.274152
     14          8           0       -2.511664   -2.004963   -0.893177
     15          6           0        2.557509    2.097985   -0.882120
     16          6           0        3.852440    2.371933   -0.429765
     17          6           0        4.679952    1.339619    0.022010
     18          6           0        4.178008    0.039183    0.007601
     19          6           0        2.892462   -0.265707   -0.437037
     20          6           0        2.082489    0.782358   -0.884308
     21          1           0        1.921490    2.906030   -1.231320
     22          1           0        4.223999    3.392708   -0.426936
     23          1           0        5.686527    1.523511    0.377549
     24          1           0        2.550016   -1.293358   -0.427942
     25          1           0        1.077257    0.566652   -1.235053
     26          7           0        5.044773   -1.062020    0.483491
     27          8           0        4.578970   -2.199186    0.460737
     28          8           0        6.173534   -0.767124    0.870238
 ---------------------------------------------------------------------

 SCF Done:  E(RHF) =  -868.339549692     A.U. after   16 cycles
 E2 =    -0.2598377532D+01 EUMP2 =    -0.87093792722350D+03

 The electronic state is 1-A.
 Alpha  occ. eigenvalues --  -20.61610 -20.61568 -20.59954 -20.59934 -15.86616
 Alpha  occ. eigenvalues --  -15.84991 -11.31788 -11.30230 -11.28345 -11.28316
 Alpha  occ. eigenvalues --  -11.28032 -11.27305 -11.27284 -11.26841 -11.26645
 Alpha  occ. eigenvalues --  -11.26529 -11.25886 -11.25592  -1.60658  -1.59024
 Alpha  occ. eigenvalues --   -1.40214  -1.38580  -1.19941  -1.18384  -1.09372
 Alpha  occ. eigenvalues --   -1.07822  -1.05313  -1.03737  -0.96239  -0.94676
 Alpha  occ. eigenvalues --   -0.86720  -0.85158  -0.83075  -0.81485  -0.78147
 Alpha  occ. eigenvalues --   -0.76538  -0.72841  -0.71964  -0.71215  -0.71043
 Alpha  occ. eigenvalues --   -0.70345  -0.69527  -0.65595  -0.65311  -0.64031
 Alpha  occ. eigenvalues --   -0.63720  -0.62662  -0.61063  -0.55816  -0.54310
 Alpha  occ. eigenvalues --   -0.53655  -0.53400  -0.52116  -0.51810  -0.49612
 Alpha  occ. eigenvalues --   -0.49581  -0.47976  -0.47959  -0.45655  -0.44012
 Alpha  occ. eigenvalues --   -0.37908  -0.36909  -0.36406  -0.35328
 Alpha virt. eigenvalues --    0.04349   0.05949   0.10749   0.12303   0.15872
 Alpha virt. eigenvalues --    0.17468   0.20916   0.22461   0.26843   0.27747
 Alpha virt. eigenvalues --    0.28545   0.29223   0.30505   0.31870   0.32149

 Mulliken charges:
               1
     1  C   -0.170020
     2  C   -0.218506
     3  C   -0.170435
     4  C    0.157599
     5  C   -0.171434
     6  C   -0.218519
     7  H    0.227575
     8  H    0.225499
     9  H    0.276910
    10  H    0.274721
    11  H    0.224714
    12  N    0.488693
    13  O   -0.467705
    14  O   -0.456701
    15  C   -0.173249
    16  C   -0.218904
    17  C   -0.173248
    18  C    0.157523
    19  C   -0.171407
    20  C   -0.218645
    21  H    0.220681
    22  H    0.218651
    23  H    0.272021
    24  H    0.281589
    25  H    0.238389
    26  N    0.487962
    27  O   -0.459406
    28  O   -0.464349
 Sum of Mulliken charges =  -0.00000

 Dipole moment (field-independent basis, Debye):
    X=             -8.1837    Y=              6.0138    Z=             -0.8431  Tot=             10.1906
 Quadrupole moment (field-independent basis, Debye-Ang):
   XX=            -92.5845   YY=           -102.2986   ZZ=           -104.6227
   XY=             12.9060   XZ=             -8.4153   YZ=              2.8675

 Normal termination of Gaussian 16 at Fri May  7 12:41:38 2021.
