 Gaussian 16, Revision A.03,
 Gaussian 16:  EM64L-G16RevA.03 25-Dec-2016

 -------------
 #p 6-31g* mp2
 -------------

 ------------------------------------------------------
 Input file generated by CHIRIPA (05-May-2021 14:57:25)
 ------------------------------------------------------
 Symbolic Z-matrix:
 Charge =  0 Multiplicity = 1

                         Standard orientation:
 ---------------------------------------------------------------------
 Center     Atomic      Atomic             Coordinates (Angstroms)
 Number     Number       Type             X           Y           Z
 ---------------------------------------------------------------------
      1          6           0       -6.395068    0.247381    0.050307
      2          6           0       -5.625895    1.244450   -0.558584
      3          6           0       -4.236616    1.115104   -0.646454
      4          6           0       -3.646778   -0.029557   -0.112477
      5          6           0       -4.385893   -1.040303    0.500215
      6          6           0       -5.773707   -0.889809    0.576835
      7          1           0       -7.473724    0.356074    0.114196
      8          1           0       -6.105748    2.128684   -0.968360
      9          1           0       -3.617120    1.871700   -1.112507
     10          1           0       -3.879057   -1.910397    0.899555
     11          1           0       -6.368538   -1.665750    1.050265
     12          7           0       -2.176786   -0.177684   -0.199545
     13          8           0       -1.681196   -1.195719    0.278610
     14          8           0       -1.548031    0.727053   -0.744297
     15          6           0        6.369462    0.154992   -0.338940
     16          6           0        5.641321   -0.943751   -0.807016
     17          6           0        4.266566   -1.037255   -0.570683
     18          6           0        3.649254   -0.009343    0.140380
     19          6           0        4.347316    1.098034    0.619666
     20          6           0        5.721278    1.170587    0.371654
     21          1           0        7.437097    0.219490   -0.527065
     22          1           0        6.142074   -1.733961   -1.359158
     23          1           0        3.678682   -1.876683   -0.921643
     24          1           0        3.820375    1.870113    1.167066
     25          1           0        6.284229    2.025057    0.736365
     26          7           0        2.194281   -0.097241    0.396758
     27          8           0        1.673870    0.821556    1.025741
     28          8           0        1.601835   -1.083269   -0.036133
 ---------------------------------------------------------------------

 SCF Done:  E(RHF) =  -868.333553374     A.U. after   16 cycles
 E2 =    -0.2601409514D+01 EUMP2 =    -0.87093496288874D+03

 The electronic state is 1-A.
 Alpha  occ. eigenvalues --  -20.59157 -20.59139 -20.59124 -20.59080 -15.84249
 Alpha  occ. eigenvalues --  -15.84199 -11.30159 -11.30123 -11.26798 -11.26788
 Alpha  occ. eigenvalues --  -11.26767 -11.26752 -11.26643 -11.26614 -11.25939
 Alpha  occ. eigenvalues --  -11.25927 -11.25910 -11.25898  -1.58211  -1.58153
 Alpha  occ. eigenvalues --   -1.37764  -1.37709  -1.18384  -1.18349  -1.07682
 Alpha  occ. eigenvalues --   -1.07627  -1.03869  -1.03838  -0.94447  -0.94338
 Alpha  occ. eigenvalues --   -0.85243  -0.85210  -0.81271  -0.81203  -0.76204
 Alpha  occ. eigenvalues --   -0.76163  -0.70568  -0.70273  -0.69579  -0.69529
 Alpha  occ. eigenvalues --   -0.69487  -0.69456  -0.64026  -0.63985  -0.63890
 Alpha  occ. eigenvalues --   -0.63836  -0.61214  -0.61183  -0.54376  -0.54308
 Alpha  occ. eigenvalues --   -0.52167  -0.52136  -0.51973  -0.51941  -0.47754
 Alpha  occ. eigenvalues --   -0.47240  -0.47047  -0.46475  -0.43071  -0.42990
 Alpha  occ. eigenvalues --   -0.36395  -0.36363  -0.35499  -0.35469
 Alpha virt. eigenvalues --    0.06343   0.06385   0.12147   0.12177   0.17742
 Alpha virt. eigenvalues --    0.17782   0.22199   0.22233   0.28073   0.28100
 Alpha virt. eigenvalues --    0.29135   0.29173   0.31704   0.31740   0.33404

 Mulliken charges:
               1
     1  C   -0.172723
     2  C   -0.218499
     3  C   -0.171775
     4  C    0.160149
     5  C   -0.171853
     6  C   -0.218502
     7  H    0.221765
     8  H    0.219931
     9  H    0.274390
    10  H    0.275209
    11  H    0.220178
    12  N    0.487356
    13  O   -0.447737
    14  O   -0.457759
    15  C   -0.172783
    16  C   -0.218533
    17  C   -0.171835
    18  C    0.160260
    19  C   -0.171855
    20  C   -0.218515
    21  H    0.221621
    22  H    0.220079
    23  H    0.275535
    24  H    0.274179
    25  H    0.219778
    26  N    0.487599
    27  O   -0.460101
    28  O   -0.445558
 Sum of Mulliken charges =  -0.00000

 Dipole moment (field-independent basis, Debye):
    X=             -0.0702    Y=              0.6881    Z=             -0.5780  Tot=              0.9013
 Quadrupole moment (field-independent basis, Debye-Ang):
   XX=            -35.3824   YY=            -97.6459   ZZ=           -104.4005
   XY=             -0.2056   XZ=             -3.3498   YZ=              0.0322

 Normal termination of Gaussian 16 at Wed May  5 21:09:29 2021.
