 Gaussian 16, Revision A.03,
 Gaussian 16:  EM64L-G16RevA.03 25-Dec-2016

 -------------
 #p 6-31g* mp2
 -------------

 ------------------------------------------------------
 Input file generated by CHIRIPA (05-May-2021 14:51:14)
 ------------------------------------------------------
 Symbolic Z-matrix:
 Charge =  0 Multiplicity = 1

                         Standard orientation:
 ---------------------------------------------------------------------
 Center     Atomic      Atomic             Coordinates (Angstroms)
 Number     Number       Type             X           Y           Z
 ---------------------------------------------------------------------
      1          6           0       -4.386332    0.758648   -0.071430
      2          6           0       -2.906149    0.384009    0.010355
      3          6           0       -1.987019    1.605810    0.024447
      4          1           0       -4.556864    1.358005   -0.976214
      5          1           0       -4.642400    1.401446    0.782171
      6          1           0       -2.653277   -0.259022   -0.842395
      7          1           0       -2.739155   -0.214688    0.914949
      8          1           0       -2.210763    2.246308    0.883692
      9          1           0       -2.124397    2.201721   -0.883637
     10          1           0       -0.933529    1.315019    0.083265
     11          6           0       -5.317763   -0.452112   -0.086402
     12          6           0       -6.797946   -0.077473   -0.168187
     13          6           0       -7.717076   -1.299274   -0.182280
     14          1           0       -5.061695   -1.094910   -0.940004
     15          1           0       -5.147230   -1.051470    0.818382
     16          1           0       -6.964939    0.521224   -1.072782
     17          1           0       -7.050817    0.565558    0.684563
     18          1           0       -7.579698   -1.895186    0.725805
     19          1           0       -7.493332   -1.939772   -1.041525
     20          1           0       -8.770566   -1.008483   -0.241098
     21          6           0        5.525391   -0.507289    0.147541
     22          6           0        6.667684    0.219270   -0.563275
     23          6           0        8.008319   -0.501197   -0.416914
     24          1           0        5.772596   -0.612043    1.212840
     25          1           0        5.441118   -1.526069   -0.255425
     26          1           0        6.748882    1.236835   -0.160057
     27          1           0        6.417645    0.322477   -1.626969
     28          1           0        7.950920   -1.510788   -0.836474
     29          1           0        8.284038   -0.591235    0.638772
     30          1           0        8.810840    0.035371   -0.932582
     31          6           0        4.178704    0.200754    0.010291
     32          6           0        3.036410   -0.525806    0.721107
     33          6           0        1.695776    0.194661    0.574747
     34          1           0        4.262977    1.219533    0.413258
     35          1           0        3.931498    0.305508   -1.055007
     36          1           0        3.286449   -0.629012    1.784801
     37          1           0        2.955213   -1.543371    0.317889
     38          1           0        1.420057    0.284699   -0.480940
     39          1           0        1.753175    1.204253    0.994307
     40          1           0        0.893254   -0.341907    1.090414
 ---------------------------------------------------------------------

 SCF Done:  E(RHF) =  -470.733206726     A.U. after   11 cycles
 E2 =    -0.1582352193D+01 EUMP2 =    -0.47231555891924D+03

 The electronic state is 1-A.
 Alpha  occ. eigenvalues --  -11.21628 -11.21610 -11.21568 -11.21516 -11.21421
 Alpha  occ. eigenvalues --  -11.21361 -11.21351 -11.21288 -11.21126 -11.21078
 Alpha  occ. eigenvalues --  -11.21046 -11.20870  -1.08450  -1.08368  -1.03563
 Alpha  occ. eigenvalues --   -1.03450  -0.96042  -0.95874  -0.87092  -0.86864
 Alpha  occ. eigenvalues --   -0.79654  -0.79495  -0.78261  -0.78185  -0.65079
 Alpha  occ. eigenvalues --   -0.65001  -0.60954  -0.60854  -0.59500  -0.59178
 Alpha  occ. eigenvalues --   -0.57620  -0.57516  -0.55300  -0.55184  -0.52990
 Alpha  occ. eigenvalues --   -0.52529  -0.52395  -0.52129  -0.49953  -0.49841
 Alpha  occ. eigenvalues --   -0.47979  -0.47789  -0.46649  -0.46561  -0.45805
 Alpha  occ. eigenvalues --   -0.45726  -0.45722  -0.45654  -0.43895  -0.43592
 Alpha virt. eigenvalues --    0.22444   0.22944   0.23563   0.24740   0.26621
 Alpha virt. eigenvalues --    0.26668   0.26764   0.27412   0.27669   0.28947
 Alpha virt. eigenvalues --    0.30654   0.30970   0.31317   0.31505   0.32207

 Mulliken charges:
               1
     1  C   -0.298167
     2  C   -0.298666
     3  C   -0.487053
     4  H    0.149493
     5  H    0.149361
     6  H    0.151313
     7  H    0.151030
     8  H    0.153991
     9  H    0.153864
    10  H    0.175729
    11  C   -0.298158
    12  C   -0.299585
    13  C   -0.475660
    14  H    0.149327
    15  H    0.149438
    16  H    0.151869
    17  H    0.151863
    18  H    0.155098
    19  H    0.155096
    20  H    0.160133
    21  C   -0.298349
    22  C   -0.299637
    23  C   -0.475719
    24  H    0.149694
    25  H    0.149558
    26  H    0.151986
    27  H    0.151971
    28  H    0.155191
    29  H    0.155195
    30  H    0.160302
    31  C   -0.298515
    32  C   -0.300676
    33  C   -0.478255
    34  H    0.149676
    35  H    0.149750
    36  H    0.152109
    37  H    0.152152
    38  H    0.155551
    39  H    0.156259
    40  H    0.161439
 Sum of Mulliken charges =  -0.00000

 Dipole moment (field-independent basis, Debye):
    X=              0.0631    Y=             -0.0042    Z=              0.0052  Tot=              0.0634
 Quadrupole moment (field-independent basis, Debye-Ang):
   XX=            -86.6661   YY=            -85.3356   ZZ=            -82.9834
   XY=             -0.0529   XZ=              0.0880   YZ=              0.4903

 Normal termination of Gaussian 16 at Wed May  5 15:22:51 2021.
