 Gaussian 16, Revision A.03,
 Gaussian 16:  EM64L-G16RevA.03 25-Dec-2016

 -------------
 #p 6-31g* mp2
 -------------

 ------------------------------------------------------
 Input file generated by CHIRIPA (05-May-2021 14:55:20)
 ------------------------------------------------------
 Symbolic Z-matrix:
 Charge =  0 Multiplicity = 1

                         Standard orientation:
 ---------------------------------------------------------------------
 Center     Atomic      Atomic             Coordinates (Angstroms)
 Number     Number       Type             X           Y           Z
 ---------------------------------------------------------------------
      1          6           0       -4.475703    1.891103    0.640995
      2          6           0       -3.151216    1.844759    1.088329
      3          6           0       -2.305625    0.802535    0.696803
      4          6           0       -2.819823   -0.181098   -0.146616
      5          6           0       -4.134732   -0.162706   -0.609181
      6          6           0       -4.962376    0.888989   -0.204840
      7          1           0       -5.125607    2.704406    0.950120
      8          1           0       -2.770548    2.621646    1.745280
      9          1           0       -1.276095    0.742145    1.028223
     10          1           0       -4.485632   -0.951566   -1.263388
     11          1           0       -5.990554    0.922410   -0.553806
     12          7           0       -1.934133   -1.289468   -0.567890
     13          8           0       -2.411262   -2.143875   -1.311512
     14          8           0       -0.779573   -1.282813   -0.146486
     15          6           0        3.813117    0.756374    0.188198
     16          6           0        4.713705    1.466251   -0.823237
     17          6           0        4.737097    2.982993   -0.631561
     18          1           0        2.792492    1.153920    0.103177
     19          1           0        4.157145    0.993186    1.204544
     20          1           0        4.368925    1.227056   -1.837401
     21          1           0        5.732262    1.066833   -0.735930
     22          1           0        5.101862    3.239350    0.368353
     23          1           0        3.730778    3.400483   -0.739377
     24          1           0        5.386969    3.470368   -1.365040
     25          6           0        3.779319   -0.760404    0.009396
     26          6           0        2.878731   -1.470281    1.020831
     27          6           0        2.855338   -2.987023    0.829155
     28          1           0        3.435290   -0.997216   -1.006951
     29          1           0        4.799943   -1.157950    0.094417
     30          1           0        1.860173   -1.070863    0.933523
     31          1           0        3.223510   -1.231087    2.034995
     32          1           0        3.861658   -3.404514    0.936971
     33          1           0        2.490574   -3.243380   -0.170759
     34          1           0        2.205466   -3.474398    1.562634
 ---------------------------------------------------------------------

 SCF Done:  E(RHF) =  -669.536093960     A.U. after   15 cycles
 E2 =    -0.2091005617D+01 EUMP2 =    -0.67162709957628D+03

 The electronic state is 1-A.
 Alpha  occ. eigenvalues --  -20.60947 -20.60937 -15.85992 -11.31304 -11.27869
 Alpha  occ. eigenvalues --  -11.27863 -11.27602 -11.26874 -11.26864 -11.21149
 Alpha  occ. eigenvalues --  -11.20801 -11.20786 -11.20498 -11.20386 -11.19833
 Alpha  occ. eigenvalues --   -1.60011  -1.39568  -1.19473  -1.08877  -1.07675
 Alpha  occ. eigenvalues --   -1.04869  -1.02726  -0.95721  -0.95206  -0.86269
 Alpha  occ. eigenvalues --   -0.86228  -0.82558  -0.78847  -0.77632  -0.77425
 Alpha  occ. eigenvalues --   -0.72220  -0.71328  -0.70582  -0.65133  -0.64871
 Alpha  occ. eigenvalues --   -0.64290  -0.62217  -0.60092  -0.58625  -0.56803
 Alpha  occ. eigenvalues --   -0.55372  -0.54489  -0.53201  -0.52960  -0.51908
 Alpha  occ. eigenvalues --   -0.51638  -0.49168  -0.48961  -0.48958  -0.47153
 Alpha  occ. eigenvalues --   -0.45873  -0.45002  -0.44979  -0.44844  -0.43001
 Alpha  occ. eigenvalues --   -0.37451  -0.36470
 Alpha virt. eigenvalues --    0.04925   0.11185   0.16427   0.21092   0.23456
 Alpha virt. eigenvalues --    0.24987   0.26274   0.27450   0.27830   0.28670
 Alpha virt. eigenvalues --    0.28967   0.30804   0.31788   0.32273   0.32949

 Mulliken charges:
               1
     1  C   -0.170607
     2  C   -0.218587
     3  C   -0.170639
     4  C    0.157617
     5  C   -0.170848
     6  C   -0.218538
     7  H    0.226075
     8  H    0.224087
     9  H    0.275581
    10  H    0.275867
    11  H    0.223862
    12  N    0.496360
    13  O   -0.459068
    14  O   -0.468764
    15  C   -0.297027
    16  C   -0.299158
    17  C   -0.475003
    18  H    0.147038
    19  H    0.146171
    20  H    0.152825
    21  H    0.151402
    22  H    0.153625
    23  H    0.152571
    24  H    0.159056
    25  C   -0.297686
    26  C   -0.307034
    27  C   -0.472767
    28  H    0.153369
    29  H    0.145796
    30  H    0.171701
    31  H    0.142957
    32  H    0.147290
    33  H    0.163197
    34  H    0.159283
 Sum of Mulliken charges =  -0.00000

 Dipole moment (field-independent basis, Debye):
    X=             -3.4044    Y=              3.8298    Z=              1.4046  Tot=              5.3132
 Quadrupole moment (field-independent basis, Debye-Ang):
   XX=            -74.9017   YY=            -97.4177   ZZ=            -94.1497
   XY=             -9.2962   XZ=             -1.2808   YZ=              0.6098

 Normal termination of Gaussian 16 at Thu May  6 02:56:52 2021.
