 Gaussian 16, Revision A.03,
 Gaussian 16:  EM64L-G16RevA.03 25-Dec-2016

 -------------
 #p 6-31g* mp2
 -------------

 ------------------------------------------------------
 Input file generated by CHIRIPA (05-May-2021 14:55:24)
 ------------------------------------------------------
 Symbolic Z-matrix:
 Charge =  0 Multiplicity = 1

                         Standard orientation:
 ---------------------------------------------------------------------
 Center     Atomic      Atomic             Coordinates (Angstroms)
 Number     Number       Type             X           Y           Z
 ---------------------------------------------------------------------
      1          6           0       -0.980658    1.040919    1.247693
      2          6           0       -0.778490   -0.126793    0.504661
      3          6           0       -1.860212   -0.793775   -0.078058
      4          6           0       -3.136324   -0.262774    0.103238
      5          6           0       -3.370050    0.898635    0.837942
      6          6           0       -2.273513    1.549011    1.411673
      7          1           0       -0.134597    1.552597    1.696873
      8          1           0        0.224449   -0.523675    0.375655
      9          1           0       -1.732202   -1.699553   -0.658227
     10          1           0       -4.381517    1.270121    0.949079
     11          1           0       -2.433507    2.455685    1.988204
     12          7           0       -4.289336   -0.960088   -0.508903
     13          8           0       -5.403725   -0.471890   -0.334438
     14          8           0       -4.056846   -1.981636   -1.151573
     15          6           0        3.319571    0.782213   -0.094536
     16          6           0        2.878677    1.573803   -1.326195
     17          6           0        1.975542    2.756926   -0.976393
     18          1           0        2.429822    0.420941    0.439107
     19          1           0        3.846405    1.455251    0.596015
     20          1           0        2.354041    0.899167   -2.014846
     21          1           0        3.769581    1.933069   -1.857074
     22          1           0        2.493385    3.452477   -0.308074
     23          1           0        1.069801    2.412700   -0.466743
     24          1           0        1.672194    3.308840   -1.871508
     25          6           0        4.222940   -0.403721   -0.428027
     26          6           0        4.663834   -1.195309    0.803632
     27          6           0        5.566969   -2.378433    0.453830
     28          1           0        3.696105   -1.076758   -1.118578
     29          1           0        5.112688   -0.042449   -0.961671
     30          1           0        3.772929   -1.554577    1.334510
     31          1           0        5.188470   -0.520674    1.492283
     32          1           0        6.472710   -2.034207   -0.055819
     33          1           0        5.049126   -3.073984   -0.214489
     34          1           0        5.870316   -2.930348    1.348945
 ---------------------------------------------------------------------

 SCF Done:  E(RHF) =  -669.535023024     A.U. after   15 cycles
 E2 =    -0.2092776269D+01 EUMP2 =    -0.67162779929263D+03

 The electronic state is 1-A.
 Alpha  occ. eigenvalues --  -20.60784 -20.60779 -15.85838 -11.31220 -11.27785
 Alpha  occ. eigenvalues --  -11.27781 -11.27513 -11.26800 -11.26789 -11.22497
 Alpha  occ. eigenvalues --  -11.22431 -11.22373 -11.22224 -11.21864 -11.21669
 Alpha  occ. eigenvalues --   -1.59859  -1.39413  -1.19394  -1.09333  -1.08787
 Alpha  occ. eigenvalues --   -1.04797  -1.04326  -0.96785  -0.95619  -0.87797
 Alpha  occ. eigenvalues --   -0.86200  -0.82448  -0.80397  -0.79164  -0.77492
 Alpha  occ. eigenvalues --   -0.72057  -0.71182  -0.70510  -0.66066  -0.65042
 Alpha  occ. eigenvalues --   -0.64749  -0.62173  -0.61679  -0.60143  -0.58403
 Alpha  occ. eigenvalues --   -0.56142  -0.55269  -0.53425  -0.53297  -0.53053
 Alpha  occ. eigenvalues --   -0.52870  -0.50712  -0.48817  -0.48811  -0.48700
 Alpha  occ. eigenvalues --   -0.47433  -0.46683  -0.46606  -0.44815  -0.44611
 Alpha  occ. eigenvalues --   -0.37338  -0.36394
 Alpha virt. eigenvalues --    0.05004   0.11178   0.16419   0.18910   0.22527
 Alpha virt. eigenvalues --    0.23829   0.25024   0.26217   0.26583   0.28372
 Alpha virt. eigenvalues --    0.29270   0.30985   0.31110   0.31403   0.31788

 Mulliken charges:
               1
     1  C   -0.172446
     2  C   -0.222446
     3  C   -0.171299
     4  C    0.159066
     5  C   -0.171040
     6  C   -0.219575
     7  H    0.227923
     8  H    0.229574
     9  H    0.275857
    10  H    0.275831
    11  H    0.224036
    12  N    0.487927
    13  O   -0.460217
    14  O   -0.460331
    15  C   -0.302055
    16  C   -0.300030
    17  C   -0.481896
    18  H    0.138181
    19  H    0.152625
    20  H    0.153619
    21  H    0.156376
    22  H    0.154425
    23  H    0.154093
    24  H    0.165567
    25  C   -0.299171
    26  C   -0.299648
    27  C   -0.476196
    28  H    0.149734
    29  H    0.154037
    30  H    0.148162
    31  H    0.153442
    32  H    0.157125
    33  H    0.156303
    34  H    0.162449
 Sum of Mulliken charges =  -0.00000

 Dipole moment (field-independent basis, Debye):
    X=              4.2050    Y=              2.4664    Z=              2.0961  Tot=              5.3065
 Quadrupole moment (field-independent basis, Debye-Ang):
   XX=           -117.5247   YY=            -94.3074   ZZ=            -94.1785
   XY=            -10.3198   XZ=             -7.8259   YZ=              1.1199

 Normal termination of Gaussian 16 at Thu May  6 01:33:40 2021.
