 Gaussian 16, Revision A.03,
 Gaussian 16:  EM64L-G16RevA.03 25-Dec-2016

 -------------
 #p 6-31g* mp2
 -------------

 ------------------------------------------------------
 Input file generated by CHIRIPA (05-May-2021 14:53:13)
 ------------------------------------------------------
 Symbolic Z-matrix:
 Charge =  0 Multiplicity = 1

                         Standard orientation:
 ---------------------------------------------------------------------
 Center     Atomic      Atomic             Coordinates (Angstroms)
 Number     Number       Type             X           Y           Z
 ---------------------------------------------------------------------
      1          6           0       -3.512584   -0.338132    0.337935
      2          6           0       -4.154046   -1.679175   -0.019997
      3          6           0       -4.321186   -2.596650    1.191655
      4          1           0       -2.532648   -0.519434    0.800320
      5          1           0       -4.128298    0.163930    1.097029
      6          1           0       -3.538041   -2.177935   -0.779202
      7          1           0       -5.132486   -1.494653   -0.481758
      8          1           0       -4.953690   -2.122837    1.949310
      9          1           0       -3.350187   -2.810002    1.650176
     10          1           0       -4.781572   -3.549703    0.913095
     11          6           0       -3.338853    0.590026   -0.862927
     12          6           0       -2.697391    1.931069   -0.504996
     13          6           0       -2.530251    2.848543   -1.716647
     14          1           0       -2.723139    0.087964   -1.622022
     15          1           0       -4.318789    0.771328   -1.325312
     16          1           0       -1.718951    1.746546   -0.043234
     17          1           0       -3.313395    2.429829    0.254210
     18          1           0       -3.501250    3.061895   -2.175168
     19          1           0       -1.897746    2.374731   -2.474302
     20          1           0       -2.069865    3.801596   -1.438088
     21          6           0        1.460987    1.319010    1.902072
     22          6           0        2.839295    1.472771    1.720006
     23          6           0        3.523022    0.692828    0.782587
     24          6           0        2.793838   -0.235425    0.041016
     25          6           0        1.420147   -0.412021    0.199368
     26          6           0        0.757054    0.378763    1.142510
     27          1           0        0.937867    1.929100    2.632504
     28          1           0        3.388554    2.202190    2.308485
     29          1           0        4.589664    0.791216    0.621308
     30          1           0        0.899747   -1.147464   -0.402067
     31          1           0       -0.313400    0.257186    1.281772
     32          7           0        3.506748   -1.066855   -0.954417
     33          8           0        2.841432   -1.877621   -1.595238
     34          8           0        4.717342   -0.892021   -1.074967
 ---------------------------------------------------------------------

 SCF Done:  E(RHF) =  -669.535043583     A.U. after   15 cycles
 E2 =    -0.2092462786D+01 EUMP2 =    -0.67162750636988D+03

 The electronic state is 1-A.
 Alpha  occ. eigenvalues --  -20.60784 -20.60778 -15.85837 -11.31209 -11.27784
 Alpha  occ. eigenvalues --  -11.27780 -11.27518 -11.26788 -11.26747 -11.22305
 Alpha  occ. eigenvalues --  -11.22295 -11.22201 -11.22065 -11.21600 -11.21570
 Alpha  occ. eigenvalues --   -1.59859  -1.39412  -1.19384  -1.09165  -1.08773
 Alpha  occ. eigenvalues --   -1.04790  -1.04154  -0.96600  -0.95608  -0.87609
 Alpha  occ. eigenvalues --   -0.86190  -0.82447  -0.80233  -0.79018  -0.77484
 Alpha  occ. eigenvalues --   -0.72055  -0.71182  -0.70485  -0.65919  -0.65032
 Alpha  occ. eigenvalues --   -0.64723  -0.62144  -0.61537  -0.59966  -0.58219
 Alpha  occ. eigenvalues --   -0.55894  -0.55280  -0.53278  -0.53123  -0.53016
 Alpha  occ. eigenvalues --   -0.52881  -0.50541  -0.48824  -0.48810  -0.48540
 Alpha  occ. eigenvalues --   -0.47276  -0.46487  -0.46419  -0.44816  -0.44443
 Alpha  occ. eigenvalues --   -0.37351  -0.36373
 Alpha virt. eigenvalues --    0.05046   0.11138   0.16479   0.19349   0.22881
 Alpha virt. eigenvalues --    0.23765   0.24742   0.26332   0.27224   0.28343
 Alpha virt. eigenvalues --    0.29649   0.30783   0.31253   0.31373   0.31818

 Mulliken charges:
               1
     1  C   -0.303187
     2  C   -0.300085
     3  C   -0.476163
     4  H    0.140702
     5  H    0.151780
     6  H    0.154594
     7  H    0.155333
     8  H    0.155577
     9  H    0.153868
    10  H    0.163947
    11  C   -0.299653
    12  C   -0.304875
    13  C   -0.475486
    14  H    0.152000
    15  H    0.153957
    16  H    0.147929
    17  H    0.151599
    18  H    0.157152
    19  H    0.158826
    20  H    0.160825
    21  C   -0.173511
    22  C   -0.218441
    23  C   -0.170629
    24  C    0.158653
    25  C   -0.174819
    26  C   -0.224196
    27  H    0.226964
    28  H    0.223554
    29  H    0.275755
    30  H    0.275027
    31  H    0.235723
    32  N    0.488172
    33  O   -0.460509
    34  O   -0.460383
 Sum of Mulliken charges =  -0.00000

 Dipole moment (field-independent basis, Debye):
    X=             -2.6444    Y=              2.9250    Z=              3.4297  Tot=              5.2260
 Quadrupole moment (field-independent basis, Debye-Ang):
   XX=           -103.6379   YY=            -95.9438   ZZ=            -95.3259
   XY=             10.7829   XZ=             11.2329   YZ=              0.5933

 Normal termination of Gaussian 16 at Thu May  6 04:09:39 2021.
