 Gaussian 16, Revision A.03,
 Gaussian 16:  EM64L-G16RevA.03 25-Dec-2016

 -------------
 #p 6-31g* mp2
 -------------

 ------------------------------------------------------
 Input file generated by CHIRIPA (05-May-2021 14:53:16)
 ------------------------------------------------------
 Symbolic Z-matrix:
 Charge =  0 Multiplicity = 1

                         Standard orientation:
 ---------------------------------------------------------------------
 Center     Atomic      Atomic             Coordinates (Angstroms)
 Number     Number       Type             X           Y           Z
 ---------------------------------------------------------------------
      1          6           0        5.314492   -0.263154    0.413288
      2          6           0        6.145146   -0.738306   -0.779284
      3          6           0        7.424427   -1.461936   -0.357864
      4          1           0        5.926542    0.403706    1.035893
      5          1           0        5.057937   -1.128165    1.040450
      6          1           0        6.398887    0.127155   -1.404750
      7          1           0        5.530987   -1.403961   -1.399226
      8          1           0        7.187210   -2.342583    0.247768
      9          1           0        8.060042   -0.802767    0.242213
     10          1           0        8.002951   -1.792999   -1.225946
     11          6           0        4.032469    0.462088    0.008111
     12          6           0        3.201815    0.937240    1.200684
     13          6           0        1.922534    1.660869    0.779263
     14          1           0        4.289024    1.327098   -0.619050
     15          1           0        3.420419   -0.204772   -0.614494
     16          1           0        3.815974    1.602895    1.820626
     17          1           0        2.948074    0.071778    1.826150
     18          1           0        1.286919    1.001700    0.179187
     19          1           0        2.159751    2.541516    0.173632
     20          1           0        1.344010    1.991933    1.647345
     21          6           0       -1.772339    1.494980   -0.766788
     22          6           0       -3.065987    1.991019   -0.574586
     23          6           0       -4.114665    1.128854   -0.240678
     24          6           0       -3.832794   -0.229750   -0.106393
     25          6           0       -2.554576   -0.754351   -0.291446
     26          6           0       -1.521206    0.126291   -0.624854
     27          1           0       -0.963646    2.171906   -1.025981
     28          1           0       -3.263948    3.053493   -0.684153
     29          1           0       -5.125584    1.486060   -0.086196
     30          1           0       -2.388094   -1.818403   -0.175278
     31          1           0       -0.517529   -0.261749   -0.773525
     32          7           0       -4.934880   -1.152265    0.246836
     33          8           0       -4.660501   -2.345039    0.359278
     34          8           0       -6.052207   -0.665092    0.404567
 ---------------------------------------------------------------------

 SCF Done:  E(RHF) =  -669.535139694     A.U. after   15 cycles
 E2 =    -0.2091424674D+01 EUMP2 =    -0.67162656436819D+03

 The electronic state is 1-A.
 Alpha  occ. eigenvalues --  -20.60730 -20.60725 -15.85784 -11.31138 -11.27714
 Alpha  occ. eigenvalues --  -11.27710 -11.27422 -11.26714 -11.26704 -11.22432
 Alpha  occ. eigenvalues --  -11.22174 -11.22147 -11.22099 -11.21952 -11.21470
 Alpha  occ. eigenvalues --   -1.59806  -1.39360  -1.19312  -1.09118  -1.08704
 Alpha  occ. eigenvalues --   -1.04721  -1.04229  -0.96704  -0.95538  -0.87729
 Alpha  occ. eigenvalues --   -0.86117  -0.82375  -0.80307  -0.78905  -0.77431
 Alpha  occ. eigenvalues --   -0.72003  -0.71129  -0.70407  -0.65765  -0.64966
 Alpha  occ. eigenvalues --   -0.64755  -0.62131  -0.61577  -0.60063  -0.58287
 Alpha  occ. eigenvalues --   -0.56008  -0.55203  -0.53400  -0.53183  -0.52998
 Alpha  occ. eigenvalues --   -0.52784  -0.50634  -0.48766  -0.48758  -0.48606
 Alpha  occ. eigenvalues --   -0.47323  -0.46455  -0.46355  -0.44768  -0.44468
 Alpha  occ. eigenvalues --   -0.37267  -0.36318
 Alpha virt. eigenvalues --    0.05107   0.11259   0.16589   0.20062   0.22384
 Alpha virt. eigenvalues --    0.23760   0.25355   0.26125   0.26943   0.27657
 Alpha virt. eigenvalues --    0.29073   0.29673   0.31002   0.31540   0.31743

 Mulliken charges:
               1
     1  C   -0.298844
     2  C   -0.300044
     3  C   -0.476108
     4  H    0.151346
     5  H    0.150929
     6  H    0.152236
     7  H    0.151769
     8  H    0.156144
     9  H    0.155987
    10  H    0.161607
    11  C   -0.298103
    12  C   -0.300413
    13  C   -0.479713
    14  H    0.150108
    15  H    0.145551
    16  H    0.155667
    17  H    0.154757
    18  H    0.146346
    19  H    0.154277
    20  H    0.166015
    21  C   -0.170097
    22  C   -0.219290
    23  C   -0.170897
    24  C    0.158290
    25  C   -0.171525
    26  C   -0.219665
    27  H    0.228772
    28  H    0.223312
    29  H    0.275420
    30  H    0.275309
    31  H    0.223988
    32  N    0.488082
    33  O   -0.460652
    34  O   -0.460558
 Sum of Mulliken charges =  -0.00000

 Dipole moment (field-independent basis, Debye):
    X=              4.0713    Y=              3.2790    Z=             -1.1765  Tot=              5.3583
 Quadrupole moment (field-independent basis, Debye-Ang):
   XX=           -122.8354   YY=            -92.9726   ZZ=            -95.3074
   XY=            -15.3747   XZ=              4.3583   YZ=              0.1494

 Normal termination of Gaussian 16 at Wed May  5 17:12:33 2021.
