 Gaussian 16, Revision A.03,
 Gaussian 16:  EM64L-G16RevA.03 25-Dec-2016

 -------------
 #p 6-31g* mp2
 -------------

 ------------------------------------------------------
 Input file generated by CHIRIPA (05-May-2021 14:51:07)
 ------------------------------------------------------
 Symbolic Z-matrix:
 Charge =  0 Multiplicity = 1

                         Standard orientation:
 ---------------------------------------------------------------------
 Center     Atomic      Atomic             Coordinates (Angstroms)
 Number     Number       Type             X           Y           Z
 ---------------------------------------------------------------------
      1          6           0       -4.573602    0.110648    0.085745
      2          6           0       -5.272944   -0.377094   -1.183512
      3          6           0       -6.611839   -1.057384   -0.896532
      4          1           0       -4.416166   -0.741796    0.760652
      5          1           0       -5.235406    0.810213    0.614915
      6          1           0       -4.609462   -1.074466   -1.710845
      7          1           0       -5.428561    0.476577   -1.855558
      8          1           0       -7.294495   -0.366523   -0.391267
      9          1           0       -6.470742   -1.926379   -0.245731
     10          1           0       -7.094560   -1.398258   -1.817752
     11          6           0       -3.233825    0.792934   -0.184827
     12          6           0       -2.534484    1.280676    1.084431
     13          6           0       -1.195588    1.960966    0.797450
     14          1           0       -2.572021    0.093370   -0.713996
     15          1           0       -3.391261    1.645378   -0.859734
     16          1           0       -2.378866    0.427006    1.756477
     17          1           0       -3.197966    1.978048    1.611763
     18          1           0       -1.336686    2.829961    0.146650
     19          1           0       -0.512932    1.270105    0.292185
     20          1           0       -0.712867    2.301840    1.718670
     21          6           0        4.556075   -0.534311   -0.339107
     22          6           0        5.332084    0.772603   -0.505752
     23          6           0        6.634831    0.591290   -1.285348
     24          1           0        5.192631   -1.268498    0.173447
     25          1           0        4.335528   -0.950790   -1.331730
     26          1           0        5.549898    1.187202    0.486861
     27          1           0        4.693539    1.503825   -1.017799
     28          1           0        6.432678    0.200264   -2.287761
     29          1           0        7.293902   -0.118157   -0.774553
     30          1           0        7.173510    1.537945   -1.392728
     31          6           0        3.251352   -0.369271    0.438188
     32          6           0        2.475343   -1.676186    0.604834
     33          6           0        1.172596   -1.494872    1.384430
     34          1           0        3.471899    0.047208    1.430811
     35          1           0        2.614796    0.364916   -0.074366
     36          1           0        3.113888   -2.407407    1.116881
     37          1           0        2.257529   -2.090784   -0.387780
     38          1           0        0.513525   -0.785425    0.873634
     39          1           0        1.374750   -1.103845    2.386842
     40          1           0        0.633917   -2.441527    1.491809
 ---------------------------------------------------------------------

 SCF Done:  E(RHF) =  -470.733227460     A.U. after   11 cycles
 E2 =    -0.1582585535D+01 EUMP2 =    -0.47231581299557D+03

 The electronic state is 1-A.
 Alpha  occ. eigenvalues --  -11.21610 -11.21595 -11.21590 -11.21582 -11.21401
 Alpha  occ. eigenvalues --  -11.21398 -11.21342 -11.21338 -11.21065 -11.21065
 Alpha  occ. eigenvalues --  -11.21062 -11.21057  -1.08433  -1.08416  -1.03550
 Alpha  occ. eigenvalues --   -1.03501  -0.96012  -0.95941  -0.87031  -0.86956
 Alpha  occ. eigenvalues --   -0.79624  -0.79551  -0.78250  -0.78222  -0.65116
 Alpha  occ. eigenvalues --   -0.65006  -0.61090  -0.60789  -0.59347  -0.59337
 Alpha  occ. eigenvalues --   -0.57615  -0.57562  -0.55452  -0.55097  -0.52675
 Alpha  occ. eigenvalues --   -0.52663  -0.52454  -0.52343  -0.50078  -0.49773
 Alpha  occ. eigenvalues --   -0.47990  -0.47814  -0.46731  -0.46500  -0.45834
 Alpha  occ. eigenvalues --   -0.45740  -0.45724  -0.45606  -0.43785  -0.43773
 Alpha virt. eigenvalues --    0.20899   0.23012   0.23588   0.24904   0.25975
 Alpha virt. eigenvalues --    0.26697   0.27222   0.27593   0.28012   0.29084
 Alpha virt. eigenvalues --    0.30387   0.31561   0.31721   0.31854   0.31989

 Mulliken charges:
               1
     1  C   -0.298328
     2  C   -0.299658
     3  C   -0.475708
     4  H    0.149963
     5  H    0.149523
     6  H    0.151905
     7  H    0.151855
     8  H    0.155176
     9  H    0.155234
    10  H    0.160202
    11  C   -0.298347
    12  C   -0.300816
    13  C   -0.478841
    14  H    0.149023
    15  H    0.149544
    16  H    0.153627
    17  H    0.152045
    18  H    0.155015
    19  H    0.157485
    20  H    0.160961
    21  C   -0.298318
    22  C   -0.299688
    23  C   -0.475713
    24  H    0.149661
    25  H    0.149434
    26  H    0.151970
    27  H    0.152205
    28  H    0.155149
    29  H    0.155119
    30  H    0.160275
    31  C   -0.299009
    32  C   -0.299519
    33  C   -0.481634
    34  H    0.149740
    35  H    0.150343
    36  H    0.152019
    37  H    0.151545
    38  H    0.161340
    39  H    0.155503
    40  H    0.159717
 Sum of Mulliken charges =  -0.00000

 Dipole moment (field-independent basis, Debye):
    X=             -0.0006    Y=              0.0091    Z=              0.0143  Tot=              0.0170
 Quadrupole moment (field-independent basis, Debye-Ang):
   XX=            -86.2329   YY=            -84.2452   ZZ=            -84.2963
   XY=             -1.0403   XZ=              1.0435   YZ=             -0.1847

 Normal termination of Gaussian 16 at Thu May  6 03:38:28 2021.
