 Gaussian 16, Revision A.03,
 Gaussian 16:  EM64L-G16RevA.03 25-Dec-2016

 -------------
 #p 6-31g* mp2
 -------------

 ------------------------------------------------------
 Input file generated by CHIRIPA (05-May-2021 14:51:08)
 ------------------------------------------------------
 Symbolic Z-matrix:
 Charge =  0 Multiplicity = 1

                         Standard orientation:
 ---------------------------------------------------------------------
 Center     Atomic      Atomic             Coordinates (Angstroms)
 Number     Number       Type             X           Y           Z
 ---------------------------------------------------------------------
      1          6           0        3.057118   -0.290715    0.125381
      2          6           0        3.997791   -1.364391   -0.422651
      3          6           0        3.541957   -2.782239   -0.076650
      4          1           0        2.984449   -0.398070    1.216316
      5          1           0        2.047222   -0.459728   -0.273290
      6          1           0        5.005910   -1.192584   -0.024159
      7          1           0        4.068379   -1.254347   -1.512387
      8          1           0        2.546428   -2.977992   -0.487992
      9          1           0        3.489285   -2.915879    1.008692
     10          1           0        4.228730   -3.533934   -0.478096
     11          6           0        3.499467    1.131962   -0.212325
     12          6           0        2.558794    2.205638    0.335707
     13          6           0        3.014628    3.623486   -0.010294
     14          1           0        4.509363    1.300976    0.186346
     15          1           0        3.572136    1.239318   -1.303260
     16          1           0        2.488206    2.095594    1.425443
     17          1           0        1.550675    2.033831   -0.062785
     18          1           0        3.067300    3.757126   -1.095636
     19          1           0        4.010157    3.819239    0.401048
     20          1           0        2.327855    4.375181    0.391152
     21          6           0       -3.866980   -0.185214   -0.382511
     22          6           0       -4.923692    0.580947    0.413943
     23          6           0       -6.095092    1.045337   -0.452058
     24          1           0       -3.493848    0.454147   -1.194260
     25          1           0       -4.337845   -1.055081   -0.861063
     26          1           0       -4.450685    1.448336    0.891977
     27          1           0       -5.294214   -0.060244    1.224007
     28          1           0       -6.593156    0.188828   -0.917811
     29          1           0       -5.744835    1.705980   -1.251728
     30          1           0       -6.838630    1.590826    0.137394
     31          6           0       -2.689605   -0.656033    0.469456
     32          6           0       -1.632893   -1.422195   -0.327000
     33          6           0       -0.461493   -1.886585    0.539002
     34          1           0       -2.218740    0.213834    0.948007
     35          1           0       -3.062737   -1.295395    1.281204
     36          1           0       -1.262372   -0.781003   -1.137063
     37          1           0       -2.105901   -2.289583   -0.805033
     38          1           0       -0.811751   -2.547227    1.338672
     39          1           0        0.036570   -1.030076    1.004754
     40          1           0        0.282045   -2.432072   -0.050450
 ---------------------------------------------------------------------

 SCF Done:  E(RHF) =  -470.732061061     A.U. after   11 cycles
 E2 =    -0.1583771606D+01 EUMP2 =    -0.47231583266632D+03

 The electronic state is 1-A.
 Alpha  occ. eigenvalues --  -11.21627 -11.21606 -11.21603 -11.21565 -11.21406
 Alpha  occ. eigenvalues --  -11.21362 -11.21347 -11.21261 -11.21091 -11.21073
 Alpha  occ. eigenvalues --  -11.21029 -11.20975  -1.08446  -1.08394  -1.03560
 Alpha  occ. eigenvalues --   -1.03488  -0.95979  -0.95962  -0.87002  -0.86980
 Alpha  occ. eigenvalues --   -0.79689  -0.79508  -0.78287  -0.78166  -0.65136
 Alpha  occ. eigenvalues --   -0.64983  -0.60997  -0.60893  -0.59495  -0.59193
 Alpha  occ. eigenvalues --   -0.57710  -0.57467  -0.55375  -0.55162  -0.52756
 Alpha  occ. eigenvalues --   -0.52648  -0.52495  -0.52256  -0.50018  -0.49828
 Alpha  occ. eigenvalues --   -0.47951  -0.47837  -0.46709  -0.46588  -0.45847
 Alpha  occ. eigenvalues --   -0.45751  -0.45695  -0.45482  -0.43772  -0.43696
 Alpha virt. eigenvalues --    0.21293   0.23182   0.23588   0.24357   0.26087
 Alpha virt. eigenvalues --    0.26552   0.26867   0.27443   0.27655   0.29706
 Alpha virt. eigenvalues --    0.30311   0.31375   0.31781   0.31825   0.32268

 Mulliken charges:
               1
     1  C   -0.303946
     2  C   -0.299636
     3  C   -0.478852
     4  H    0.149033
     5  H    0.158689
     6  H    0.151598
     7  H    0.151306
     8  H    0.158087
     9  H    0.155729
    10  H    0.159974
    11  C   -0.297745
    12  C   -0.299961
    13  C   -0.475550
    14  H    0.149277
    15  H    0.149236
    16  H    0.151806
    17  H    0.150868
    18  H    0.155214
    19  H    0.155442
    20  H    0.160076
    21  C   -0.298168
    22  C   -0.299650
    23  C   -0.475697
    24  H    0.149409
    25  H    0.149534
    26  H    0.151962
    27  H    0.151982
    28  H    0.155179
    29  H    0.155134
    30  H    0.160273
    31  C   -0.298679
    32  C   -0.300658
    33  C   -0.483183
    34  H    0.149807
    35  H    0.149863
    36  H    0.150912
    37  H    0.151983
    38  H    0.155159
    39  H    0.159670
    40  H    0.164522
 Sum of Mulliken charges =  -0.00000

 Dipole moment (field-independent basis, Debye):
    X=             -0.0006    Y=             -0.0124    Z=              0.0160  Tot=              0.0203
 Quadrupole moment (field-independent basis, Debye-Ang):
   XX=            -85.2737   YY=            -85.3901   ZZ=            -84.2717
   XY=              0.5947   XZ=             -0.0245   YZ=              0.2201

 Normal termination of Gaussian 16 at Thu May  6 00:30:34 2021.
