 Gaussian 16, Revision A.03,
 Gaussian 16:  EM64L-G16RevA.03 25-Dec-2016

 -------------
 #p 6-31g* mp2
 -------------

 ------------------------------------------------------
 Input file generated by CHIRIPA (05-May-2021 14:51:07)
 ------------------------------------------------------
 Symbolic Z-matrix:
 Charge =  0 Multiplicity = 1

                         Standard orientation:
 ---------------------------------------------------------------------
 Center     Atomic      Atomic             Coordinates (Angstroms)
 Number     Number       Type             X           Y           Z
 ---------------------------------------------------------------------
      1          6           0       -5.116625   -0.217854    0.161535
      2          6           0       -6.386990   -0.093795   -0.680348
      3          6           0       -7.475465   -1.080590   -0.256964
      4          1           0       -4.732688   -1.244370    0.085362
      5          1           0       -5.368490   -0.055989    1.218776
      6          1           0       -6.132567   -0.254478   -1.735841
      7          1           0       -6.767842    0.932596   -0.602315
      8          1           0       -7.757884   -0.917565    0.788151
      9          1           0       -7.119001   -2.111384   -0.351817
     10          1           0       -8.374646   -0.974629   -0.871867
     11          6           0       -4.019226    0.762111   -0.249696
     12          6           0       -2.748861    0.638052    0.592187
     13          6           0       -1.660386    1.624846    0.168803
     14          1           0       -3.767362    0.600246   -1.306937
     15          1           0       -4.403163    1.788627   -0.173522
     16          1           0       -2.368010   -0.388340    0.514154
     17          1           0       -3.003284    0.798734    1.647681
     18          1           0       -2.016851    2.655640    0.263656
     19          1           0       -1.377967    1.461822   -0.876311
     20          1           0       -0.761206    1.518885    0.783706
     21          6           0        3.885011   -0.015219    0.270038
     22          6           0        2.801451   -1.094051    0.271548
     23          6           0        1.440878   -0.564730    0.725922
     24          1           0        3.973340    0.408179    1.279928
     25          1           0        3.572419    0.807663   -0.387644
     26          1           0        3.116619   -1.915282    0.927951
     27          1           0        2.715825   -1.515064   -0.738418
     28          1           0        1.100813    0.240167    0.066303
     29          1           0        1.503885   -0.162325    1.742142
     30          1           0        0.681096   -1.352479    0.719468
     31          6           0        5.250841   -0.529038   -0.181877
     32          6           0        6.334401    0.549795   -0.183388
     33          6           0        7.694973    0.020474   -0.637761
     34          1           0        5.563433   -1.351920    0.475805
     35          1           0        5.162511   -0.952436   -1.191767
     36          1           0        6.420027    0.970807    0.826578
     37          1           0        6.019232    1.371026   -0.839791
     38          1           0        7.631966   -0.381932   -1.653980
     39          1           0        8.035039   -0.784424    0.021857
     40          1           0        8.454756    0.808223   -0.631308
 ---------------------------------------------------------------------

 SCF Done:  E(RHF) =  -470.732768302     A.U. after   11 cycles
 E2 =    -0.1582616462D+01 EUMP2 =    -0.47231538476451D+03

 The electronic state is 1-A.
 Alpha  occ. eigenvalues --  -11.21596 -11.21583 -11.21577 -11.21530 -11.21398
 Alpha  occ. eigenvalues --  -11.21364 -11.21338 -11.21303 -11.21067 -11.21052
 Alpha  occ. eigenvalues --  -11.21023 -11.20937  -1.08424  -1.08382  -1.03542
 Alpha  occ. eigenvalues --   -1.03457  -0.96034  -0.95871  -0.87081  -0.86863
 Alpha  occ. eigenvalues --   -0.79631  -0.79504  -0.78236  -0.78198  -0.65063
 Alpha  occ. eigenvalues --   -0.65007  -0.60989  -0.60824  -0.59361  -0.59305
 Alpha  occ. eigenvalues --   -0.57679  -0.57457  -0.55374  -0.55112  -0.52888
 Alpha  occ. eigenvalues --   -0.52622  -0.52407  -0.52113  -0.50007  -0.49757
 Alpha  occ. eigenvalues --   -0.47998  -0.47743  -0.46651  -0.46529  -0.45775
 Alpha  occ. eigenvalues --   -0.45737  -0.45701  -0.45662  -0.43777  -0.43689
 Alpha virt. eigenvalues --    0.22178   0.22978   0.23556   0.24799   0.26485
 Alpha virt. eigenvalues --    0.26599   0.27002   0.27188   0.27759   0.29179
 Alpha virt. eigenvalues --    0.30490   0.30822   0.31405   0.31764   0.32488

 Mulliken charges:
               1
     1  C   -0.298220
     2  C   -0.299597
     3  C   -0.475672
     4  H    0.149466
     5  H    0.149458
     6  H    0.151829
     7  H    0.151895
     8  H    0.155149
     9  H    0.155110
    10  H    0.160153
    11  C   -0.298324
    12  C   -0.300126
    13  C   -0.479763
    14  H    0.149285
    15  H    0.149534
    16  H    0.152833
    17  H    0.151605
    18  H    0.153960
    19  H    0.153431
    20  H    0.167986
    21  C   -0.298396
    22  C   -0.300232
    23  C   -0.479374
    24  H    0.149535
    25  H    0.149658
    26  H    0.151590
    27  H    0.151693
    28  H    0.160953
    29  H    0.154142
    30  H    0.160434
    31  C   -0.298232
    32  C   -0.299646
    33  C   -0.475701
    34  H    0.149514
    35  H    0.149597
    36  H    0.151929
    37  H    0.151973
    38  H    0.155157
    39  H    0.155162
    40  H    0.160249
 Sum of Mulliken charges =  -0.00000

 Dipole moment (field-independent basis, Debye):
    X=              0.0195    Y=              0.0053    Z=              0.0068  Tot=              0.0213
 Quadrupole moment (field-independent basis, Debye-Ang):
   XX=            -86.6838   YY=            -84.7965   ZZ=            -83.5361
   XY=             -0.5877   XZ=              0.4336   YZ=              0.3141

 Normal termination of Gaussian 16 at Thu May  6 09:59:38 2021.
