 Gaussian 16, Revision A.03,
 Gaussian 16:  EM64L-G16RevA.03 25-Dec-2016

 -------------
 #p 6-31g* mp2
 -------------

 ------------------------------------------------------
 Input file generated by CHIRIPA (05-May-2021 14:51:12)
 ------------------------------------------------------
 Symbolic Z-matrix:
 Charge =  0 Multiplicity = 1

                         Standard orientation:
 ---------------------------------------------------------------------
 Center     Atomic      Atomic             Coordinates (Angstroms)
 Number     Number       Type             X           Y           Z
 ---------------------------------------------------------------------
      1          6           0       -2.986436   -0.121832   -0.710345
      2          6           0       -3.255270   -1.503418   -0.112907
      3          6           0       -3.279740   -2.609342   -1.168429
      4          1           0       -3.756950    0.102431   -1.460651
      5          1           0       -2.026375   -0.141498   -1.244472
      6          1           0       -4.213879   -1.480771    0.421107
      7          1           0       -2.484136   -1.724337    0.636202
      8          1           0       -2.321083   -2.660910   -1.694660
      9          1           0       -4.060654   -2.415960   -1.910977
     10          1           0       -3.473442   -3.588540   -0.719529
     11          6           0       -2.958955    0.994223    0.332438
     12          6           0       -2.690121    2.375809   -0.265000
     13          6           0       -2.665651    3.481733    0.790523
     14          1           0       -3.919015    1.013889    0.866565
     15          1           0       -2.188441    0.769960    1.082745
     16          1           0       -3.461255    2.596728   -1.014109
     17          1           0       -1.731512    2.353162   -0.799014
     18          1           0       -1.884736    3.288351    1.533071
     19          1           0       -3.624307    3.533301    1.316754
     20          1           0       -2.471948    4.460931    0.341623
     21          6           0        2.236501   -0.637360    0.157603
     22          6           0        1.852319   -1.695091    1.192781
     23          6           0        0.376379   -2.087186    1.117566
     24          1           0        1.610971    0.253858    0.303851
     25          1           0        2.008059   -1.018066   -0.847519
     26          1           0        2.082700   -1.313049    2.195570
     27          1           0        2.478968   -2.583822    1.044176
     28          1           0        0.135438   -2.492958    0.129690
     29          1           0       -0.263081   -1.214963    1.287627
     30          1           0        0.123491   -2.844400    1.866254
     31          6           0        3.708890   -0.235031    0.220303
     32          6           0        4.093072    0.822700   -0.814875
     33          6           0        5.569012    1.214794   -0.739659
     34          1           0        3.937332    0.145675    1.225426
     35          1           0        4.334420   -1.126249    0.074056
     36          1           0        3.466423    1.711431   -0.666269
     37          1           0        3.862690    0.440659   -1.817663
     38          1           0        6.208472    0.342573   -0.909720
     39          1           0        5.809954    1.620567    0.248216
     40          1           0        5.821900    1.972009   -1.488348
 ---------------------------------------------------------------------

 SCF Done:  E(RHF) =  -470.732742953     A.U. after   11 cycles
 E2 =    -0.1583730006D+01 EUMP2 =    -0.47231647295844D+03

 The electronic state is 1-A.
 Alpha  occ. eigenvalues --  -11.21674 -11.21646 -11.21593 -11.21477 -11.21412
 Alpha  occ. eigenvalues --  -11.21412 -11.21373 -11.21280 -11.21166 -11.21104
 Alpha  occ. eigenvalues --  -11.21077 -11.20987  -1.08502  -1.08371  -1.03611
 Alpha  occ. eigenvalues --   -1.03456  -0.96058  -0.95929  -0.87091  -0.86937
 Alpha  occ. eigenvalues --   -0.79717  -0.79496  -0.78324  -0.78171  -0.65159
 Alpha  occ. eigenvalues --   -0.64999  -0.60996  -0.60897  -0.59419  -0.59295
 Alpha  occ. eigenvalues --   -0.57644  -0.57539  -0.55418  -0.55160  -0.52757
 Alpha  occ. eigenvalues --   -0.52632  -0.52487  -0.52337  -0.50053  -0.49830
 Alpha  occ. eigenvalues --   -0.48094  -0.47775  -0.46754  -0.46528  -0.45967
 Alpha  occ. eigenvalues --   -0.45785  -0.45671  -0.45420  -0.43844  -0.43724
 Alpha virt. eigenvalues --    0.20424   0.23026   0.23483   0.24725   0.25389
 Alpha virt. eigenvalues --    0.26491   0.27054   0.27511   0.28132   0.29473
 Alpha virt. eigenvalues --    0.30843   0.30904   0.31801   0.31943   0.32297

 Mulliken charges:
               1
     1  C   -0.298461
     2  C   -0.306990
     3  C   -0.475764
     4  H    0.149397
     5  H    0.150036
     6  H    0.150695
     7  H    0.163448
     8  H    0.154517
     9  H    0.154575
    10  H    0.159916
    11  C   -0.300903
    12  C   -0.299672
    13  C   -0.475615
    14  H    0.149790
    15  H    0.150201
    16  H    0.152186
    17  H    0.151979
    18  H    0.154562
    19  H    0.155307
    20  H    0.160253
    21  C   -0.298427
    22  C   -0.300513
    23  C   -0.481361
    24  H    0.149084
    25  H    0.149391
    26  H    0.152172
    27  H    0.152360
    28  H    0.157451
    29  H    0.158531
    30  H    0.161048
    31  C   -0.298302
    32  C   -0.299722
    33  C   -0.475754
    34  H    0.149719
    35  H    0.149927
    36  H    0.151955
    37  H    0.151994
    38  H    0.155272
    39  H    0.155280
    40  H    0.160436
 Sum of Mulliken charges =  -0.00000

 Dipole moment (field-independent basis, Debye):
    X=              0.0427    Y=             -0.0203    Z=              0.0204  Tot=              0.0515
 Quadrupole moment (field-independent basis, Debye-Ang):
   XX=            -84.8980   YY=            -85.1847   ZZ=            -84.7572
   XY=             -0.8067   XZ=             -0.0368   YZ=             -0.1428

 Normal termination of Gaussian 16 at Thu May  6 00:45:47 2021.
