 Gaussian 16, Revision A.03,
 Gaussian 16:  EM64L-G16RevA.03 25-Dec-2016

 -------------
 #p 6-31g* mp2
 -------------

 ------------------------------------------------------
 Input file generated by CHIRIPA (05-May-2021 14:53:12)
 ------------------------------------------------------
 Symbolic Z-matrix:
 Charge =  0 Multiplicity = 1

                         Standard orientation:
 ---------------------------------------------------------------------
 Center     Atomic      Atomic             Coordinates (Angstroms)
 Number     Number       Type             X           Y           Z
 ---------------------------------------------------------------------
      1          6           0       -5.088454   -0.307754   -0.237826
      2          6           0       -6.145766   -0.058017    0.838142
      3          6           0       -7.571753   -0.254041    0.322457
      4          1           0       -5.269712    0.368001   -1.084847
      5          1           0       -5.202477   -1.330230   -0.623750
      6          1           0       -6.028897    0.963218    1.222897
      7          1           0       -5.961855   -0.734313    1.682782
      8          1           0       -7.711937   -1.276295   -0.043527
      9          1           0       -7.779360    0.430881   -0.506025
     10          1           0       -8.311497   -0.070466    1.107912
     11          6           0       -3.657873   -0.115720    0.262464
     12          6           0       -2.600561   -0.365457   -0.813504
     13          6           0       -1.174574   -0.169433   -0.297820
     14          1           0       -3.543850    0.906756    0.648387
     15          1           0       -3.476615   -0.791476    1.109485
     16          1           0       -2.784472    0.310839   -1.658144
     17          1           0       -2.717430   -1.386692   -1.198260
     18          1           0       -0.966966   -0.854355    0.530662
     19          1           0       -1.034389    0.852821    0.068165
     20          1           0       -0.434830   -0.353008   -1.083275
     21          6           0        4.822461   -1.887568    0.408147
     22          6           0        4.926110   -0.782959    1.259979
     23          6           0        4.151999    0.359873    1.038087
     24          6           0        3.280614    0.363895   -0.050013
     25          6           0        3.154798   -0.720791   -0.916566
     26          6           0        3.938694   -1.853020   -0.675495
     27          1           0        5.427609   -2.771228    0.587968
     28          1           0        5.611611   -0.806978    2.102331
     29          1           0        4.212347    1.229021    1.681793
     30          1           0        2.462556   -0.667222   -1.748040
     31          1           0        3.856113   -2.709407   -1.338690
     32          7           0        2.455918    1.568147   -0.295071
     33          8           0        1.695741    1.546678   -1.260632
     34          8           0        2.585314    2.510705    0.483053
 ---------------------------------------------------------------------

 SCF Done:  E(RHF) =  -669.535696928     A.U. after   15 cycles
 E2 =    -0.2091538090D+01 EUMP2 =    -0.67162723501807D+03

 The electronic state is 1-A.
 Alpha  occ. eigenvalues --  -20.60845 -20.60813 -15.85855 -11.31209 -11.27780
 Alpha  occ. eigenvalues --  -11.27772 -11.27519 -11.26793 -11.26783 -11.21248
 Alpha  occ. eigenvalues --  -11.20969 -11.20956 -11.20834 -11.20779 -11.20176
 Alpha  occ. eigenvalues --   -1.59889  -1.39447  -1.19379  -1.08779  -1.07939
 Alpha  occ. eigenvalues --   -1.04783  -1.03003  -0.95629  -0.95432  -0.86463
 Alpha  occ. eigenvalues --   -0.86181  -0.82455  -0.79087  -0.77756  -0.77499
 Alpha  occ. eigenvalues --   -0.72091  -0.71199  -0.70494  -0.65039  -0.64791
 Alpha  occ. eigenvalues --   -0.64570  -0.62138  -0.60396  -0.58825  -0.57056
 Alpha  occ. eigenvalues --   -0.55289  -0.54724  -0.53107  -0.52884  -0.52136
 Alpha  occ. eigenvalues --   -0.51873  -0.49393  -0.48850  -0.48832  -0.47388
 Alpha  occ. eigenvalues --   -0.46133  -0.45299  -0.45234  -0.44813  -0.43186
 Alpha  occ. eigenvalues --   -0.37356  -0.36381
 Alpha virt. eigenvalues --    0.05012   0.11235   0.16499   0.21219   0.23338
 Alpha virt. eigenvalues --    0.24659   0.26769   0.27129   0.27747   0.27984
 Alpha virt. eigenvalues --    0.28925   0.30346   0.31607   0.31939   0.32277

 Mulliken charges:
               1
     1  C   -0.297884
     2  C   -0.299345
     3  C   -0.475443
     4  H    0.150152
     5  H    0.147490
     6  H    0.152644
     7  H    0.150690
     8  H    0.154078
     9  H    0.155307
    10  H    0.159272
    11  C   -0.298286
    12  C   -0.300053
    13  C   -0.477910
    14  H    0.151936
    15  H    0.146978
    16  H    0.154657
    17  H    0.146124
    18  H    0.145487
    19  H    0.166736
    20  H    0.163475
    21  C   -0.170703
    22  C   -0.218538
    23  C   -0.170928
    24  C    0.159384
    25  C   -0.170261
    26  C   -0.218753
    27  H    0.225639
    28  H    0.223494
    29  H    0.275608
    30  H    0.275605
    31  H    0.223540
    32  N    0.488547
    33  O   -0.458419
    34  O   -0.460319
 Sum of Mulliken charges =  -0.00000

 Dipole moment (field-independent basis, Debye):
    X=              3.0646    Y=             -4.1180    Z=              0.8315  Tot=              5.2001
 Quadrupole moment (field-independent basis, Debye-Ang):
   XX=            -77.2084   YY=            -96.4901   ZZ=            -91.9782
   XY=            -12.5355   XZ=              4.5274   YZ=              2.2693

 Normal termination of Gaussian 16 at Thu May  6 08:52:20 2021.
