 Gaussian 16, Revision A.03,
 Gaussian 16:  EM64L-G16RevA.03 25-Dec-2016

 -------------
 #p 6-31g* mp2
 -------------

 ------------------------------------------------------
 Input file generated by CHIRIPA (05-May-2021 14:51:13)
 ------------------------------------------------------
 Symbolic Z-matrix:
 Charge =  0 Multiplicity = 1

                         Standard orientation:
 ---------------------------------------------------------------------
 Center     Atomic      Atomic             Coordinates (Angstroms)
 Number     Number       Type             X           Y           Z
 ---------------------------------------------------------------------
      1          6           0       -3.823093    1.129813    0.004478
      2          6           0       -2.367377    1.550411   -0.200401
      3          6           0       -2.127576    3.025939    0.120698
      4          1           0       -4.470676    1.753807   -0.626563
      5          1           0       -4.112700    1.331329    1.045109
      6          1           0       -2.080181    1.346879   -1.239973
      7          1           0       -1.723167    0.925215    0.431057
      8          1           0       -2.387053    3.240605    1.162423
      9          1           0       -2.746095    3.664666   -0.518101
     10          1           0       -1.080474    3.305128   -0.032565
     11          6           0       -4.078612   -0.342593   -0.312475
     12          6           0       -5.534327   -0.763190   -0.107596
     13          6           0       -5.774128   -2.238719   -0.428695
     14          1           0       -3.789004   -0.544109   -1.353106
     15          1           0       -3.431028   -0.966586    0.318566
     16          1           0       -6.178537   -0.137994   -0.739054
     17          1           0       -5.821523   -0.559659    0.931976
     18          1           0       -5.155609   -2.877445    0.210104
     19          1           0       -5.514651   -2.453385   -1.470420
     20          1           0       -6.821231   -2.517907   -0.275432
     21          6           0        4.607229   -0.645748   -0.144377
     22          6           0        5.689638    0.431186   -0.225566
     23          6           0        6.996857   -0.088516   -0.824633
     24          1           0        4.979465   -1.486106    0.457438
     25          1           0        4.417995   -1.042221   -1.151549
     26          1           0        5.875790    0.826484    0.781262
     27          1           0        5.314710    1.269162   -0.827100
     28          1           0        6.832674   -0.465087   -1.839442
     29          1           0        7.396942   -0.910282   -0.221943
     30          1           0        7.756694    0.697702   -0.873307
     31          6           0        3.294475   -0.141473    0.452374
     32          6           0        2.212067   -1.218406    0.533563
     33          6           0        0.904847   -0.698705    1.132630
     34          1           0        3.483710    0.255001    1.459545
     35          1           0        2.922239    0.698886   -0.149442
     36          1           0        2.586993   -2.056382    1.135096
     37          1           0        2.025915   -1.613704   -0.473265
     38          1           0        0.504763    0.123061    0.529940
     39          1           0        1.069030   -0.322133    2.147439
     40          1           0        0.145010   -1.484923    1.181304
 ---------------------------------------------------------------------

 SCF Done:  E(RHF) =  -470.733171915     A.U. after   11 cycles
 E2 =    -0.1582527785D+01 EUMP2 =    -0.47231569970020D+03

 The electronic state is 1-A.
 Alpha  occ. eigenvalues --  -11.21607 -11.21606 -11.21578 -11.21515 -11.21411
 Alpha  occ. eigenvalues --  -11.21368 -11.21352 -11.21308 -11.21074 -11.21065
 Alpha  occ. eigenvalues --  -11.21056 -11.21043  -1.08438  -1.08392  -1.03547
 Alpha  occ. eigenvalues --   -1.03487  -0.95996  -0.95943  -0.87024  -0.86952
 Alpha  occ. eigenvalues --   -0.79672  -0.79500  -0.78269  -0.78184  -0.65089
 Alpha  occ. eigenvalues --   -0.65006  -0.61016  -0.60828  -0.59355  -0.59324
 Alpha  occ. eigenvalues --   -0.57650  -0.57515  -0.55314  -0.55201  -0.52706
 Alpha  occ. eigenvalues --   -0.52633  -0.52431  -0.52361  -0.50022  -0.49831
 Alpha  occ. eigenvalues --   -0.48032  -0.47778  -0.46757  -0.46466  -0.45861
 Alpha  occ. eigenvalues --   -0.45737  -0.45701  -0.45519  -0.43788  -0.43745
 Alpha virt. eigenvalues --    0.22221   0.22960   0.23683   0.24604   0.25939
 Alpha virt. eigenvalues --    0.26537   0.27021   0.27314   0.27905   0.29048
 Alpha virt. eigenvalues --    0.30528   0.31248   0.31645   0.31771   0.32106

 Mulliken charges:
               1
     1  C   -0.297633
     2  C   -0.307626
     3  C   -0.475623
     4  H    0.149282
     5  H    0.149426
     6  H    0.150677
     7  H    0.161635
     8  H    0.155299
     9  H    0.155036
    10  H    0.159608
    11  C   -0.298415
    12  C   -0.299628
    13  C   -0.475666
    14  H    0.149287
    15  H    0.149884
    16  H    0.151884
    17  H    0.151926
    18  H    0.155093
    19  H    0.155094
    20  H    0.160183
    21  C   -0.298305
    22  C   -0.299659
    23  C   -0.475711
    24  H    0.149676
    25  H    0.149573
    26  H    0.151934
    27  H    0.151940
    28  H    0.155196
    29  H    0.155185
    30  H    0.160273
    31  C   -0.298501
    32  C   -0.299655
    33  C   -0.480621
    34  H    0.149506
    35  H    0.149721
    36  H    0.151807
    37  H    0.152203
    38  H    0.161106
    39  H    0.154866
    40  H    0.159742
 Sum of Mulliken charges =  -0.00000

 Dipole moment (field-independent basis, Debye):
    X=              0.0165    Y=             -0.0056    Z=              0.0095  Tot=              0.0199
 Quadrupole moment (field-independent basis, Debye-Ang):
   XX=            -85.8725   YY=            -85.8918   ZZ=            -83.1631
   XY=             -0.2322   XZ=              0.8259   YZ=             -0.7607

 Normal termination of Gaussian 16 at Wed May  5 16:52:10 2021.
