 Gaussian 16, Revision A.03,
 Gaussian 16:  EM64L-G16RevA.03 25-Dec-2016

 -------------
 #p 6-31g* mp2
 -------------

 ------------------------------------------------------
 Input file generated by CHIRIPA (05-May-2021 14:57:23)
 ------------------------------------------------------
 Symbolic Z-matrix:
 Charge =  0 Multiplicity = 1

                         Standard orientation:
 ---------------------------------------------------------------------
 Center     Atomic      Atomic             Coordinates (Angstroms)
 Number     Number       Type             X           Y           Z
 ---------------------------------------------------------------------
      1          6           0        4.670244    1.587667   -0.214295
      2          6           0        4.842575    0.462899    0.599168
      3          6           0        3.830672   -0.495473    0.709274
      4          6           0        2.654046   -0.296487   -0.011312
      5          6           0        2.452365    0.813594   -0.830052
      6          6           0        3.477791    1.759122   -0.925055
      7          1           0        5.461567    2.327164   -0.293962
      8          1           0        5.767591    0.327140    1.152304
      9          1           0        3.937628   -1.375543    1.331735
     10          1           0        1.519110    0.921480   -1.369324
     11          1           0        3.341184    2.631655   -1.557565
     12          7           0        1.575632   -1.304274    0.097258
     13          8           0        0.548439   -1.105795   -0.547814
     14          8           0        1.777983   -2.273573    0.825371
     15          6           0       -3.254061    2.526943    0.695643
     16          6           0       -3.048587    1.552935    1.678297
     17          6           0       -2.813733    0.221978    1.320603
     18          6           0       -2.790958   -0.101299   -0.035222
     19          6           0       -2.992119    0.846328   -1.037634
     20          6           0       -3.225222    2.171159   -0.656801
     21          1           0       -3.435821    3.558484    0.982495
     22          1           0       -3.070432    1.826356    2.729395
     23          1           0       -2.651522   -0.552187    2.060720
     24          1           0       -2.964535    0.543360   -2.077282
     25          1           0       -3.384466    2.925479   -1.422104
     26          7           0       -2.543255   -1.507081   -0.426145
     27          8           0       -2.528091   -1.766216   -1.627501
     28          8           0       -2.368959   -2.323179    0.476208
 ---------------------------------------------------------------------

 SCF Done:  E(RHF) =  -868.336412702     A.U. after   16 cycles
 E2 =    -0.2602081342D+01 EUMP2 =    -0.87093849404413D+03

 The electronic state is 1-A.
 Alpha  occ. eigenvalues --  -20.60518 -20.60479 -20.59180 -20.59145 -15.85567
 Alpha  occ. eigenvalues --  -15.84249 -11.31081 -11.30172 -11.27677 -11.27658
 Alpha  occ. eigenvalues --  -11.27446 -11.26831 -11.26785 -11.26730 -11.26708
 Alpha  occ. eigenvalues --  -11.26707 -11.26022 -11.25984  -1.59558  -1.58182
 Alpha  occ. eigenvalues --   -1.39118  -1.37753  -1.19268  -1.18405  -1.08634
 Alpha  occ. eigenvalues --   -1.07694  -1.04696  -1.03915  -0.95447  -0.94445
 Alpha  occ. eigenvalues --   -0.86087  -0.85281  -0.82293  -0.81309  -0.77306
 Alpha  occ. eigenvalues --   -0.76232  -0.71965  -0.70906  -0.70519  -0.70382
 Alpha  occ. eigenvalues --   -0.69540  -0.69252  -0.64914  -0.64698  -0.64064
 Alpha  occ. eigenvalues --   -0.63946  -0.62041  -0.61262  -0.55191  -0.54422
 Alpha  occ. eigenvalues --   -0.53017  -0.52792  -0.52203  -0.52027  -0.48521
 Alpha  occ. eigenvalues --   -0.48501  -0.47275  -0.47209  -0.44521  -0.43042
 Alpha  occ. eigenvalues --   -0.37262  -0.36394  -0.36305  -0.35558
 Alpha virt. eigenvalues --    0.05197   0.06422   0.11346   0.12093   0.16694
 Alpha virt. eigenvalues --    0.17748   0.21452   0.22100   0.27345   0.27958
 Alpha virt. eigenvalues --    0.28349   0.29063   0.30969   0.31596   0.32576

 Mulliken charges:
               1
     1  C   -0.171334
     2  C   -0.218675
     3  C   -0.170900
     4  C    0.158061
     5  C   -0.170658
     6  C   -0.218695
     7  H    0.224670
     8  H    0.223124
     9  H    0.276402
    10  H    0.274693
    11  H    0.221674
    12  N    0.492091
    13  O   -0.465080
    14  O   -0.453534
    15  C   -0.174031
    16  C   -0.219635
    17  C   -0.171865
    18  C    0.168762
    19  C   -0.173282
    20  C   -0.220738
    21  H    0.220189
    22  H    0.219435
    23  H    0.276389
    24  H    0.273491
    25  H    0.217808
    26  N    0.501257
    27  O   -0.463707
    28  O   -0.455915
 Sum of Mulliken charges =  -0.00000

 Dipole moment (field-independent basis, Debye):
    X=              3.1446    Y=              8.0612    Z=              1.0104  Tot=              8.7116
 Quadrupole moment (field-independent basis, Debye-Ang):
   XX=            -80.4536   YY=           -107.6141   ZZ=            -99.0618
   XY=             -6.6675   XZ=             -2.3508   YZ=             -3.7858

 Normal termination of Gaussian 16 at Wed May  5 22:40:58 2021.
