 Gaussian 16, Revision A.03,
 Gaussian 16:  EM64L-G16RevA.03 25-Dec-2016

 -------------
 #p 6-31g* mp2
 -------------

 ------------------------------------------------------
 Input file generated by CHIRIPA (05-May-2021 14:55:18)
 ------------------------------------------------------
 Symbolic Z-matrix:
 Charge =  0 Multiplicity = 1

                         Standard orientation:
 ---------------------------------------------------------------------
 Center     Atomic      Atomic             Coordinates (Angstroms)
 Number     Number       Type             X           Y           Z
 ---------------------------------------------------------------------
      1          6           0       -0.706640   -1.124037   -0.735147
      2          6           0       -0.773282    0.248235   -0.472569
      3          6           0       -1.986935    0.845343   -0.118934
      4          6           0       -3.119434    0.036637   -0.036901
      5          6           0       -3.085212   -1.333321   -0.292508
      6          6           0       -1.860783   -1.909052   -0.644439
      7          1           0        0.240340   -1.579582   -1.009197
      8          1           0        0.121431    0.860346   -0.542242
      9          1           0       -2.066917    1.905303    0.089645
     10          1           0       -3.994065   -1.917601   -0.214925
     11          1           0       -1.812003   -2.975029   -0.847806
     12          7           0       -4.409978    0.657453    0.336574
     13          8           0       -5.393393   -0.076886    0.401984
     14          8           0       -4.413655    1.866632    0.556823
     15          6           0        3.445656    0.749723   -0.128406
     16          6           0        4.352037    1.940252    0.186396
     17          6           0        3.788430    3.264851   -0.328949
     18          1           0        3.296029    0.688182   -1.215038
     19          1           0        2.455218    0.924760    0.314077
     20          1           0        5.340886    1.762392   -0.255373
     21          1           0        4.499679    1.998852    1.272390
     22          1           0        2.811479    3.468927    0.121073
     23          1           0        3.657465    3.231124   -1.415370
     24          1           0        4.452232    4.102466   -0.093092
     25          6           0        3.995590   -0.581580    0.380448
     26          6           0        3.089209   -1.772108    0.065646
     27          6           0        3.652816   -3.096707    0.580990
     28          1           0        4.986028   -0.756617   -0.062035
     29          1           0        4.145218   -0.520038    1.467080
     30          1           0        2.941567   -1.830709   -1.020348
     31          1           0        2.100360   -1.594248    0.507414
     32          1           0        3.783782   -3.062980    1.667412
     33          1           0        4.629767   -3.300783    0.130969
     34          1           0        2.989015   -3.934322    0.345134
 ---------------------------------------------------------------------

 SCF Done:  E(RHF) =  -669.535186575     A.U. after   15 cycles
 E2 =    -0.2092618851D+01 EUMP2 =    -0.67162780542663D+03

 The electronic state is 1-A.
 Alpha  occ. eigenvalues --  -20.60700 -20.60695 -15.85752 -11.31097 -11.27669
 Alpha  occ. eigenvalues --  -11.27659 -11.27310 -11.26660 -11.26618 -11.22848
 Alpha  occ. eigenvalues --  -11.22568 -11.22466 -11.22429 -11.22073 -11.21863
 Alpha  occ. eigenvalues --   -1.59776  -1.39330  -1.19263  -1.09519  -1.08651
 Alpha  occ. eigenvalues --   -1.04663  -1.04546  -0.96966  -0.95496  -0.87982
 Alpha  occ. eigenvalues --   -0.86060  -0.82342  -0.80646  -0.79394  -0.77382
 Alpha  occ. eigenvalues --   -0.71970  -0.71099  -0.70357  -0.66148  -0.64906
 Alpha  occ. eigenvalues --   -0.64653  -0.62030  -0.61917  -0.60367  -0.58611
 Alpha  occ. eigenvalues --   -0.56239  -0.55160  -0.53633  -0.53401  -0.52997
 Alpha  occ. eigenvalues --   -0.52737  -0.50893  -0.48933  -0.48728  -0.48695
 Alpha  occ. eigenvalues --   -0.47658  -0.46852  -0.46793  -0.44809  -0.44741
 Alpha  occ. eigenvalues --   -0.37213  -0.36273
 Alpha virt. eigenvalues --    0.05120   0.11301   0.16545   0.20063   0.22458
 Alpha virt. eigenvalues --    0.22759   0.25111   0.25442   0.26863   0.27992
 Alpha virt. eigenvalues --    0.29395   0.30063   0.30873   0.31119   0.31964

 Mulliken charges:
               1
     1  C   -0.176601
     2  C   -0.227016
     3  C   -0.171655
     4  C    0.158519
     5  C   -0.170918
     6  C   -0.220706
     7  H    0.235230
     8  H    0.230951
     9  H    0.275319
    10  H    0.275140
    11  H    0.223100
    12  N    0.488018
    13  O   -0.460749
    14  O   -0.460722
    15  C   -0.305974
    16  C   -0.299625
    17  C   -0.477038
    18  H    0.148578
    19  H    0.147091
    20  H    0.155219
    21  H    0.155328
    22  H    0.153249
    23  H    0.155755
    24  H    0.165001
    25  C   -0.296958
    26  C   -0.310662
    27  C   -0.475088
    28  H    0.153779
    29  H    0.154386
    30  H    0.147842
    31  H    0.153171
    32  H    0.159770
    33  H    0.158934
    34  H    0.159331
 Sum of Mulliken charges =  -0.00000

 Dipole moment (field-independent basis, Debye):
    X=              4.8696    Y=             -2.1765    Z=             -1.2444  Tot=              5.4771
 Quadrupole moment (field-independent basis, Debye-Ang):
   XX=           -121.3387   YY=            -91.7377   ZZ=            -94.7673
   XY=              9.6345   XZ=              3.9127   YZ=              0.7706

 Normal termination of Gaussian 16 at Thu May  6 17:22:17 2021.
