 Gaussian 16, Revision A.03,
 Gaussian 16:  EM64L-G16RevA.03 25-Dec-2016

 -------------
 #p 6-31g* mp2
 -------------

 ------------------------------------------------------
 Input file generated by CHIRIPA (05-May-2021 14:53:17)
 ------------------------------------------------------
 Symbolic Z-matrix:
 Charge =  0 Multiplicity = 1

                         Standard orientation:
 ---------------------------------------------------------------------
 Center     Atomic      Atomic             Coordinates (Angstroms)
 Number     Number       Type             X           Y           Z
 ---------------------------------------------------------------------
      1          6           0       -3.525791    0.129110    0.126323
      2          6           0       -2.615221   -0.903978   -0.538190
      3          6           0       -1.140583   -0.705548   -0.186253
      4          1           0       -3.207777    1.136575   -0.175050
      5          1           0       -3.397311    0.073731    1.216195
      6          1           0       -2.746406   -0.847614   -1.626414
      7          1           0       -2.935560   -1.909109   -0.235353
      8          1           0       -0.988882   -0.782669    0.895246
      9          1           0       -0.798653    0.284857   -0.503718
     10          1           0       -0.507600   -1.454773   -0.671901
     11          6           0       -5.003042   -0.056156   -0.215925
     12          6           0       -5.913612    0.976931    0.448588
     13          6           0       -7.388251    0.778501    0.096651
     14          1           0       -5.131523   -0.000778   -1.305797
     15          1           0       -5.321056   -1.063622    0.085448
     16          1           0       -5.593273    1.982062    0.145751
     17          1           0       -5.782428    0.920568    1.536812
     18          1           0       -7.730180   -0.211903    0.414117
     19          1           0       -7.539951    0.855622   -0.984848
     20          1           0       -8.021233    1.527726    0.582300
     21          6           0        4.390027    2.256239   -0.124935
     22          6           0        3.975783    1.593903   -1.285208
     23          6           0        3.388116    0.327682   -1.208527
     24          6           0        3.229248   -0.249377    0.050463
     25          6           0        3.631683    0.385170    1.224638
     26          6           0        4.216960    1.650826    1.124082
     27          1           0        4.845613    3.239651   -0.193775
     28          1           0        4.108935    2.061658   -2.256558
     29          1           0        3.058344   -0.207450   -2.090741
     30          1           0        3.485732   -0.106575    2.178735
     31          1           0        4.537717    2.162862    2.026845
     32          7           0        2.608377   -1.589570    0.144278
     33          8           0        2.479574   -2.076461    1.265432
     34          8           0        2.262295   -2.127745   -0.905118
 ---------------------------------------------------------------------

 SCF Done:  E(RHF) =  -669.536314863     A.U. after   15 cycles
 E2 =    -0.2091276908D+01 EUMP2 =    -0.67162759177037D+03

 The electronic state is 1-A.
 Alpha  occ. eigenvalues --  -20.60858 -20.60845 -15.85878 -11.31210 -11.27776
 Alpha  occ. eigenvalues --  -11.27772 -11.27520 -11.26789 -11.26780 -11.21330
 Alpha  occ. eigenvalues --  -11.21021 -11.20976 -11.20899 -11.20844 -11.20186
 Alpha  occ. eigenvalues --   -1.59905  -1.39464  -1.19379  -1.08782  -1.07997
 Alpha  occ. eigenvalues --   -1.04780  -1.03050  -0.95626  -0.95490  -0.86515
 Alpha  occ. eigenvalues --   -0.86179  -0.82461  -0.79137  -0.77810  -0.77511
 Alpha  occ. eigenvalues --   -0.72108  -0.71212  -0.70493  -0.65038  -0.64786
 Alpha  occ. eigenvalues --   -0.64634  -0.62128  -0.60454  -0.58859  -0.57088
 Alpha  occ. eigenvalues --   -0.55288  -0.54793  -0.53110  -0.52874  -0.52148
 Alpha  occ. eigenvalues --   -0.51921  -0.49458  -0.48867  -0.48859  -0.47445
 Alpha  occ. eigenvalues --   -0.46183  -0.45351  -0.45280  -0.44872  -0.43238
 Alpha  occ. eigenvalues --   -0.37354  -0.36380
 Alpha virt. eigenvalues --    0.04989   0.11270   0.16462   0.21393   0.23280
 Alpha virt. eigenvalues --    0.24860   0.27049   0.27308   0.27897   0.28133
 Alpha virt. eigenvalues --    0.28604   0.30915   0.31823   0.32207   0.32380

 Mulliken charges:
               1
     1  C   -0.297552
     2  C   -0.298903
     3  C   -0.488890
     4  H    0.146497
     5  H    0.149111
     6  H    0.149737
     7  H    0.154149
     8  H    0.156412
     9  H    0.145714
    10  H    0.181704
    11  C   -0.297927
    12  C   -0.299166
    13  C   -0.475449
    14  H    0.148583
    15  H    0.150248
    16  H    0.150395
    17  H    0.151589
    18  H    0.155452
    19  H    0.154654
    20  H    0.159026
    21  C   -0.170659
    22  C   -0.218748
    23  C   -0.170570
    24  C    0.159817
    25  C   -0.170670
    26  C   -0.218619
    27  H    0.225640
    28  H    0.223456
    29  H    0.275686
    30  H    0.275597
    31  H    0.223499
    32  N    0.489700
    33  O   -0.459045
    34  O   -0.460470
 Sum of Mulliken charges =  -0.00000

 Dipole moment (field-independent basis, Debye):
    X=              2.3582    Y=              4.6128    Z=             -0.3221  Tot=              5.1907
 Quadrupole moment (field-independent basis, Debye-Ang):
   XX=            -83.0785   YY=            -97.2977   ZZ=            -89.1971
   XY=             15.2723   XZ=             -0.6479   YZ=             -0.0566

 Normal termination of Gaussian 16 at Thu May  6 17:18:00 2021.
