 Gaussian 16, Revision A.03,
 Gaussian 16:  EM64L-G16RevA.03 25-Dec-2016

 -------------
 #p 6-31g* mp2
 -------------

 ------------------------------------------------------
 Input file generated by CHIRIPA (05-May-2021 14:53:12)
 ------------------------------------------------------
 Symbolic Z-matrix:
 Charge =  0 Multiplicity = 1

                         Standard orientation:
 ---------------------------------------------------------------------
 Center     Atomic      Atomic             Coordinates (Angstroms)
 Number     Number       Type             X           Y           Z
 ---------------------------------------------------------------------
      1          6           0        3.183960   -0.055966    0.140076
      2          6           0        3.169826   -1.311970   -0.731841
      3          6           0        3.787423   -2.523640   -0.033112
      4          1           0        4.219790    0.172469    0.426116
      5          1           0        2.639754   -0.259373    1.072739
      6          1           0        3.712710   -1.105824   -1.663182
      7          1           0        2.133928   -1.537332   -1.015997
      8          1           0        3.241829   -2.757353    0.886837
      9          1           0        4.829582   -2.323393    0.235975
     10          1           0        3.766963   -3.410406   -0.674273
     11          6           0        2.569894    1.163789   -0.544648
     12          6           0        2.584028    2.419793    0.327269
     13          6           0        1.966430    3.631463   -0.371460
     14          1           0        3.114100    1.367196   -1.477311
     15          1           0        1.534064    0.935354   -0.830688
     16          1           0        3.619925    2.645155    0.611425
     17          1           0        2.041143    2.213647    1.258610
     18          1           0        0.924272    3.431216   -0.640547
     19          1           0        2.512024    3.865176   -1.291409
     20          1           0        1.986891    4.518230    0.269701
     21          6           0       -0.085716   -1.528427    0.859225
     22          6           0       -0.701678   -0.594534    1.698843
     23          6           0       -1.899704    0.018809    1.320572
     24          6           0       -2.456602   -0.326817    0.090247
     25          6           0       -1.867044   -1.253489   -0.768233
     26          6           0       -0.669337   -1.854349   -0.369467
     27          1           0        0.844815   -2.000038    1.161035
     28          1           0       -0.250704   -0.339486    2.653629
     29          1           0       -2.397859    0.745141    1.951209
     30          1           0       -2.340548   -1.487364   -1.714020
     31          1           0       -0.193206   -2.579272   -1.023556
     32          7           0       -3.724730    0.315895   -0.321059
     33          8           0       -4.195135   -0.005800   -1.410036
     34          8           0       -4.224271    1.129178    0.453322
 ---------------------------------------------------------------------

 SCF Done:  E(RHF) =  -669.533760302     A.U. after   15 cycles
 E2 =    -0.2095451761D+01 EUMP2 =    -0.67162921206352D+03

 The electronic state is 1-A.
 Alpha  occ. eigenvalues --  -20.60827 -20.60821 -15.85883 -11.31272 -11.27866
 Alpha  occ. eigenvalues --  -11.27861 -11.27567 -11.26865 -11.26850 -11.22539
 Alpha  occ. eigenvalues --  -11.22237 -11.22205 -11.22038 -11.21852 -11.21333
 Alpha  occ. eigenvalues --   -1.59903  -1.39455  -1.19468  -1.09202  -1.08800
 Alpha  occ. eigenvalues --   -1.04875  -1.04247  -0.96682  -0.95684  -0.87695
 Alpha  occ. eigenvalues --   -0.86276  -0.82514  -0.80331  -0.78901  -0.77551
 Alpha  occ. eigenvalues --   -0.72101  -0.71228  -0.70687  -0.65868  -0.65116
 Alpha  occ. eigenvalues --   -0.64799  -0.62250  -0.61611  -0.60087  -0.58273
 Alpha  occ. eigenvalues --   -0.56029  -0.55298  -0.53388  -0.53177  -0.53086
 Alpha  occ. eigenvalues --   -0.52957  -0.50638  -0.48867  -0.48854  -0.48618
 Alpha  occ. eigenvalues --   -0.47395  -0.46439  -0.46328  -0.44856  -0.44459
 Alpha  occ. eigenvalues --   -0.37360  -0.36458
 Alpha virt. eigenvalues --    0.04970   0.10965   0.16384   0.19238   0.22940
 Alpha virt. eigenvalues --    0.23789   0.24998   0.26127   0.26928   0.28304
 Alpha virt. eigenvalues --    0.28995   0.29821   0.30970   0.31459   0.31986

 Mulliken charges:
               1
     1  C   -0.296132
     2  C   -0.310230
     3  C   -0.478481
     4  H    0.152889
     5  H    0.139382
     6  H    0.158522
     7  H    0.150746
     8  H    0.145874
     9  H    0.162198
    10  H    0.162726
    11  C   -0.300920
    12  C   -0.299156
    13  C   -0.476584
    14  H    0.150905
    15  H    0.156200
    16  H    0.151911
    17  H    0.148247
    18  H    0.158449
    19  H    0.156178
    20  H    0.161448
    21  C   -0.169029
    22  C   -0.221435
    23  C   -0.170559
    24  C    0.157611
    25  C   -0.171558
    26  C   -0.223118
    27  H    0.234534
    28  H    0.224252
    29  H    0.276139
    30  H    0.276252
    31  H    0.224976
    32  N    0.488095
    33  O   -0.460135
    34  O   -0.460196
 Sum of Mulliken charges =  -0.00000

 Dipole moment (field-independent basis, Debye):
    X=              4.4893    Y=             -2.1851    Z=              1.3593  Tot=              5.1745
 Quadrupole moment (field-independent basis, Debye-Ang):
   XX=           -116.5123   YY=            -93.2461   ZZ=            -91.0585
   XY=              4.7816   XZ=             -4.0062   YZ=              2.1617

 Normal termination of Gaussian 16 at Thu May  6 07:18:43 2021.
