 Gaussian 16, Revision A.03,
 Gaussian 16:  EM64L-G16RevA.03 25-Dec-2016

 -------------
 #p 6-31g* mp2
 -------------

 ------------------------------------------------------
 Input file generated by CHIRIPA (05-May-2021 14:51:10)
 ------------------------------------------------------
 Symbolic Z-matrix:
 Charge =  0 Multiplicity = 1

                         Standard orientation:
 ---------------------------------------------------------------------
 Center     Atomic      Atomic             Coordinates (Angstroms)
 Number     Number       Type             X           Y           Z
 ---------------------------------------------------------------------
      1          6           0       -3.403118    0.137586   -0.134568
      2          6           0       -4.213179   -0.397816    1.046589
      3          6           0       -5.099372   -1.584325    0.666258
      4          1           0       -4.090912    0.434536   -0.938125
      5          1           0       -2.779945   -0.671689   -0.539690
      6          1           0       -4.833607    0.412589    1.450233
      7          1           0       -3.523385   -0.693348    1.847502
      8          1           0       -4.492554   -2.411300    0.283524
      9          1           0       -5.810220   -1.299079   -0.116003
     10          1           0       -5.669554   -1.951206    1.525415
     11          6           0       -2.512281    1.323890    0.229877
     12          6           0       -1.702220    1.859292   -0.951280
     13          6           0       -0.816026    3.045801   -0.570948
     14          1           0       -3.135454    2.133165    0.634999
     15          1           0       -1.824486    1.026940    1.033434
     16          1           0       -2.392013    2.154824   -1.752193
     17          1           0       -1.081792    1.048887   -1.354924
     18          1           0       -0.105179    2.760555    0.211312
     19          1           0       -1.422845    3.872776   -0.188215
     20          1           0       -0.245845    3.412682   -1.430106
     21          6           0        2.613093   -1.282806   -0.447529
     22          6           0        1.093433   -1.295361   -0.278833
     23          6           0        0.418314   -2.405401   -1.084948
     24          1           0        2.856472   -1.164598   -1.512300
     25          1           0        3.017130   -2.257547   -0.140887
     26          1           0        0.692524   -0.320414   -0.584393
     27          1           0        0.853644   -1.413361    0.785683
     28          1           0        0.790408   -3.387320   -0.775138
     29          1           0        0.628372   -2.288164   -2.152999
     30          1           0       -0.667731   -2.396035   -0.949758
     31          6           0        3.302305   -0.178670    0.352220
     32          6           0        4.821966   -0.166115    0.183524
     33          6           0        5.497085    0.943925    0.989639
     34          1           0        2.898268    0.796072    0.045578
     35          1           0        3.058927   -0.296878    1.416992
     36          1           0        5.061755   -0.048115   -0.880992
     37          1           0        5.222874   -1.141062    0.489084
     38          1           0        5.287026    0.826688    2.057689
     39          1           0        5.124991    1.925844    0.679829
     40          1           0        6.583131    0.934558    0.854449
 ---------------------------------------------------------------------

 SCF Done:  E(RHF) =  -470.733254135     A.U. after   11 cycles
 E2 =    -0.1583712159D+01 EUMP2 =    -0.47231696629438D+03

 The electronic state is 1-A.
 Alpha  occ. eigenvalues --  -11.21657 -11.21626 -11.21598 -11.21588 -11.21447
 Alpha  occ. eigenvalues --  -11.21396 -11.21387 -11.21335 -11.21155 -11.21091
 Alpha  occ. eigenvalues --  -11.21085 -11.21071  -1.08488  -1.08415  -1.03591
 Alpha  occ. eigenvalues --   -1.03521  -0.96029  -0.95979  -0.87048  -0.86991
 Alpha  occ. eigenvalues --   -0.79683  -0.79559  -0.78307  -0.78225  -0.65236
 Alpha  occ. eigenvalues --   -0.64963  -0.61141  -0.60781  -0.59392  -0.59348
 Alpha  occ. eigenvalues --   -0.57647  -0.57585  -0.55311  -0.55269  -0.52733
 Alpha  occ. eigenvalues --   -0.52675  -0.52466  -0.52389  -0.50017  -0.49886
 Alpha  occ. eigenvalues --   -0.48071  -0.47830  -0.46878  -0.46453  -0.45919
 Alpha  occ. eigenvalues --   -0.45821  -0.45713  -0.45489  -0.43825  -0.43783
 Alpha virt. eigenvalues --    0.19681   0.22572   0.23590   0.24398   0.26102
 Alpha virt. eigenvalues --    0.26500   0.26572   0.27781   0.28829   0.29231
 Alpha virt. eigenvalues --    0.30009   0.31423   0.31669   0.31766   0.32387

 Mulliken charges:
               1
     1  C   -0.302758
     2  C   -0.299534
     3  C   -0.475661
     4  H    0.149707
     5  H    0.153319
     6  H    0.151987
     7  H    0.151982
     8  H    0.154880
     9  H    0.155250
    10  H    0.160295
    11  C   -0.298383
    12  C   -0.304656
    13  C   -0.477129
    14  H    0.149498
    15  H    0.150891
    16  H    0.152291
    17  H    0.156181
    18  H    0.156070
    19  H    0.155659
    20  H    0.159741
    21  C   -0.297637
    22  C   -0.307691
    23  C   -0.478973
    24  H    0.149815
    25  H    0.149733
    26  H    0.159529
    27  H    0.151630
    28  H    0.155866
    29  H    0.155646
    30  H    0.162246
    31  C   -0.298993
    32  C   -0.299663
    33  C   -0.475813
    34  H    0.150139
    35  H    0.149502
    36  H    0.152077
    37  H    0.151994
    38  H    0.155159
    39  H    0.155452
    40  H    0.160352
 Sum of Mulliken charges =  -0.00000

 Dipole moment (field-independent basis, Debye):
    X=              0.0150    Y=             -0.0008    Z=             -0.0002  Tot=              0.0151
 Quadrupole moment (field-independent basis, Debye-Ang):
   XX=            -85.0478   YY=            -85.2866   ZZ=            -84.3796
   XY=             -1.6419   XZ=             -0.1830   YZ=             -1.1404

 Normal termination of Gaussian 16 at Wed May  5 19:46:13 2021.
