 Gaussian 16, Revision A.03,
 Gaussian 16:  EM64L-G16RevA.03 25-Dec-2016

 -------------
 #p 6-31g* mp2
 -------------

 ------------------------------------------------------
 Input file generated by CHIRIPA (05-May-2021 14:55:21)
 ------------------------------------------------------
 Symbolic Z-matrix:
 Charge =  0 Multiplicity = 1

                         Standard orientation:
 ---------------------------------------------------------------------
 Center     Atomic      Atomic             Coordinates (Angstroms)
 Number     Number       Type             X           Y           Z
 ---------------------------------------------------------------------
      1          6           0       -4.760214    0.329579    0.120101
      2          6           0       -4.015834    0.167673    1.293218
      3          6           0       -2.691112   -0.275740    1.238019
      4          6           0       -2.139849   -0.549233   -0.012821
      5          6           0       -2.855680   -0.397771   -1.199386
      6          6           0       -4.178786    0.046839   -1.120271
      7          1           0       -5.788662    0.674498    0.172270
      8          1           0       -4.464786    0.386494    2.257897
      9          1           0       -2.092061   -0.409773    2.130538
     10          1           0       -2.380827   -0.623902   -2.146380
     11          1           0       -4.754494    0.171666   -2.032972
     12          7           0       -0.738281   -1.019288   -0.083918
     13          8           0       -0.275678   -1.253482   -1.198273
     14          8           0       -0.128873   -1.144622    0.976059
     15          6           0        3.349340    0.030649    0.396198
     16          6           0        3.836896   -1.118177   -0.487246
     17          6           0        4.463930   -2.257364    0.317039
     18          1           0        4.193440    0.416329    0.984153
     19          1           0        2.616721   -0.356457    1.117871
     20          1           0        4.567348   -0.728757   -1.207946
     21          1           0        2.991578   -1.501041   -1.073308
     22          1           0        3.739741   -2.673171    1.025033
     23          1           0        5.324464   -1.896500    0.889630
     24          1           0        4.805554   -3.067946   -0.334197
     25          6           0        2.720022    1.177062   -0.393373
     26          6           0        2.232467    2.325889    0.490071
     27          6           0        1.605433    3.465075   -0.314214
     28          1           0        3.452641    1.564168   -1.115046
     29          1           0        1.875922    0.791382   -0.981328
     30          1           0        3.077784    2.708752    1.076133
     31          1           0        1.502014    1.936468    1.210771
     32          1           0        0.744899    3.104211   -0.886805
     33          1           0        2.329621    3.880882   -1.022208
     34          1           0        1.263810    4.275658    0.337022
 ---------------------------------------------------------------------

 SCF Done:  E(RHF) =  -669.537260775     A.U. after   15 cycles
 E2 =    -0.2093100895D+01 EUMP2 =    -0.67163036166960D+03

 The electronic state is 1-A.
 Alpha  occ. eigenvalues --  -20.61276 -20.61267 -15.86248 -11.31460 -11.28003
 Alpha  occ. eigenvalues --  -11.28000 -11.27720 -11.26982 -11.26972 -11.20567
 Alpha  occ. eigenvalues --  -11.20382 -11.19903 -11.19834 -11.19597 -11.19564
 Alpha  occ. eigenvalues --   -1.60294  -1.39855  -1.19612  -1.09039  -1.06949
 Alpha  occ. eigenvalues --   -1.04989  -1.02213  -0.95899  -0.94683  -0.86395
 Alpha  occ. eigenvalues --   -0.85718  -0.82737  -0.78303  -0.77806  -0.76701
 Alpha  occ. eigenvalues --   -0.72461  -0.71605  -0.70719  -0.65268  -0.64996
 Alpha  occ. eigenvalues --   -0.63543  -0.62336  -0.59603  -0.58106  -0.56291
 Alpha  occ. eigenvalues --   -0.55499  -0.53982  -0.53315  -0.53079  -0.51471
 Alpha  occ. eigenvalues --   -0.51125  -0.49270  -0.49238  -0.48586  -0.46629
 Alpha  occ. eigenvalues --   -0.45526  -0.45184  -0.44235  -0.43905  -0.42402
 Alpha  occ. eigenvalues --   -0.37581  -0.36582
 Alpha virt. eigenvalues --    0.04667   0.11073   0.16161   0.21191   0.24214
 Alpha virt. eigenvalues --    0.25588   0.27146   0.27784   0.28466   0.28909
 Alpha virt. eigenvalues --    0.29303   0.30925   0.32295   0.32571   0.32772

 Mulliken charges:
               1
     1  C   -0.170049
     2  C   -0.218525
     3  C   -0.170413
     4  C    0.158296
     5  C   -0.170437
     6  C   -0.218556
     7  H    0.226728
     8  H    0.224513
     9  H    0.276063
    10  H    0.276234
    11  H    0.224522
    12  N    0.489274
    13  O   -0.458364
    14  O   -0.458800
    15  C   -0.302924
    16  C   -0.303120
    17  C   -0.475841
    18  H    0.138654
    19  H    0.171359
    20  H    0.142417
    21  H    0.169903
    22  H    0.159638
    23  H    0.148320
    24  H    0.154663
    25  C   -0.302849
    26  C   -0.300505
    27  C   -0.473928
    28  H    0.142531
    29  H    0.160865
    30  H    0.148483
    31  H    0.152220
    32  H    0.150708
    33  H    0.153995
    34  H    0.154927
 Sum of Mulliken charges =  -0.00000

 Dipole moment (field-independent basis, Debye):
    X=             -5.4141    Y=              1.4143    Z=              0.2593  Tot=              5.6018
 Quadrupole moment (field-independent basis, Debye-Ang):
   XX=            -75.0011   YY=            -98.8761   ZZ=            -89.9338
   XY=             -0.3054   XZ=             -0.3753   YZ=              0.5203

 Normal termination of Gaussian 16 at Wed May  5 23:49:14 2021.
