 Gaussian 16, Revision A.03,
 Gaussian 16:  EM64L-G16RevA.03 25-Dec-2016

 -------------
 #p 6-31g* mp2
 -------------

 ------------------------------------------------------
 Input file generated by CHIRIPA (05-May-2021 14:51:11)
 ------------------------------------------------------
 Symbolic Z-matrix:
 Charge =  0 Multiplicity = 1

                         Standard orientation:
 ---------------------------------------------------------------------
 Center     Atomic      Atomic             Coordinates (Angstroms)
 Number     Number       Type             X           Y           Z
 ---------------------------------------------------------------------
      1          6           0        4.896609   -0.265773   -0.351808
      2          6           0        5.975745    0.356721    0.534731
      3          6           0        7.247377    0.706201   -0.238967
      4          1           0        5.298714   -1.170909   -0.827189
      5          1           0        4.652235    0.431985   -1.164710
      6          1           0        6.217020   -0.341424    1.346517
      7          1           0        5.570963    1.260374    1.008207
      8          1           0        7.027654    1.421127   -1.038469
      9          1           0        7.677383   -0.189772   -0.698237
     10          1           0        8.005442    1.149864    0.413997
     11          6           0        3.619287   -0.620629    0.407305
     12          6           0        2.540151   -1.243123   -0.479234
     13          6           0        1.268519   -1.592604    0.294464
     14          1           0        3.863661   -1.318387    1.220207
     15          1           0        3.217183    0.284506    0.882686
     16          1           0        2.944934   -2.146776   -0.952710
     17          1           0        2.298876   -0.544979   -1.291020
     18          1           0        0.838514   -0.696631    0.753734
     19          1           0        1.488242   -2.307530    1.093966
     20          1           0        0.510455   -2.036267   -0.358500
     21          6           0       -3.520507    0.464161   -0.225670
     22          6           0       -2.814160    1.750983    0.202288
     23          6           0       -1.339502    1.778000   -0.200758
     24          1           0       -3.001725   -0.396436    0.218383
     25          1           0       -3.435176    0.352311   -1.315442
     26          1           0       -2.901992    1.861081    1.290764
     27          1           0       -3.334799    2.608628   -0.242680
     28          1           0       -1.235482    1.693026   -1.287293
     29          1           0       -0.800216    0.941231    0.254864
     30          1           0       -0.853977    2.706688    0.114937
     31          6           0       -4.995389    0.422242    0.170173
     32          6           0       -5.701736   -0.864580   -0.257785
     33          6           0       -7.176395   -0.891597    0.145260
     34          1           0       -5.080721    0.534091    1.259945
     35          1           0       -5.514171    1.282839   -0.273880
     36          1           0       -5.181097   -1.722225    0.187184
     37          1           0       -5.613904   -0.974678   -1.346261
     38          1           0       -7.715680   -0.054829   -0.310360
     39          1           0       -7.280413   -0.806624    1.231797
     40          1           0       -7.661919   -1.820287   -0.170434
 ---------------------------------------------------------------------

 SCF Done:  E(RHF) =  -470.733272928     A.U. after   11 cycles
 E2 =    -0.1582353421D+01 EUMP2 =    -0.47231562634857D+03

 The electronic state is 1-A.
 Alpha  occ. eigenvalues --  -11.21589 -11.21587 -11.21587 -11.21583 -11.21386
 Alpha  occ. eigenvalues --  -11.21386 -11.21327 -11.21326 -11.21065 -11.21059
 Alpha  occ. eigenvalues --  -11.21059 -11.21043  -1.08418  -1.08408  -1.03535
 Alpha  occ. eigenvalues --   -1.03498  -0.96002  -0.95935  -0.87033  -0.86941
 Alpha  occ. eigenvalues --   -0.79625  -0.79537  -0.78236  -0.78213  -0.65080
 Alpha  occ. eigenvalues --   -0.65012  -0.61041  -0.60810  -0.59350  -0.59317
 Alpha  occ. eigenvalues --   -0.57615  -0.57549  -0.55460  -0.55080  -0.52672
 Alpha  occ. eigenvalues --   -0.52661  -0.52471  -0.52312  -0.50120  -0.49708
 Alpha  occ. eigenvalues --   -0.47968  -0.47818  -0.46735  -0.46466  -0.45808
 Alpha  occ. eigenvalues --   -0.45733  -0.45708  -0.45625  -0.43777  -0.43764
 Alpha virt. eigenvalues --    0.21770   0.23027   0.23579   0.24861   0.26139
 Alpha virt. eigenvalues --    0.26699   0.27231   0.27487   0.27818   0.29008
 Alpha virt. eigenvalues --    0.30322   0.31574   0.31635   0.31939   0.31999

 Mulliken charges:
               1
     1  C   -0.298345
     2  C   -0.299661
     3  C   -0.475703
     4  H    0.149552
     5  H    0.149726
     6  H    0.151840
     7  H    0.152005
     8  H    0.155216
     9  H    0.155134
    10  H    0.160198
    11  C   -0.298516
    12  C   -0.299586
    13  C   -0.480599
    14  H    0.149308
    15  H    0.150044
    16  H    0.151868
    17  H    0.152888
    18  H    0.159367
    19  H    0.155041
    20  H    0.160567
    21  C   -0.298595
    22  C   -0.299084
    23  C   -0.482693
    24  H    0.150427
    25  H    0.149358
    26  H    0.151772
    27  H    0.151797
    28  H    0.155029
    29  H    0.162219
    30  H    0.159558
    31  C   -0.298297
    32  C   -0.299680
    33  C   -0.475696
    34  H    0.149528
    35  H    0.149552
    36  H    0.152088
    37  H    0.151846
    38  H    0.155124
    39  H    0.155188
    40  H    0.160214
 Sum of Mulliken charges =  -0.00000

 Dipole moment (field-independent basis, Debye):
    X=              0.0079    Y=             -0.0092    Z=             -0.0018  Tot=              0.0123
 Quadrupole moment (field-independent basis, Debye-Ang):
   XX=            -86.7901   YY=            -83.9033   ZZ=            -84.1762
   XY=             -0.9149   XZ=              0.9342   YZ=             -0.4083

 Normal termination of Gaussian 16 at Wed May  5 19:52:23 2021.
