 Gaussian 16, Revision A.03,
 Gaussian 16:  EM64L-G16RevA.03 25-Dec-2016

 -------------
 #p 6-31g* mp2
 -------------

 ------------------------------------------------------
 Input file generated by CHIRIPA (05-May-2021 14:51:10)
 ------------------------------------------------------
 Symbolic Z-matrix:
 Charge =  0 Multiplicity = 1

                         Standard orientation:
 ---------------------------------------------------------------------
 Center     Atomic      Atomic             Coordinates (Angstroms)
 Number     Number       Type             X           Y           Z
 ---------------------------------------------------------------------
      1          6           0        3.390809    0.640060   -0.076056
      2          6           0        4.861978    0.961209   -0.341590
      3          6           0        5.051511    2.262335   -1.121937
      4          1           0        2.857418    0.575588   -1.034327
      5          1           0        2.935714    1.471605    0.479657
      6          1           0        5.314514    0.128690   -0.895432
      7          1           0        5.391968    1.024734    0.617415
      8          1           0        4.626012    3.107388   -0.571087
      9          1           0        4.548117    2.206253   -2.092530
     10          1           0        6.110608    2.472612   -1.300706
     11          6           0        3.185103   -0.657731    0.703144
     12          6           0        1.713933   -0.978879    0.968678
     13          6           0        1.524400   -2.280005    1.749026
     14          1           0        3.640197   -1.489276    0.147431
     15          1           0        3.718493   -0.593259    1.661415
     16          1           0        1.183943   -1.042405    0.009673
     17          1           0        1.261397   -0.146361    1.522520
     18          1           0        2.027794   -2.223923    2.719618
     19          1           0        1.949899   -3.125059    1.198175
     20          1           0        0.465303   -2.490283    1.927795
     21          6           0       -3.179394   -0.498488   -0.874142
     22          6           0       -2.104357   -1.537078   -0.552253
     23          6           0       -1.898687   -2.545071   -1.683377
     24          1           0       -4.126563   -1.013696   -1.084800
     25          1           0       -2.901503    0.033485   -1.794563
     26          1           0       -2.383503   -2.065983    0.368047
     27          1           0       -1.159684   -1.019327   -0.342148
     28          1           0       -1.596247   -2.034992   -2.603677
     29          1           0       -2.827021   -3.087596   -1.889446
     30          1           0       -1.125882   -3.278237   -1.432179
     31          6           0       -3.396517    0.516159    0.247053
     32          6           0       -4.471554    1.554748   -0.074836
     33          6           0       -4.677225    2.562741    1.056289
     34          1           0       -3.674407   -0.015815    1.167475
     35          1           0       -2.449349    1.031367    0.457712
     36          1           0       -5.416227    1.036997   -0.284940
     37          1           0       -4.192407    2.083654   -0.995135
     38          1           0       -3.748891    3.105266    1.262358
     39          1           0       -4.979663    2.052663    1.976588
     40          1           0       -5.450029    3.295907    0.805091
 ---------------------------------------------------------------------

 SCF Done:  E(RHF) =  -470.733209401     A.U. after   11 cycles
 E2 =    -0.1582998425D+01 EUMP2 =    -0.47231620782577D+03

 The electronic state is 1-A.
 Alpha  occ. eigenvalues --  -11.21619 -11.21605 -11.21590 -11.21542 -11.21423
 Alpha  occ. eigenvalues --  -11.21386 -11.21362 -11.21326 -11.21089 -11.21070
 Alpha  occ. eigenvalues --  -11.21065 -11.21060  -1.08456  -1.08404  -1.03571
 Alpha  occ. eigenvalues --   -1.03489  -0.96000  -0.95956  -0.87005  -0.86983
 Alpha  occ. eigenvalues --   -0.79687  -0.79517  -0.78328  -0.78159  -0.65132
 Alpha  occ. eigenvalues --   -0.65001  -0.61058  -0.60821  -0.59475  -0.59226
 Alpha  occ. eigenvalues --   -0.57697  -0.57466  -0.55296  -0.55235  -0.52693
 Alpha  occ. eigenvalues --   -0.52647  -0.52413  -0.52391  -0.49966  -0.49887
 Alpha  occ. eigenvalues --   -0.48054  -0.47830  -0.46828  -0.46469  -0.45957
 Alpha  occ. eigenvalues --   -0.45744  -0.45731  -0.45408  -0.43791  -0.43766
 Alpha virt. eigenvalues --    0.21338   0.23131   0.23456   0.25039   0.26014
 Alpha virt. eigenvalues --    0.26588   0.26674   0.27661   0.28047   0.28974
 Alpha virt. eigenvalues --    0.30663   0.30843   0.31494   0.31921   0.32038

 Mulliken charges:
               1
     1  C   -0.298365
     2  C   -0.299632
     3  C   -0.475725
     4  H    0.149280
     5  H    0.149342
     6  H    0.152038
     7  H    0.152060
     8  H    0.155140
     9  H    0.155114
    10  H    0.160361
    11  C   -0.297563
    12  C   -0.303830
    13  C   -0.477176
    14  H    0.149568
    15  H    0.149703
    16  H    0.155791
    17  H    0.151636
    18  H    0.155180
    19  H    0.154777
    20  H    0.162569
    21  C   -0.297620
    22  C   -0.308108
    23  C   -0.476158
    24  H    0.149427
    25  H    0.149233
    26  H    0.151367
    27  H    0.161306
    28  H    0.154588
    29  H    0.155357
    30  H    0.160502
    31  C   -0.298429
    32  C   -0.299618
    33  C   -0.475695
    34  H    0.149341
    35  H    0.149930
    36  H    0.151918
    37  H    0.151920
    38  H    0.155121
    39  H    0.155130
    40  H    0.160221
 Sum of Mulliken charges =  -0.00000

 Dipole moment (field-independent basis, Debye):
    X=              0.0149    Y=             -0.0006    Z=              0.0085  Tot=              0.0172
 Quadrupole moment (field-independent basis, Debye-Ang):
   XX=            -84.5162   YY=            -85.6555   ZZ=            -84.6875
   XY=              0.3903   XZ=              0.0851   YZ=              0.1201

 Normal termination of Gaussian 16 at Wed May  5 23:01:47 2021.
