 Gaussian 16, Revision A.03,
 Gaussian 16:  EM64L-G16RevA.03 25-Dec-2016

 -------------
 #p 6-31g* mp2
 -------------

 ------------------------------------------------------
 Input file generated by CHIRIPA (05-May-2021 14:53:12)
 ------------------------------------------------------
 Symbolic Z-matrix:
 Charge =  0 Multiplicity = 1

                         Standard orientation:
 ---------------------------------------------------------------------
 Center     Atomic      Atomic             Coordinates (Angstroms)
 Number     Number       Type             X           Y           Z
 ---------------------------------------------------------------------
      1          6           0        5.270165    0.141941   -0.235234
      2          6           0        6.562807    0.381369    0.545622
      3          6           0        7.632674    1.090426   -0.285293
      4          1           0        5.495172   -0.453290   -1.130788
      5          1           0        4.880658    1.106046   -0.590451
      6          1           0        6.949022   -0.582767    0.900440
      7          1           0        6.334666    0.975937    1.439521
      8          1           0        7.271240    2.065581   -0.627404
      9          1           0        7.889087    0.498021   -1.169549
     10          1           0        8.548249    1.251530    0.292313
     11          6           0        4.191012   -0.566052    0.582019
     12          6           0        2.898370   -0.805480   -0.198836
     13          6           0        1.828503   -1.514537    0.632078
     14          1           0        4.580519   -1.530157    0.937237
     15          1           0        3.966005    0.029179    1.477573
     16          1           0        3.126511   -1.400048   -1.092736
     17          1           0        2.512155    0.158656   -0.553654
     18          1           0        1.572090   -0.922132    1.516334
     19          1           0        2.189937   -2.489692    0.974189
     20          1           0        0.912928   -1.675641    0.054472
     21          6           0       -1.277996    0.081497   -0.851841
     22          6           0       -2.048496   -1.085914   -0.849714
     23          6           0       -3.389137   -1.051075   -0.454729
     24          6           0       -3.929514    0.173806   -0.066206
     25          6           0       -3.187733    1.354050   -0.057583
     26          6           0       -1.849068    1.295612   -0.456465
     27          1           0       -0.237321    0.045268   -1.160189
     28          1           0       -1.607638   -2.030221   -1.156269
     29          1           0       -4.008472   -1.939735   -0.443603
     30          1           0       -3.655070    2.280541    0.253268
     31          1           0       -1.253082    2.203823   -0.457124
     32          7           0       -5.347745    0.223180    0.354010
     33          8           0       -5.800290    1.314830    0.691856
     34          8           0       -5.979955   -0.830707    0.337574
 ---------------------------------------------------------------------

 SCF Done:  E(RHF) =  -669.534778143     A.U. after   15 cycles
 E2 =    -0.2091922004D+01 EUMP2 =    -0.67162670014744D+03

 The electronic state is 1-A.
 Alpha  occ. eigenvalues --  -20.60736 -20.60731 -15.85791 -11.31151 -11.27735
 Alpha  occ. eigenvalues --  -11.27732 -11.27433 -11.26737 -11.26724 -11.22701
 Alpha  occ. eigenvalues --  -11.22212 -11.22164 -11.22108 -11.22059 -11.21551
 Alpha  occ. eigenvalues --   -1.59812  -1.39366  -1.19331  -1.09226  -1.08725
 Alpha  occ. eigenvalues --   -1.04737  -1.04336  -0.96774  -0.95555  -0.87781
 Alpha  occ. eigenvalues --   -0.86135  -0.82393  -0.80413  -0.79004  -0.77441
 Alpha  occ. eigenvalues --   -0.72010  -0.71136  -0.70478  -0.65849  -0.64990
 Alpha  occ. eigenvalues --   -0.64764  -0.62096  -0.61722  -0.60190  -0.58404
 Alpha  occ. eigenvalues --   -0.56048  -0.55181  -0.53534  -0.53214  -0.52924
 Alpha  occ. eigenvalues --   -0.52821  -0.50683  -0.48772  -0.48766  -0.48718
 Alpha  occ. eigenvalues --   -0.47447  -0.46547  -0.46451  -0.44773  -0.44583
 Alpha  occ. eigenvalues --   -0.37269  -0.36340
 Alpha virt. eigenvalues --    0.05087   0.11221   0.16535   0.19763   0.22433
 Alpha virt. eigenvalues --    0.23991   0.25429   0.26150   0.26362   0.27306
 Alpha virt. eigenvalues --    0.29139   0.29663   0.30746   0.31281   0.31793

 Mulliken charges:
               1
     1  C   -0.298737
     2  C   -0.300294
     3  C   -0.476083
     4  H    0.150482
     5  H    0.148680
     6  H    0.153239
     7  H    0.152876
     8  H    0.155308
     9  H    0.155777
    10  H    0.162129
    11  C   -0.298566
    12  C   -0.303093
    13  C   -0.478338
    14  H    0.152670
    15  H    0.151663
    16  H    0.153513
    17  H    0.144663
    18  H    0.160655
    19  H    0.160353
    20  H    0.152040
    21  C   -0.171128
    22  C   -0.219981
    23  C   -0.170892
    24  C    0.158013
    25  C   -0.170655
    26  C   -0.221017
    27  H    0.232262
    28  H    0.223391
    29  H    0.275596
    30  H    0.275459
    31  H    0.222997
    32  N    0.488128
    33  O   -0.460596
    34  O   -0.460513
 Sum of Mulliken charges =  -0.00000

 Dipole moment (field-independent basis, Debye):
    X=              5.2032    Y=             -0.1930    Z=             -1.4055  Tot=              5.3931
 Quadrupole moment (field-independent basis, Debye-Ang):
   XX=           -134.4687   YY=            -89.3738   ZZ=            -95.3638
   XY=              1.1826   XZ=              6.0848   YZ=              1.1610

 Normal termination of Gaussian 16 at Thu May  6 02:33:31 2021.
