 Gaussian 16, Revision A.03,
 Gaussian 16:  EM64L-G16RevA.03 25-Dec-2016

 -------------
 #p 6-31g* mp2
 -------------

 ------------------------------------------------------
 Input file generated by CHIRIPA (05-May-2021 14:53:16)
 ------------------------------------------------------
 Symbolic Z-matrix:
 Charge =  0 Multiplicity = 1

                         Standard orientation:
 ---------------------------------------------------------------------
 Center     Atomic      Atomic             Coordinates (Angstroms)
 Number     Number       Type             X           Y           Z
 ---------------------------------------------------------------------
      1          6           0       -3.039462    0.206146    1.186987
      2          6           0       -1.511809    0.227420    1.248694
      3          6           0       -0.981164    0.578088    2.639105
      4          1           0       -3.426102    1.188316    1.491614
      5          1           0       -3.418977   -0.519974    1.919184
      6          1           0       -1.135236    0.952280    0.515628
      7          1           0       -1.128754   -0.754856    0.943702
      8          1           0       -1.328778   -0.150092    3.379051
      9          1           0       -1.335296    1.566743    2.948545
     10          1           0        0.113051    0.587625    2.660574
     11          6           0       -3.585081   -0.142860   -0.196567
     12          6           0       -5.112734   -0.164133   -0.258274
     13          6           0       -5.643379   -0.514801   -1.648685
     14          1           0       -3.205566    0.583261   -0.928764
     15          1           0       -3.198441   -1.125029   -0.501194
     16          1           0       -5.495789    0.818142    0.046719
     17          1           0       -5.489307   -0.888993    0.474792
     18          1           0       -5.289247   -1.503456   -1.958125
     19          1           0       -5.295765    0.213379   -2.388631
     20          1           0       -6.737595   -0.524339   -1.670153
     21          6           0        2.153617    2.425656   -0.802976
     22          6           0        1.179350    1.476765   -1.129979
     23          6           0        1.409029    0.116381   -0.903811
     24          6           0        2.629679   -0.261615   -0.346657
     25          6           0        3.620127    0.659836   -0.010157
     26          6           0        3.368754    2.014887   -0.245093
     27          1           0        1.966772    3.480364   -0.982074
     28          1           0        0.234737    1.792883   -1.563360
     29          1           0        0.672221   -0.639354   -1.147526
     30          1           0        4.552039    0.314246    0.420570
     31          1           0        4.127210    2.749593    0.009851
     32          7           0        2.884312   -1.698970   -0.102582
     33          8           0        3.967918   -2.006262    0.389359
     34          8           0        1.995467   -2.491060   -0.407841
 ---------------------------------------------------------------------

 SCF Done:  E(RHF) =  -669.534641158     A.U. after   15 cycles
 E2 =    -0.2093272747D+01 EUMP2 =    -0.67162791390537D+03

 The electronic state is 1-A.
 Alpha  occ. eigenvalues --  -20.60787 -20.60781 -15.85839 -11.31187 -11.27763
 Alpha  occ. eigenvalues --  -11.27745 -11.27512 -11.26768 -11.26754 -11.21866
 Alpha  occ. eigenvalues --  -11.21826 -11.21744 -11.21615 -11.21301 -11.21218
 Alpha  occ. eigenvalues --   -1.59860  -1.39414  -1.19373  -1.08771  -1.08714
 Alpha  occ. eigenvalues --   -1.04784  -1.03762  -0.96212  -0.95602  -0.87228
 Alpha  occ. eigenvalues --   -0.86172  -0.82448  -0.79865  -0.78581  -0.77455
 Alpha  occ. eigenvalues --   -0.72056  -0.71183  -0.70475  -0.65379  -0.65018
 Alpha  occ. eigenvalues --   -0.64762  -0.62135  -0.61162  -0.59589  -0.57847
 Alpha  occ. eigenvalues --   -0.55501  -0.55276  -0.53143  -0.52875  -0.52836
 Alpha  occ. eigenvalues --   -0.52634  -0.50151  -0.48815  -0.48812  -0.48159
 Alpha  occ. eigenvalues --   -0.46881  -0.46091  -0.46008  -0.44818  -0.44034
 Alpha  occ. eigenvalues --   -0.37354  -0.36270
 Alpha virt. eigenvalues --    0.05049   0.11179   0.16444   0.20459   0.22841
 Alpha virt. eigenvalues --    0.24140   0.25304   0.25719   0.27667   0.28240
 Alpha virt. eigenvalues --    0.29663   0.30175   0.31506   0.31625   0.31990

 Mulliken charges:
               1
     1  C   -0.297803
     2  C   -0.306015
     3  C   -0.475447
     4  H    0.148469
     5  H    0.152790
     6  H    0.146563
     7  H    0.157464
     8  H    0.158451
     9  H    0.152822
    10  H    0.162164
    11  C   -0.298620
    12  C   -0.299582
    13  C   -0.476022
    14  H    0.141140
    15  H    0.152535
    16  H    0.151593
    17  H    0.154496
    18  H    0.157035
    19  H    0.153148
    20  H    0.161470
    21  C   -0.171822
    22  C   -0.219146
    23  C   -0.164041
    24  C    0.156058
    25  C   -0.171234
    26  C   -0.218845
    27  H    0.225586
    28  H    0.223400
    29  H    0.277361
    30  H    0.275588
    31  H    0.223405
    32  N    0.488435
    33  O   -0.460261
    34  O   -0.461137
 Sum of Mulliken charges =  -0.00000

 Dipole moment (field-independent basis, Debye):
    X=             -0.9113    Y=              4.9925    Z=             -0.8086  Tot=              5.1390
 Quadrupole moment (field-independent basis, Debye-Ang):
   XX=            -95.6582   YY=            -96.8726   ZZ=            -94.9953
   XY=             14.9884   XZ=             -0.6612   YZ=             -1.6347

 Normal termination of Gaussian 16 at Wed May  5 15:41:44 2021.
