 Gaussian 16, Revision A.03,
 Gaussian 16:  EM64L-G16RevA.03 25-Dec-2016

 -------------
 #p 6-31g* mp2
 -------------

 ------------------------------------------------------
 Input file generated by CHIRIPA (05-May-2021 14:57:24)
 ------------------------------------------------------
 Symbolic Z-matrix:
 Charge =  0 Multiplicity = 1

                         Standard orientation:
 ---------------------------------------------------------------------
 Center     Atomic      Atomic             Coordinates (Angstroms)
 Number     Number       Type             X           Y           Z
 ---------------------------------------------------------------------
      1          6           0        1.705155    1.902698   -0.229296
      2          6           0        1.510328    0.528663   -0.404198
      3          6           0        2.593116   -0.354210   -0.352681
      4          6           0        3.862796    0.173636   -0.123374
      5          6           0        4.089135    1.537580    0.054713
      6          6           0        2.991669    2.401891   -0.000802
      7          1           0        0.858319    2.581326   -0.270869
      8          1           0        0.512324    0.138163   -0.581803
      9          1           0        2.470724   -1.422390   -0.484706
     10          1           0        5.095793    1.897138    0.230148
     11          1           0        3.145955    3.468519    0.135383
     12          7           0        5.016864   -0.751197   -0.066719
     13          8           0        6.125494   -0.261080    0.136659
     14          8           0        4.790941   -1.948687   -0.226764
     15          6           0       -5.736423    0.931262   -0.592316
     16          6           0       -5.153047   -0.009150   -1.447781
     17          6           0       -4.009401   -0.711675   -1.056523
     18          6           0       -3.473068   -0.447613    0.202805
     19          6           0       -4.031194    0.483213    1.077647
     20          6           0       -5.174625    1.174013    0.665450
     21          1           0       -6.624752    1.472446   -0.904387
     22          1           0       -5.587183   -0.199728   -2.425150
     23          1           0       -3.537383   -1.445118   -1.698922
     24          1           0       -3.575621    0.651553    2.045911
     25          1           0       -5.625546    1.903783    1.331898
     26          7           0       -2.262455   -1.185138    0.628095
     27          8           0       -1.809197   -0.934231    1.742654
     28          8           0       -1.789757   -2.000152   -0.161174
 ---------------------------------------------------------------------

 SCF Done:  E(RHF) =  -868.338804997     A.U. after   16 cycles
 E2 =    -0.2598995250D+01 EUMP2 =    -0.87093780024664D+03

 The electronic state is 1-A.
 Alpha  occ. eigenvalues --  -20.61775 -20.61754 -20.60065 -20.60047 -15.86789
 Alpha  occ. eigenvalues --  -15.85106 -11.31995 -11.30387 -11.28536 -11.28532
 Alpha  occ. eigenvalues --  -11.28230 -11.27500 -11.27488 -11.27000 -11.26844
 Alpha  occ. eigenvalues --  -11.26731 -11.26044 -11.25857  -1.60850  -1.59135
 Alpha  occ. eigenvalues --   -1.40397  -1.38690  -1.20151  -1.18555  -1.09574
 Alpha  occ. eigenvalues --   -1.07987  -1.05518  -1.03926  -0.96431  -0.94830
 Alpha  occ. eigenvalues --   -0.86921  -0.85350  -0.83257  -0.81647  -0.78334
 Alpha  occ. eigenvalues --   -0.76695  -0.72989  -0.72193  -0.71330  -0.71236
 Alpha  occ. eigenvalues --   -0.70455  -0.69702  -0.65793  -0.65504  -0.64211
 Alpha  occ. eigenvalues --   -0.63932  -0.62859  -0.61262  -0.56009  -0.54503
 Alpha  occ. eigenvalues --   -0.53870  -0.53595  -0.52285  -0.52018  -0.49772
 Alpha  occ. eigenvalues --   -0.49742  -0.48090  -0.48078  -0.45822  -0.44113
 Alpha  occ. eigenvalues --   -0.38124  -0.37118  -0.36571  -0.35513
 Alpha virt. eigenvalues --    0.04151   0.05816   0.10537   0.12120   0.15675
 Alpha virt. eigenvalues --    0.17318   0.20740   0.22131   0.26678   0.27471
 Alpha virt. eigenvalues --    0.28042   0.29037   0.30330   0.31530   0.31908

 Mulliken charges:
               1
     1  C   -0.171311
     2  C   -0.216134
     3  C   -0.170473
     4  C    0.157846
     5  C   -0.172348
     6  C   -0.218726
     7  H    0.220211
     8  H    0.229161
     9  H    0.281553
    10  H    0.272836
    11  H    0.219364
    12  N    0.488042
    13  O   -0.463657
    14  O   -0.459236
    15  C   -0.170150
    16  C   -0.218544
    17  C   -0.171921
    18  C    0.154895
    19  C   -0.172125
    20  C   -0.218805
    21  H    0.228263
    22  H    0.226128
    23  H    0.276766
    24  H    0.276717
    25  H    0.225658
    26  N    0.484570
    27  O   -0.456004
    28  O   -0.462573
 Sum of Mulliken charges =  -0.00000

 Dipole moment (field-independent basis, Debye):
    X=             -8.7287    Y=              5.7221    Z=             -1.6743  Tot=             10.5705
 Quadrupole moment (field-independent basis, Debye-Ang):
   XX=           -105.5127   YY=           -102.9072   ZZ=           -102.3117
   XY=              6.7320   XZ=              4.8148   YZ=              4.0340

 Normal termination of Gaussian 16 at Fri May  7 01:52:58 2021.
