 Gaussian 16, Revision A.03,
 Gaussian 16:  EM64L-G16RevA.03 25-Dec-2016

 -------------
 #p 6-31g* mp2
 -------------

 ------------------------------------------------------
 Input file generated by CHIRIPA (05-May-2021 14:55:21)
 ------------------------------------------------------
 Symbolic Z-matrix:
 Charge =  0 Multiplicity = 1

                         Standard orientation:
 ---------------------------------------------------------------------
 Center     Atomic      Atomic             Coordinates (Angstroms)
 Number     Number       Type             X           Y           Z
 ---------------------------------------------------------------------
      1          6           0        0.724985    0.090931    0.793411
      2          6           0        1.743321    0.658440    1.566357
      3          6           0        3.083181    0.507423    1.196872
      4          6           0        3.370061   -0.220645    0.043223
      5          6           0        2.377898   -0.798048   -0.747668
      6          6           0        1.044959   -0.634223   -0.359103
      7          1           0       -0.313162    0.213220    1.087847
      8          1           0        1.497777    1.222120    2.461912
      9          1           0        3.891335    0.936197    1.776921
     10          1           0        2.653776   -1.354516   -1.635167
     11          1           0        0.256181   -1.076065   -0.961306
     12          7           0        4.784847   -0.387299   -0.358034
     13          8           0        5.011327   -1.033319   -1.378820
     14          8           0        5.640487    0.131252    0.355844
     15          6           0       -3.512606    0.782336    0.071019
     16          6           0       -3.467893    1.980243   -0.878195
     17          6           0       -2.457690    3.042157   -0.442734
     18          1           0       -3.760037    1.132995    1.082335
     19          1           0       -2.511247    0.334043    0.131905
     20          1           0       -4.469351    2.425303   -0.938345
     21          1           0       -3.220727    1.626667   -1.887407
     22          1           0       -1.448573    2.619642   -0.400750
     23          1           0       -2.704291    3.422816    0.553704
     24          1           0       -2.442179    3.889460   -1.135334
     25          6           0       -4.517825   -0.287800   -0.350967
     26          6           0       -4.562539   -1.485707    0.598246
     27          6           0       -5.572740   -2.547620    0.162785
     28          1           0       -5.519185    0.160493   -0.411854
     29          1           0       -4.270393   -0.638460   -1.362284
     30          1           0       -4.809705   -1.132131    1.607458
     31          1           0       -3.561081   -1.930767    0.658397
     32          1           0       -5.326140   -2.928280   -0.833652
     33          1           0       -6.581858   -2.125105    0.120802
     34          1           0       -5.588252   -3.394924    0.855385
 ---------------------------------------------------------------------

 SCF Done:  E(RHF) =  -669.535593442     A.U. after   15 cycles
 E2 =    -0.2091621620D+01 EUMP2 =    -0.67162721506218D+03

 The electronic state is 1-A.
 Alpha  occ. eigenvalues --  -20.60755 -20.60750 -15.85809 -11.31180 -11.27750
 Alpha  occ. eigenvalues --  -11.27740 -11.27453 -11.26771 -11.26750 -11.22580
 Alpha  occ. eigenvalues --  -11.22496 -11.22477 -11.22303 -11.21913 -11.21767
 Alpha  occ. eigenvalues --   -1.59831  -1.39384  -1.19350  -1.09407  -1.08742
 Alpha  occ. eigenvalues --   -1.04754  -1.04400  -0.96852  -0.95578  -0.87862
 Alpha  occ. eigenvalues --   -0.86151  -0.82414  -0.80468  -0.79253  -0.77458
 Alpha  occ. eigenvalues --   -0.72027  -0.71154  -0.70471  -0.66044  -0.65000
 Alpha  occ. eigenvalues --   -0.64753  -0.62103  -0.61790  -0.60219  -0.58469
 Alpha  occ. eigenvalues --   -0.56158  -0.55264  -0.53494  -0.53279  -0.53074
 Alpha  occ. eigenvalues --   -0.52845  -0.50794  -0.48801  -0.48782  -0.48759
 Alpha  occ. eigenvalues --   -0.47503  -0.46754  -0.46698  -0.44788  -0.44687
 Alpha  occ. eigenvalues --   -0.37319  -0.36360
 Alpha virt. eigenvalues --    0.05049   0.11287   0.16445   0.19167   0.22593
 Alpha virt. eigenvalues --    0.23616   0.24971   0.26164   0.26819   0.27702
 Alpha virt. eigenvalues --    0.29828   0.30438   0.30856   0.31133   0.31480

 Mulliken charges:
               1
     1  C   -0.176471
     2  C   -0.219448
     3  C   -0.170740
     4  C    0.158466
     5  C   -0.170855
     6  C   -0.221103
     7  H    0.234859
     8  H    0.224292
     9  H    0.275592
    10  H    0.275535
    11  H    0.222535
    12  N    0.488031
    13  O   -0.460492
    14  O   -0.460345
    15  C   -0.302765
    16  C   -0.299744
    17  C   -0.478997
    18  H    0.151505
    19  H    0.139603
    20  H    0.156081
    21  H    0.153540
    22  H    0.153848
    23  H    0.155056
    24  H    0.165335
    25  C   -0.298343
    26  C   -0.299784
    27  C   -0.476151
    28  H    0.153848
    29  H    0.150463
    30  H    0.153276
    31  H    0.147309
    32  H    0.156094
    33  H    0.157393
    34  H    0.162576
 Sum of Mulliken charges =  -0.00000

 Dipole moment (field-independent basis, Debye):
    X=             -5.2015    Y=              0.6316    Z=              1.3846  Tot=              5.4196
 Quadrupole moment (field-independent basis, Debye-Ang):
   XX=           -127.4208   YY=            -94.3903   ZZ=            -91.4192
   XY=              3.0112   XZ=              5.5202   YZ=              2.2266

 Normal termination of Gaussian 16 at Thu May  6 01:25:26 2021.
