 Gaussian 16, Revision A.03,
 Gaussian 16:  EM64L-G16RevA.03 25-Dec-2016

 -------------
 #p 6-31g* mp2
 -------------

 ------------------------------------------------------
 Input file generated by CHIRIPA (05-May-2021 14:51:12)
 ------------------------------------------------------
 Symbolic Z-matrix:
 Charge =  0 Multiplicity = 1

                         Standard orientation:
 ---------------------------------------------------------------------
 Center     Atomic      Atomic             Coordinates (Angstroms)
 Number     Number       Type             X           Y           Z
 ---------------------------------------------------------------------
      1          6           0        2.286862    0.103898   -0.635832
      2          6           0        3.450094   -0.887393   -0.682946
      3          6           0        3.248543   -1.986123   -1.726960
      4          1           0        1.357352   -0.441209   -0.421787
      5          1           0        2.161181    0.558453   -1.628292
      6          1           0        3.574426   -1.338922    0.309666
      7          1           0        4.376971   -0.339837   -0.896713
      8          1           0        3.146539   -1.553012   -2.727265
      9          1           0        2.339435   -2.557773   -1.514031
     10          1           0        4.091790   -2.683631   -1.743643
     11          6           0        2.473709    1.208232    0.403043
     12          6           0        1.310478    2.199523    0.450158
     13          6           0        1.512028    3.298253    1.494171
     14          1           0        2.599390    0.753677    1.395504
     15          1           0        3.403219    1.753340    0.188999
     16          1           0        0.383600    1.651967    0.663925
     17          1           0        1.186145    2.651052   -0.542455
     18          1           0        2.421136    3.869903    1.281243
     19          1           0        1.614032    2.865142    2.494477
     20          1           0        0.668782    3.995761    1.510855
     21          6           0       -3.037749   -0.303439   -0.047401
     22          6           0       -2.884272    0.819327   -1.073963
     23          6           0       -4.208209    1.515241   -1.391279
     24          1           0       -3.759813   -1.040452   -0.424733
     25          1           0       -3.466469    0.109679    0.876138
     26          1           0       -2.454682    0.404474   -1.994812
     27          1           0       -2.162344    1.553656   -0.694228
     28          1           0       -4.638582    1.955633   -0.486052
     29          1           0       -4.932580    0.799923   -1.794027
     30          1           0       -4.075409    2.314368   -2.127227
     31          6           0       -1.722823   -1.008691    0.280190
     32          6           0       -1.876299   -2.131457    1.306751
     33          6           0       -0.552363   -2.827372    1.624067
     34          1           0       -1.294103   -1.421810   -0.643350
     35          1           0       -1.000758   -0.271678    0.657522
     36          1           0       -2.598227   -2.865786    0.927017
     37          1           0       -2.305890   -1.716605    2.227601
     38          1           0        0.172009   -2.112053    2.026816
     39          1           0       -0.121989   -3.267764    0.718841
     40          1           0       -0.685163   -3.626498    2.360016
 ---------------------------------------------------------------------

 SCF Done:  E(RHF) =  -470.732844940     A.U. after   11 cycles
 E2 =    -0.1584741460D+01 EUMP2 =    -0.47231758640032D+03

 The electronic state is 1-A.
 Alpha  occ. eigenvalues --  -11.21678 -11.21605 -11.21595 -11.21538 -11.21451
 Alpha  occ. eigenvalues --  -11.21389 -11.21366 -11.21246 -11.21180 -11.21094
 Alpha  occ. eigenvalues --  -11.21073 -11.21037  -1.08505  -1.08376  -1.03579
 Alpha  occ. eigenvalues --   -1.03508  -0.96034  -0.95954  -0.87049  -0.86973
 Alpha  occ. eigenvalues --   -0.79652  -0.79570  -0.78507  -0.78012  -0.65251
 Alpha  occ. eigenvalues --   -0.64914  -0.60984  -0.60906  -0.59413  -0.59312
 Alpha  occ. eigenvalues --   -0.57661  -0.57548  -0.55345  -0.55228  -0.52731
 Alpha  occ. eigenvalues --   -0.52657  -0.52472  -0.52367  -0.50017  -0.49867
 Alpha  occ. eigenvalues --   -0.48040  -0.47874  -0.46798  -0.46636  -0.46433
 Alpha  occ. eigenvalues --   -0.45700  -0.45697  -0.44896  -0.43830  -0.43746
 Alpha virt. eigenvalues --    0.20224   0.22114   0.23522   0.24694   0.25423
 Alpha virt. eigenvalues --    0.26352   0.26747   0.27473   0.28048   0.30505
 Alpha virt. eigenvalues --    0.30785   0.31334   0.31749   0.31937   0.32308

 Mulliken charges:
               1
     1  C   -0.306222
     2  C   -0.299089
     3  C   -0.476029
     4  H    0.159329
     5  H    0.148781
     6  H    0.151976
     7  H    0.151462
     8  H    0.154905
     9  H    0.154992
    10  H    0.160146
    11  C   -0.297751
    12  C   -0.308836
    13  C   -0.475127
    14  H    0.148494
    15  H    0.149695
    16  H    0.159121
    17  H    0.152541
    18  H    0.155541
    19  H    0.154812
    20  H    0.159890
    21  C   -0.297447
    22  C   -0.302607
    23  C   -0.475698
    24  H    0.149796
    25  H    0.149201
    26  H    0.152196
    27  H    0.155193
    28  H    0.155055
    29  H    0.155149
    30  H    0.160364
    31  C   -0.309009
    32  C   -0.298916
    33  C   -0.477308
    34  H    0.150721
    35  H    0.158660
    36  H    0.152397
    37  H    0.152017
    38  H    0.154965
    39  H    0.155522
    40  H    0.161117
 Sum of Mulliken charges =  -0.00000

 Dipole moment (field-independent basis, Debye):
    X=             -0.0410    Y=             -0.0131    Z=              0.0011  Tot=              0.0431
 Quadrupole moment (field-independent basis, Debye-Ang):
   XX=            -85.4133   YY=            -85.1035   ZZ=            -84.3431
   XY=              0.9432   XZ=             -0.4884   YZ=             -0.3608

 Normal termination of Gaussian 16 at Thu May  6 05:29:59 2021.
