 Gaussian 16, Revision A.03,
 Gaussian 16:  EM64L-G16RevA.03 25-Dec-2016

 -------------
 #p 6-31g* mp2
 -------------

 ------------------------------------------------------
 Input file generated by CHIRIPA (05-May-2021 14:55:25)
 ------------------------------------------------------
 Symbolic Z-matrix:
 Charge =  0 Multiplicity = 1

                         Standard orientation:
 ---------------------------------------------------------------------
 Center     Atomic      Atomic             Coordinates (Angstroms)
 Number     Number       Type             X           Y           Z
 ---------------------------------------------------------------------
      1          6           0        3.397549    2.489173   -0.720804
      2          6           0        3.075395    1.474356   -1.627932
      3          6           0        2.781475    0.184604   -1.175495
      4          6           0        2.819256   -0.056302    0.197031
      5          6           0        3.136674    0.933672    1.125732
      6          6           0        3.427109    2.216074    0.650715
      7          1           0        3.624519    3.488229   -1.081038
      8          1           0        3.051668    1.683563   -2.693631
      9          1           0        2.528940   -0.619664   -1.855787
     10          1           0        3.152208    0.694728    2.182180
     11          1           0        3.676969    3.002243    1.357507
     12          7           0        2.509941   -1.417814    0.687958
     13          8           0        2.550080   -1.604390    1.902130
     14          8           0        2.233219   -2.272611   -0.150722
     15          6           0       -4.367946    0.071749   -0.287981
     16          6           0       -4.834645    1.071331    0.770799
     17          6           0       -6.224854    1.636533    0.478125
     18          1           0       -4.366350    0.562450   -1.270914
     19          1           0       -5.093564   -0.751025   -0.350553
     20          1           0       -4.107648    1.891273    0.832330
     21          1           0       -4.834948    0.578249    1.751353
     22          1           0       -6.966791    0.832513    0.437096
     23          1           0       -6.235359    2.152998   -0.487149
     24          1           0       -6.538746    2.348886    1.247466
     25          6           0       -2.979855   -0.502064   -0.009286
     26          6           0       -2.513157   -1.501644   -1.068066
     27          6           0       -1.122947   -2.066847   -0.775393
     28          1           0       -2.254237    0.320711    0.053285
     29          1           0       -2.981453   -0.992763    0.973646
     30          1           0       -2.512853   -1.008563   -2.048621
     31          1           0       -3.240153   -2.321587   -1.129596
     32          1           0       -1.112443   -2.583311    0.189882
     33          1           0       -0.381011   -1.262827   -0.734364
     34          1           0       -0.809055   -2.779200   -1.544734
 ---------------------------------------------------------------------

 SCF Done:  E(RHF) =  -669.535568719     A.U. after   15 cycles
 E2 =    -0.2091849213D+01 EUMP2 =    -0.67162741793263D+03

 The electronic state is 1-A.
 Alpha  occ. eigenvalues --  -20.60836 -20.60808 -15.85845 -11.31243 -11.27806
 Alpha  occ. eigenvalues --  -11.27801 -11.27552 -11.26828 -11.26818 -11.21406
 Alpha  occ. eigenvalues --  -11.21107 -11.21022 -11.20952 -11.20934 -11.20137
 Alpha  occ. eigenvalues --   -1.59881  -1.39436  -1.19413  -1.08804  -1.08064
 Alpha  occ. eigenvalues --   -1.04816  -1.03101  -0.95648  -0.95510  -0.86529
 Alpha  occ. eigenvalues --   -0.86213  -0.82467  -0.79175  -0.77875  -0.77503
 Alpha  occ. eigenvalues --   -0.72075  -0.71198  -0.70516  -0.65066  -0.64819
 Alpha  occ. eigenvalues --   -0.64702  -0.62162  -0.60507  -0.58924  -0.57140
 Alpha  occ. eigenvalues --   -0.55317  -0.54824  -0.53144  -0.52906  -0.52185
 Alpha  occ. eigenvalues --   -0.51951  -0.49504  -0.48838  -0.48818  -0.47503
 Alpha  occ. eigenvalues --   -0.46247  -0.45473  -0.45346  -0.44653  -0.43331
 Alpha  occ. eigenvalues --   -0.37392  -0.36417
 Alpha virt. eigenvalues --    0.05006   0.11163   0.16477   0.21342   0.23173
 Alpha virt. eigenvalues --    0.24625   0.26902   0.27230   0.27741   0.27930
 Alpha virt. eigenvalues --    0.28677   0.30830   0.31656   0.32100   0.32553

 Mulliken charges:
               1
     1  C   -0.170831
     2  C   -0.218726
     3  C   -0.172151
     4  C    0.158135
     5  C   -0.170960
     6  C   -0.218483
     7  H    0.225789
     8  H    0.223725
     9  H    0.276654
    10  H    0.275863
    11  H    0.223699
    12  N    0.488418
    13  O   -0.459825
    14  O   -0.456184
    15  C   -0.297538
    16  C   -0.299166
    17  C   -0.475400
    18  H    0.147480
    19  H    0.149724
    20  H    0.149948
    21  H    0.152713
    22  H    0.155495
    23  H    0.153988
    24  H    0.159226
    25  C   -0.297594
    26  C   -0.302186
    27  C   -0.467564
    28  H    0.146108
    29  H    0.151695
    30  H    0.146286
    31  H    0.150708
    32  H    0.162444
    33  H    0.146461
    34  H    0.162050
 Sum of Mulliken charges =  -0.00000

 Dipole moment (field-independent basis, Debye):
    X=              1.2686    Y=              4.6842    Z=             -1.6746  Tot=              5.1337
 Quadrupole moment (field-independent basis, Debye-Ang):
   XX=            -90.6122   YY=            -94.7486   ZZ=            -90.8717
   XY=             14.8899   XZ=             -4.4012   YZ=              2.2413

 Normal termination of Gaussian 16 at Wed May  5 22:26:34 2021.
