 Gaussian 16, Revision A.03,
 Gaussian 16:  EM64L-G16RevA.03 25-Dec-2016

 -------------
 #p 6-31g* mp2
 -------------

 ------------------------------------------------------
 Input file generated by CHIRIPA (05-May-2021 14:51:14)
 ------------------------------------------------------
 Symbolic Z-matrix:
 Charge =  0 Multiplicity = 1

                         Standard orientation:
 ---------------------------------------------------------------------
 Center     Atomic      Atomic             Coordinates (Angstroms)
 Number     Number       Type             X           Y           Z
 ---------------------------------------------------------------------
      1          6           0        3.458236    0.030746    0.128125
      2          6           0        4.041821   -0.855119   -0.973081
      3          6           0        4.846848   -2.031807   -0.420695
      4          1           0        4.275374    0.407412    0.758484
      5          1           0        2.817269   -0.579821    0.779097
      6          1           0        4.680397   -0.242774   -1.622596
      7          1           0        3.223216   -1.229565   -1.601007
      8          1           0        4.217166   -2.666591    0.211088
      9          1           0        5.682627   -1.674194    0.189377
     10          1           0        5.254854   -2.651900   -1.224982
     11          6           0        2.650771    1.211382   -0.408372
     12          6           0        2.067185    2.097247    0.692835
     13          6           0        1.262158    3.273936    0.140449
     14          1           0        3.291737    1.821949   -1.059344
     15          1           0        1.833632    0.834717   -1.038731
     16          1           0        2.885791    2.471693    1.320761
     17          1           0        1.428609    1.484902    1.342350
     18          1           0        0.426379    2.916322   -0.469623
     19          1           0        1.891840    3.908720   -0.491335
     20          1           0        0.854153    3.894028    0.944735
     21          6           0       -2.564062   -1.196958    0.246169
     22          6           0       -1.200964   -0.743859    0.770241
     23          6           0       -0.230736   -1.907286    0.977333
     24          1           0       -2.999495   -1.918347    0.951110
     25          1           0       -2.424572   -1.732677   -0.703010
     26          1           0       -1.343118   -0.207949    1.717452
     27          1           0       -0.768811   -0.023318    0.064067
     28          1           0       -0.059497   -2.438423    0.035434
     29          1           0       -0.637066   -2.624103    1.698215
     30          1           0        0.737366   -1.560813    1.352295
     31          6           0       -3.544944   -0.045170    0.034077
     32          6           0       -4.908042   -0.498270   -0.489994
     33          6           0       -5.878270    0.665158   -0.697086
     34          1           0       -3.684435    0.490549    0.983257
     35          1           0       -3.109511    0.676219   -0.670863
     36          1           0       -5.340195   -1.218810    0.216180
     37          1           0       -4.765889   -1.034179   -1.437206
     38          1           0       -5.471940    1.381975   -1.417969
     39          1           0       -6.049509    1.196294    0.244812
     40          1           0       -6.846372    0.318684   -1.072048
 ---------------------------------------------------------------------

 SCF Done:  E(RHF) =  -470.733163670     A.U. after   11 cycles
 E2 =    -0.1583839542D+01 EUMP2 =    -0.47231700321212D+03

 The electronic state is 1-A.
 Alpha  occ. eigenvalues --  -11.21693 -11.21634 -11.21577 -11.21567 -11.21462
 Alpha  occ. eigenvalues --  -11.21399 -11.21382 -11.21318 -11.21161 -11.21092
 Alpha  occ. eigenvalues --  -11.21056 -11.21043  -1.08499  -1.08401  -1.03595
 Alpha  occ. eigenvalues --   -1.03501  -0.96050  -0.95948  -0.87066  -0.86966
 Alpha  occ. eigenvalues --   -0.79670  -0.79554  -0.78300  -0.78230  -0.65220
 Alpha  occ. eigenvalues --   -0.64987  -0.61010  -0.60876  -0.59412  -0.59324
 Alpha  occ. eigenvalues --   -0.57677  -0.57547  -0.55351  -0.55219  -0.52773
 Alpha  occ. eigenvalues --   -0.52646  -0.52482  -0.52350  -0.50001  -0.49879
 Alpha  occ. eigenvalues --   -0.48042  -0.47830  -0.46697  -0.46593  -0.45889
 Alpha  occ. eigenvalues --   -0.45792  -0.45706  -0.45628  -0.43809  -0.43753
 Alpha virt. eigenvalues --    0.19419   0.22994   0.23476   0.24636   0.25656
 Alpha virt. eigenvalues --    0.26140   0.27123   0.27624   0.28379   0.29485
 Alpha virt. eigenvalues --    0.30579   0.31116   0.31707   0.31802   0.32304

 Mulliken charges:
               1
     1  C   -0.304445
     2  C   -0.299229
     3  C   -0.475946
     4  H    0.149556
     5  H    0.155519
     6  H    0.151764
     7  H    0.151889
     8  H    0.155619
     9  H    0.155036
    10  H    0.160114
    11  C   -0.299250
    12  C   -0.302497
    13  C   -0.475926
    14  H    0.149565
    15  H    0.150235
    16  H    0.151821
    17  H    0.155337
    18  H    0.155032
    19  H    0.155018
    20  H    0.160349
    21  C   -0.298650
    22  C   -0.302667
    23  C   -0.482128
    24  H    0.150034
    25  H    0.149604
    26  H    0.152329
    27  H    0.154772
    28  H    0.155199
    29  H    0.155961
    30  H    0.165434
    31  C   -0.298268
    32  C   -0.299708
    33  C   -0.475751
    34  H    0.149823
    35  H    0.149478
    36  H    0.152036
    37  H    0.151970
    38  H    0.155307
    39  H    0.155297
    40  H    0.160367
 Sum of Mulliken charges =  -0.00000

 Dipole moment (field-independent basis, Debye):
    X=             -0.0286    Y=             -0.0118    Z=              0.0145  Tot=              0.0342
 Quadrupole moment (field-independent basis, Debye-Ang):
   XX=            -84.9960   YY=            -85.8082   ZZ=            -83.9372
   XY=              1.6573   XZ=             -0.6433   YZ=              0.2503

 Normal termination of Gaussian 16 at Wed May  5 21:37:47 2021.
