 Gaussian 16, Revision A.03,
 Gaussian 16:  EM64L-G16RevA.03 25-Dec-2016

 -------------
 #p 6-31g* mp2
 -------------

 ------------------------------------------------------
 Input file generated by CHIRIPA (05-May-2021 14:55:22)
 ------------------------------------------------------
 Symbolic Z-matrix:
 Charge =  0 Multiplicity = 1

                         Standard orientation:
 ---------------------------------------------------------------------
 Center     Atomic      Atomic             Coordinates (Angstroms)
 Number     Number       Type             X           Y           Z
 ---------------------------------------------------------------------
      1          6           0       -2.972299    2.595146    0.031210
      2          6           0       -3.730250    1.845299   -0.874196
      3          6           0       -3.739711    0.448910   -0.806693
      4          6           0       -2.976178   -0.167667    0.183327
      5          6           0       -2.210769    0.551732    1.099791
      6          6           0       -2.216311    1.947112    1.013582
      7          1           0       -2.970777    3.679503   -0.028494
      8          1           0       -4.318316    2.345881   -1.638160
      9          1           0       -4.317453   -0.156032   -1.494935
     10          1           0       -1.634617    0.024390    1.850375
     11          1           0       -1.626728    2.526892    1.718062
     12          7           0       -2.978253   -1.645427    0.264691
     13          8           0       -2.297086   -2.164708    1.146165
     14          8           0       -3.661007   -2.256433   -0.554550
     15          6           0        3.217724   -0.543506   -0.403219
     16          6           0        1.876141    0.189921   -0.388135
     17          6           0        0.702744   -0.716340   -0.761797
     18          1           0        3.384689   -0.968759   -1.402333
     19          1           0        3.171856   -1.391692    0.293826
     20          1           0        1.924989    1.037295   -1.083971
     21          1           0        1.712439    0.613640    0.611004
     22          1           0        0.625553   -1.554834   -0.062105
     23          1           0        0.839311   -1.128772   -1.766709
     24          1           0       -0.246450   -0.171729   -0.744702
     25          6           0        4.400416    0.349238   -0.031770
     26          6           0        5.741999   -0.384188   -0.046854
     27          6           0        6.915397    0.522072    0.326808
     28          1           0        4.446285    1.197424   -0.728814
     29          1           0        4.233451    0.774491    0.967343
     30          1           0        5.905701   -0.807908   -1.045993
     31          1           0        5.693151   -1.231563    0.648982
     32          1           0        6.778829    0.934505    1.331721
     33          1           0        6.992587    1.360566   -0.372885
     34          1           0        7.864590   -0.022539    0.309712
 ---------------------------------------------------------------------

 SCF Done:  E(RHF) =  -669.534546005     A.U. after   15 cycles
 E2 =    -0.2093266061D+01 EUMP2 =    -0.67162781206581D+03

 The electronic state is 1-A.
 Alpha  occ. eigenvalues --  -20.60800 -20.60785 -15.85831 -11.31182 -11.27798
 Alpha  occ. eigenvalues --  -11.27769 -11.27547 -11.26807 -11.26796 -11.21574
 Alpha  occ. eigenvalues --  -11.21573 -11.21379 -11.21278 -11.21077 -11.20686
 Alpha  occ. eigenvalues --   -1.59855  -1.39411  -1.19409  -1.08789  -1.08378
 Alpha  occ. eigenvalues --   -1.04811  -1.03454  -0.95896  -0.95613  -0.86916
 Alpha  occ. eigenvalues --   -0.86190  -0.82452  -0.79531  -0.78197  -0.77494
 Alpha  occ. eigenvalues --   -0.72059  -0.71179  -0.70506  -0.65051  -0.65012
 Alpha  occ. eigenvalues --   -0.64797  -0.62153  -0.60846  -0.59333  -0.57561
 Alpha  occ. eigenvalues --   -0.55311  -0.55149  -0.53504  -0.52887  -0.52416
 Alpha  occ. eigenvalues --   -0.52073  -0.49814  -0.48818  -0.48810  -0.47825
 Alpha  occ. eigenvalues --   -0.46571  -0.45738  -0.45669  -0.44781  -0.43722
 Alpha  occ. eigenvalues --   -0.37329  -0.36370
 Alpha virt. eigenvalues --    0.05004   0.11228   0.16484   0.21207   0.22928
 Alpha virt. eigenvalues --    0.24351   0.26498   0.27249   0.27664   0.27918
 Alpha virt. eigenvalues --    0.28508   0.30921   0.31518   0.31756   0.31964

 Mulliken charges:
               1
     1  C   -0.171009
     2  C   -0.218324
     3  C   -0.171655
     4  C    0.159095
     5  C   -0.173228
     6  C   -0.216085
     7  H    0.225933
     8  H    0.223654
     9  H    0.275967
    10  H    0.276018
    11  H    0.223913
    12  N    0.490871
    13  O   -0.460452
    14  O   -0.460225
    15  C   -0.298488
    16  C   -0.297335
    17  C   -0.487885
    18  H    0.150816
    19  H    0.152274
    20  H    0.149132
    21  H    0.144141
    22  H    0.167656
    23  H    0.155707
    24  H    0.161827
    25  C   -0.297843
    26  C   -0.299733
    27  C   -0.475606
    28  H    0.148106
    29  H    0.147654
    30  H    0.152510
    31  H    0.153050
    32  H    0.154460
    33  H    0.154450
    34  H    0.160635
 Sum of Mulliken charges =  -0.00000

 Dipole moment (field-independent basis, Debye):
    X=             -0.0763    Y=              5.1318    Z=             -0.2810  Tot=              5.1400
 Quadrupole moment (field-independent basis, Debye-Ang):
   XX=            -94.3235   YY=            -97.2467   ZZ=            -91.2737
   XY=            -16.1935   XZ=              3.3642   YZ=              0.8112

 Normal termination of Gaussian 16 at Thu May  6 17:34:48 2021.
