 Gaussian 16, Revision A.03,
 Gaussian 16:  EM64L-G16RevA.03 25-Dec-2016

 -------------
 #p 6-31g* mp2
 -------------

 ------------------------------------------------------
 Input file generated by CHIRIPA (05-May-2021 14:55:19)
 ------------------------------------------------------
 Symbolic Z-matrix:
 Charge =  0 Multiplicity = 1

                         Standard orientation:
 ---------------------------------------------------------------------
 Center     Atomic      Atomic             Coordinates (Angstroms)
 Number     Number       Type             X           Y           Z
 ---------------------------------------------------------------------
      1          6           0       -1.846438    2.035649    0.488800
      2          6           0       -1.732890    0.869466    1.252766
      3          6           0       -2.637012   -0.182911    1.080676
      4          6           0       -3.647089   -0.034674    0.131434
      5          6           0       -3.786450    1.114681   -0.645002
      6          6           0       -2.871049    2.154325   -0.455980
      7          1           0       -1.139714    2.848215    0.629060
      8          1           0       -0.938160    0.774526    1.987228
      9          1           0       -2.572251   -1.096799    1.658633
     10          1           0       -4.589171    1.180088   -1.369418
     11          1           0       -2.961658    3.058839   -1.050699
     12          7           0       -4.610212   -1.142038   -0.059712
     13          8           0       -5.491230   -0.986760   -0.902525
     14          8           0       -4.465853   -2.144301    0.636899
     15          6           0        3.771754    0.090913   -0.052887
     16          6           0        2.665393   -0.512988   -0.918483
     17          6           0        1.284125    0.057462   -0.595253
     18          1           0        3.538558   -0.087044    1.005837
     19          1           0        3.782525    1.180877   -0.191651
     20          1           0        2.657619   -1.601634   -0.779182
     21          1           0        2.901347   -0.333741   -1.975276
     22          1           0        1.268360    1.140831   -0.752301
     23          1           0        1.023245   -0.134268    0.450588
     24          1           0        0.508223   -0.388051   -1.225614
     25          6           0        5.158433   -0.469366   -0.364232
     26          6           0        6.264794    0.134535    0.501364
     27          6           0        7.646063   -0.435915    0.178133
     28          1           0        5.147663   -1.559330   -0.225468
     29          1           0        5.391629   -0.291409   -1.422955
     30          1           0        6.028839   -0.044713    1.558158
     31          1           0        6.272569    1.223181    0.362064
     32          1           0        7.906941   -0.244186   -0.867708
     33          1           0        7.661827   -1.519284    0.335183
     34          1           0        8.421964    0.009598    0.808495
 ---------------------------------------------------------------------

 SCF Done:  E(RHF) =  -669.535018631     A.U. after   15 cycles
 E2 =    -0.2091855749D+01 EUMP2 =    -0.67162687437937D+03

 The electronic state is 1-A.
 Alpha  occ. eigenvalues --  -20.60739 -20.60734 -15.85792 -11.31149 -11.27708
 Alpha  occ. eigenvalues --  -11.27701 -11.27448 -11.26733 -11.26721 -11.22020
 Alpha  occ. eigenvalues --  -11.21949 -11.21860 -11.21738 -11.21618 -11.21353
 Alpha  occ. eigenvalues --   -1.59815  -1.39368  -1.19320  -1.08847  -1.08714
 Alpha  occ. eigenvalues --   -1.04728  -1.03935  -0.96397  -0.95550  -0.87422
 Alpha  occ. eigenvalues --   -0.86117  -0.82388  -0.80005  -0.78660  -0.77435
 Alpha  occ. eigenvalues --   -0.72011  -0.71138  -0.70424  -0.65479  -0.64973
 Alpha  occ. eigenvalues --   -0.64741  -0.62091  -0.61329  -0.59751  -0.58002
 Alpha  occ. eigenvalues --   -0.55722  -0.55207  -0.53402  -0.52946  -0.52812
 Alpha  occ. eigenvalues --   -0.52612  -0.50343  -0.48770  -0.48766  -0.48319
 Alpha  occ. eigenvalues --   -0.47038  -0.46204  -0.46124  -0.44776  -0.44183
 Alpha  occ. eigenvalues --   -0.37259  -0.36283
 Alpha virt. eigenvalues --    0.05090   0.11297   0.16535   0.20750   0.22567
 Alpha virt. eigenvalues --    0.23983   0.25757   0.26487   0.27247   0.27686
 Alpha virt. eigenvalues --    0.28903   0.29799   0.31540   0.31646   0.31946

 Mulliken charges:
               1
     1  C   -0.169162
     2  C   -0.212225
     3  C   -0.172547
     4  C    0.158303
     5  C   -0.171340
     6  C   -0.219009
     7  H    0.225474
     8  H    0.223101
     9  H    0.275188
    10  H    0.275330
    11  H    0.223148
    12  N    0.488073
    13  O   -0.460589
    14  O   -0.460594
    15  C   -0.298029
    16  C   -0.301481
    17  C   -0.471552
    18  H    0.147213
    19  H    0.147474
    20  H    0.154331
    21  H    0.153425
    22  H    0.148743
    23  H    0.147310
    24  H    0.166430
    25  C   -0.298432
    26  C   -0.299752
    27  C   -0.475915
    28  H    0.150968
    29  H    0.150672
    30  H    0.151532
    31  H    0.151288
    32  H    0.155756
    33  H    0.156065
    34  H    0.160803
 Sum of Mulliken charges =  -0.00000

 Dipole moment (field-independent basis, Debye):
    X=              3.4473    Y=              3.8837    Z=              0.6362  Tot=              5.2318
 Quadrupole moment (field-independent basis, Debye-Ang):
   XX=           -120.0816   YY=            -93.6706   ZZ=            -92.0310
   XY=            -15.6012   XZ=             -0.1648   YZ=             -2.2013

 Normal termination of Gaussian 16 at Thu May  6 17:24:33 2021.
