 Gaussian 16, Revision A.03,
 Gaussian 16:  EM64L-G16RevA.03 25-Dec-2016

 -------------
 #p 6-31g* mp2
 -------------

 ------------------------------------------------------
 Input file generated by CHIRIPA (05-May-2021 14:51:12)
 ------------------------------------------------------
 Symbolic Z-matrix:
 Charge =  0 Multiplicity = 1

                         Standard orientation:
 ---------------------------------------------------------------------
 Center     Atomic      Atomic             Coordinates (Angstroms)
 Number     Number       Type             X           Y           Z
 ---------------------------------------------------------------------
      1          6           0       -4.325589   -0.040241    0.357902
      2          6           0       -5.225913    0.014505   -0.876767
      3          6           0       -6.684936    0.314399   -0.531644
      4          1           0       -4.705730   -0.806449    1.047368
      5          1           0       -4.387607    0.918518    0.891128
      6          1           0       -5.161146   -0.943584   -1.408262
      7          1           0       -4.843474    0.780538   -1.563461
      8          1           0       -6.769619    1.279345   -0.021439
      9          1           0       -7.089097   -0.454574    0.134641
     10          1           0       -7.310779    0.348948   -1.428854
     11          6           0       -2.863989   -0.339141    0.029100
     12          6           0       -1.963665   -0.393887    1.263768
     13          6           0       -0.504642   -0.693781    0.918646
     14          1           0       -2.801971   -1.297900   -0.504126
     15          1           0       -2.483848    0.427067   -0.660367
     16          1           0       -2.346104   -1.159920    1.950462
     17          1           0       -2.028432    0.564202    1.795263
     18          1           0       -0.100481    0.075192    0.252360
     19          1           0       -0.419958   -1.658727    0.408441
     20          1           0        0.121202   -0.728330    1.815856
     21          6           0        3.200580    0.819316   -0.371277
     22          6           0        3.801752    2.096969    0.215391
     23          6           0        3.001944    3.348093   -0.149008
     24          1           0        3.145754    0.915762   -1.464272
     25          1           0        2.166814    0.711525   -0.014760
     26          1           0        4.834534    2.201593   -0.141022
     27          1           0        3.855329    1.997393    1.307101
     28          1           0        1.974458    3.269744    0.220768
     29          1           0        2.959226    3.475104   -1.235583
     30          1           0        3.449294    4.249836    0.280640
     31          6           0        3.988998   -0.439933   -0.015724
     32          6           0        3.387826   -1.717586   -0.602392
     33          6           0        4.187634   -2.968711   -0.237993
     34          1           0        5.022764   -0.332142   -0.372242
     35          1           0        4.043823   -0.536380    1.077270
     36          1           0        3.334248   -1.618010   -1.694102
     37          1           0        2.355043   -1.822212   -0.245979
     38          1           0        4.230352   -3.095722    0.848582
     39          1           0        5.215120   -2.890361   -0.607770
     40          1           0        3.740284   -3.870454   -0.667642
 ---------------------------------------------------------------------

 SCF Done:  E(RHF) =  -470.733041628     A.U. after   11 cycles
 E2 =    -0.1583172674D+01 EUMP2 =    -0.47231621430220D+03

 The electronic state is 1-A.
 Alpha  occ. eigenvalues --  -11.21668 -11.21623 -11.21547 -11.21483 -11.21444
 Alpha  occ. eigenvalues --  -11.21383 -11.21306 -11.21237 -11.21167 -11.21088
 Alpha  occ. eigenvalues --  -11.21053 -11.21001  -1.08476  -1.08346  -1.03583
 Alpha  occ. eigenvalues --   -1.03461  -0.96043  -0.95910  -0.87063  -0.86931
 Alpha  occ. eigenvalues --   -0.79664  -0.79521  -0.78307  -0.78129  -0.65122
 Alpha  occ. eigenvalues --   -0.64971  -0.61021  -0.60827  -0.59402  -0.59282
 Alpha  occ. eigenvalues --   -0.57653  -0.57525  -0.55423  -0.55123  -0.52756
 Alpha  occ. eigenvalues --   -0.52616  -0.52468  -0.52335  -0.50093  -0.49767
 Alpha  occ. eigenvalues --   -0.48007  -0.47841  -0.46777  -0.46468  -0.45948
 Alpha  occ. eigenvalues --   -0.45747  -0.45684  -0.45375  -0.43820  -0.43705
 Alpha virt. eigenvalues --    0.21592   0.22937   0.24045   0.24307   0.25395
 Alpha virt. eigenvalues --    0.26554   0.27104   0.27558   0.27943   0.29476
 Alpha virt. eigenvalues --    0.29796   0.31542   0.31857   0.31993   0.32203

 Mulliken charges:
               1
     1  C   -0.298338
     2  C   -0.299698
     3  C   -0.475738
     4  H    0.149718
     5  H    0.149605
     6  H    0.151999
     7  H    0.152084
     8  H    0.155234
     9  H    0.155196
    10  H    0.160362
    11  C   -0.298696
    12  C   -0.300473
    13  C   -0.480555
    14  H    0.149754
    15  H    0.150118
    16  H    0.152201
    17  H    0.152037
    18  H    0.159802
    19  H    0.156288
    20  H    0.159944
    21  C   -0.307377
    22  C   -0.298908
    23  C   -0.475648
    24  H    0.148666
    25  H    0.159596
    26  H    0.151700
    27  H    0.151621
    28  H    0.154303
    29  H    0.155018
    30  H    0.160164
    31  C   -0.297043
    32  C   -0.305338
    33  C   -0.475446
    34  H    0.149001
    35  H    0.148976
    36  H    0.151196
    37  H    0.159248
    38  H    0.154866
    39  H    0.154853
    40  H    0.159706
 Sum of Mulliken charges =  -0.00000

 Dipole moment (field-independent basis, Debye):
    X=             -0.0644    Y=             -0.0102    Z=              0.0054  Tot=              0.0654
 Quadrupole moment (field-independent basis, Debye-Ang):
   XX=            -86.0586   YY=            -84.8753   ZZ=            -84.1352
   XY=              0.9645   XZ=             -0.4440   YZ=             -0.0432

 Normal termination of Gaussian 16 at Thu May  6 03:56:01 2021.
