 Gaussian 16, Revision A.03,
 Gaussian 16:  EM64L-G16RevA.03 25-Dec-2016

 -------------
 #p 6-31g* mp2
 -------------

 ------------------------------------------------------
 Input file generated by CHIRIPA (05-May-2021 14:55:25)
 ------------------------------------------------------
 Symbolic Z-matrix:
 Charge =  0 Multiplicity = 1

                         Standard orientation:
 ---------------------------------------------------------------------
 Center     Atomic      Atomic             Coordinates (Angstroms)
 Number     Number       Type             X           Y           Z
 ---------------------------------------------------------------------
      1          6           0        1.543450    1.799552    0.408921
      2          6           0        2.719938    2.266387   -0.186445
      3          6           0        3.818149    1.416930   -0.350471
      4          6           0        3.704740    0.100675    0.094388
      5          6           0        2.546226   -0.394078    0.691342
      6          6           0        1.460495    0.473148    0.845146
      7          1           0        0.695181    2.466332    0.532370
      8          1           0        2.787207    3.296002   -0.526170
      9          1           0        4.740992    1.752190   -0.808053
     10          1           0        2.509145   -1.425589    1.020019
     11          1           0        0.548081    0.107857    1.307865
     12          7           0        4.860761   -0.808012   -0.073848
     13          8           0        4.735539   -1.963296    0.326498
     14          8           0        5.870182   -0.347752   -0.602871
     15          6           0       -3.928527   -0.828170   -0.121034
     16          6           0       -2.573497   -0.248180   -0.527840
     17          6           0       -1.443853   -1.275782   -0.452123
     18          1           0       -3.858792   -1.223852    0.901471
     19          1           0       -4.164161   -1.682054   -0.771229
     20          1           0       -2.341127    0.605218    0.122031
     21          1           0       -2.646519    0.146341   -1.549425
     22          1           0       -1.649256   -2.123530   -1.113737
     23          1           0       -1.342130   -1.662046    0.567218
     24          1           0       -0.484225   -0.839944   -0.747110
     25          6           0       -5.067861    0.187049   -0.191581
     26          6           0       -6.422891   -0.392941    0.215224
     27          6           0       -7.552535    0.634661    0.139506
     28          1           0       -4.832227    1.040934    0.458612
     29          1           0       -5.137596    0.582732   -1.214087
     30          1           0       -6.349868   -0.787461    1.236810
     31          1           0       -6.655260   -1.246339   -0.434647
     32          1           0       -7.654258    1.020926   -0.879833
     33          1           0       -7.347131    1.482410    0.801120
     34          1           0       -8.512163    0.198823    0.434494
 ---------------------------------------------------------------------

 SCF Done:  E(RHF) =  -669.534640011     A.U. after   15 cycles
 E2 =    -0.2092146041D+01 EUMP2 =    -0.67162678605177D+03

 The electronic state is 1-A.
 Alpha  occ. eigenvalues --  -20.60752 -20.60747 -15.85805 -11.31181 -11.27737
 Alpha  occ. eigenvalues --  -11.27724 -11.27475 -11.26768 -11.26700 -11.22445
 Alpha  occ. eigenvalues --  -11.22068 -11.22035 -11.21932 -11.21806 -11.21477
 Alpha  occ. eigenvalues --   -1.59827  -1.39380  -1.19353  -1.09061  -1.08744
 Alpha  occ. eigenvalues --   -1.04765  -1.04156  -0.96603  -0.95576  -0.87633
 Alpha  occ. eigenvalues --   -0.86140  -0.82409  -0.80234  -0.78855  -0.77454
 Alpha  occ. eigenvalues --   -0.72023  -0.71150  -0.70450  -0.65720  -0.64998
 Alpha  occ. eigenvalues --   -0.64776  -0.62189  -0.61503  -0.59956  -0.58207
 Alpha  occ. eigenvalues --   -0.55907  -0.55238  -0.53545  -0.53108  -0.52902
 Alpha  occ. eigenvalues --   -0.52626  -0.50529  -0.48780  -0.48777  -0.48537
 Alpha  occ. eigenvalues --   -0.47281  -0.46396  -0.46317  -0.44784  -0.44403
 Alpha  occ. eigenvalues --   -0.37323  -0.36303
 Alpha virt. eigenvalues --    0.05070   0.11238   0.16528   0.19980   0.22607
 Alpha virt. eigenvalues --    0.23921   0.25799   0.26239   0.26862   0.28254
 Alpha virt. eigenvalues --    0.28736   0.30108   0.31010   0.31393   0.32052

 Mulliken charges:
               1
     1  C   -0.173471
     2  C   -0.218205
     3  C   -0.171302
     4  C    0.158950
     5  C   -0.173142
     6  C   -0.219863
     7  H    0.225911
     8  H    0.223415
     9  H    0.275538
    10  H    0.276125
    11  H    0.231859
    12  N    0.488063
    13  O   -0.460193
    14  O   -0.460492
    15  C   -0.298215
    16  C   -0.299483
    17  C   -0.486491
    18  H    0.149568
    19  H    0.152820
    20  H    0.142378
    21  H    0.155609
    22  H    0.161758
    23  H    0.148299
    24  H    0.168435
    25  C   -0.298426
    26  C   -0.300102
    27  C   -0.475981
    28  H    0.147749
    29  H    0.150651
    30  H    0.152373
    31  H    0.153410
    32  H    0.155772
    33  H    0.154849
    34  H    0.161834
 Sum of Mulliken charges =  -0.00000

 Dipole moment (field-independent basis, Debye):
    X=             -4.1816    Y=              3.1682    Z=              0.5316  Tot=              5.2731
 Quadrupole moment (field-independent basis, Debye-Ang):
   XX=           -124.4278   YY=            -91.9636   ZZ=            -93.4474
   XY=             14.4877   XZ=              0.8866   YZ=             -1.1383

 Normal termination of Gaussian 16 at Thu May  6 06:25:22 2021.
