 Gaussian 16, Revision A.03,
 Gaussian 16:  EM64L-G16RevA.03 25-Dec-2016

 -------------
 #p 6-31g* mp2
 -------------

 ------------------------------------------------------
 Input file generated by CHIRIPA (05-May-2021 14:51:09)
 ------------------------------------------------------
 Symbolic Z-matrix:
 Charge =  0 Multiplicity = 1

                         Standard orientation:
 ---------------------------------------------------------------------
 Center     Atomic      Atomic             Coordinates (Angstroms)
 Number     Number       Type             X           Y           Z
 ---------------------------------------------------------------------
      1          6           0       -5.060480    0.048007   -0.242283
      2          6           0       -6.252230   -0.908982   -0.198838
      3          6           0       -7.421461   -0.436702   -1.063502
      4          1           0       -5.385431    1.043479    0.089963
      5          1           0       -4.726416    0.159494   -1.283132
      6          1           0       -6.583074   -1.019710    0.841786
      7          1           0       -5.924359   -1.902338   -0.531044
      8          1           0       -7.113803   -0.343971   -2.110091
      9          1           0       -7.776260    0.543673   -0.729461
     10          1           0       -8.262539   -1.135528   -1.017776
     11          6           0       -3.883683   -0.410507    0.617160
     12          6           0       -2.691933    0.546482    0.573715
     13          6           0       -1.522702    0.074202    1.438379
     14          1           0       -4.217747   -0.521994    1.658009
     15          1           0       -3.558732   -1.405979    0.284914
     16          1           0       -3.019803    1.539838    0.905921
     17          1           0       -2.361089    0.657210   -0.466909
     18          1           0       -1.167903   -0.906173    1.104338
     19          1           0       -1.830360   -0.018529    2.484968
     20          1           0       -0.681624    0.773028    1.392652
     21          6           0        3.723447    0.265090   -0.061149
     22          6           0        3.202283    1.659839   -0.409070
     23          6           0        1.702937    1.812035   -0.151015
     24          1           0        3.171349   -0.482408   -0.647135
     25          1           0        3.509092    0.054274    0.995735
     26          1           0        3.418791    1.868510   -1.464625
     27          1           0        3.755818    2.404116    0.177672
     28          1           0        1.473186    1.630218    0.903859
     29          1           0        1.134244    1.091569   -0.747770
     30          1           0        1.351532    2.816573   -0.406512
     31          6           0        5.220716    0.097411   -0.313728
     32          6           0        5.741880   -1.297338    0.034193
     33          6           0        7.241226   -1.449536   -0.223862
     34          1           0        5.435070    0.308226   -1.370613
     35          1           0        5.772815    0.844908    0.272259
     36          1           0        5.188345   -2.041616   -0.552549
     37          1           0        5.525372   -1.506010    1.089748
     38          1           0        7.809920   -0.729069    0.372892
     39          1           0        7.470977   -1.267718   -1.278735
     40          1           0        7.592631   -2.454072    0.031636
 ---------------------------------------------------------------------

 SCF Done:  E(RHF) =  -470.732964684     A.U. after   11 cycles
 E2 =    -0.1582458351D+01 EUMP2 =    -0.47231542303511D+03

 The electronic state is 1-A.
 Alpha  occ. eigenvalues --  -11.21613 -11.21601 -11.21569 -11.21515 -11.21406
 Alpha  occ. eigenvalues --  -11.21353 -11.21347 -11.21291 -11.21090 -11.21071
 Alpha  occ. eigenvalues --  -11.21046 -11.20898  -1.08436  -1.08371  -1.03549
 Alpha  occ. eigenvalues --   -1.03453  -0.96025  -0.95880  -0.87070  -0.86875
 Alpha  occ. eigenvalues --   -0.79639  -0.79498  -0.78246  -0.78186  -0.65066
 Alpha  occ. eigenvalues --   -0.65003  -0.60948  -0.60857  -0.59383  -0.59300
 Alpha  occ. eigenvalues --   -0.57733  -0.57398  -0.55293  -0.55191  -0.52894
 Alpha  occ. eigenvalues --   -0.52661  -0.52403  -0.52081  -0.49932  -0.49852
 Alpha  occ. eigenvalues --   -0.48007  -0.47728  -0.46634  -0.46563  -0.45784
 Alpha  occ. eigenvalues --   -0.45731  -0.45707  -0.45655  -0.43796  -0.43674
 Alpha virt. eigenvalues --    0.22322   0.22976   0.23576   0.24770   0.26321
 Alpha virt. eigenvalues --    0.26593   0.26985   0.27532   0.27693   0.29028
 Alpha virt. eigenvalues --    0.29854   0.31323   0.31621   0.31947   0.32092

 Mulliken charges:
               1
     1  C   -0.298156
     2  C   -0.299579
     3  C   -0.475660
     4  H    0.149548
     5  H    0.149329
     6  H    0.151865
     7  H    0.151824
     8  H    0.155094
     9  H    0.155133
    10  H    0.160126
    11  C   -0.298290
    12  C   -0.299078
    13  C   -0.482793
    14  H    0.149363
    15  H    0.149338
    16  H    0.151554
    17  H    0.151718
    18  H    0.154061
    19  H    0.153661
    20  H    0.169987
    21  C   -0.298261
    22  C   -0.299937
    23  C   -0.478528
    24  H    0.149649
    25  H    0.149872
    26  H    0.151889
    27  H    0.151954
    28  H    0.156919
    29  H    0.156924
    30  H    0.160443
    31  C   -0.298303
    32  C   -0.299649
    33  C   -0.475710
    34  H    0.149471
    35  H    0.149652
    36  H    0.151910
    37  H    0.152055
    38  H    0.155187
    39  H    0.155149
    40  H    0.160268
 Sum of Mulliken charges =  -0.00000

 Dipole moment (field-independent basis, Debye):
    X=              0.0457    Y=              0.0206    Z=             -0.0046  Tot=              0.0503
 Quadrupole moment (field-independent basis, Debye-Ang):
   XX=            -86.7979   YY=            -84.5475   ZZ=            -83.5983
   XY=              0.3116   XZ=             -0.4739   YZ=              0.8424

 Normal termination of Gaussian 16 at Wed May  5 21:22:34 2021.
