 Gaussian 16, Revision A.03,
 Gaussian 16:  EM64L-G16RevA.03 25-Dec-2016

 -------------
 #p 6-31g* mp2
 -------------

 ------------------------------------------------------
 Input file generated by CHIRIPA (05-May-2021 14:51:13)
 ------------------------------------------------------
 Symbolic Z-matrix:
 Charge =  0 Multiplicity = 1

                         Standard orientation:
 ---------------------------------------------------------------------
 Center     Atomic      Atomic             Coordinates (Angstroms)
 Number     Number       Type             X           Y           Z
 ---------------------------------------------------------------------
      1          6           0        2.984611   -0.217964   -0.395875
      2          6           0        2.515331   -1.511644   -1.062323
      3          6           0        3.519426   -2.654292   -0.907591
      4          1           0        3.950282    0.079696   -0.826946
      5          1           0        3.163958   -0.407703    0.671472
      6          1           0        2.335596   -1.319183   -2.127814
      7          1           0        1.550573   -1.806155   -0.629750
      8          1           0        3.691871   -2.874921    0.150798
      9          1           0        4.481355   -2.385182   -1.355778
     10          1           0        3.163914   -3.569408   -1.391362
     11          6           0        1.991478    0.933587   -0.541969
     12          6           0        2.460758    2.227267    0.124479
     13          6           0        1.456664    3.369916   -0.030253
     14          1           0        1.812131    1.123327   -1.609316
     15          1           0        1.025807    0.635927   -0.110897
     16          1           0        3.425517    2.521779   -0.308094
     17          1           0        2.640493    2.034806    1.189970
     18          1           0        0.494734    3.100805    0.417934
     19          1           0        1.284218    3.590545   -1.088642
     20          1           0        1.812175    4.285032    0.453519
     21          6           0       -2.998203   -0.627428   -0.031556
     22          6           0       -3.787497    0.471214   -0.744285
     23          6           0       -4.804123   -0.083894   -1.742345
     24          1           0       -2.480785   -1.242865   -0.780197
     25          1           0       -3.699426   -1.293483    0.490031
     26          1           0       -3.084906    1.135801   -1.263231
     27          1           0       -4.302942    1.084223    0.006150
     28          1           0       -5.527566   -0.730889   -1.235759
     29          1           0       -4.302609   -0.679019   -2.512352
     30          1           0       -5.357145    0.718586   -2.240391
     31          6           0       -1.977887   -0.088196    0.969400
     32          6           0       -1.188592   -1.186837    1.682129
     33          6           0       -0.171967   -0.631729    2.680188
     34          1           0       -1.276663    0.577860    0.447814
     35          1           0       -2.495303    0.527241    1.718041
     36          1           0       -0.673148   -1.799847    0.931694
     37          1           0       -1.891184   -1.851425    2.201074
     38          1           0       -0.673480   -0.036605    3.450196
     39          1           0        0.551477    0.015265    2.173603
     40          1           0        0.381056   -1.434210    3.178235
 ---------------------------------------------------------------------

 SCF Done:  E(RHF) =  -470.732606320     A.U. after   11 cycles
 E2 =    -0.1585142640D+01 EUMP2 =    -0.47231774895969D+03

 The electronic state is 1-A.
 Alpha  occ. eigenvalues --  -11.21679 -11.21640 -11.21638 -11.21607 -11.21440
 Alpha  occ. eigenvalues --  -11.21428 -11.21378 -11.21367 -11.21141 -11.21097
 Alpha  occ. eigenvalues --  -11.21094 -11.21073  -1.08530  -1.08422  -1.03582
 Alpha  occ. eigenvalues --   -1.03559  -0.96040  -0.95994  -0.87044  -0.87025
 Alpha  occ. eigenvalues --   -0.79693  -0.79579  -0.78383  -0.78207  -0.65524
 Alpha  occ. eigenvalues --   -0.64774  -0.61003  -0.60926  -0.59422  -0.59346
 Alpha  occ. eigenvalues --   -0.57646  -0.57608  -0.55432  -0.55178  -0.52717
 Alpha  occ. eigenvalues --   -0.52702  -0.52450  -0.52437  -0.50028  -0.49917
 Alpha  occ. eigenvalues --   -0.48021  -0.47956  -0.46932  -0.46469  -0.46236
 Alpha  occ. eigenvalues --   -0.45778  -0.45729  -0.45175  -0.43825  -0.43814
 Alpha virt. eigenvalues --    0.19150   0.22725   0.23084   0.24415   0.25672
 Alpha virt. eigenvalues --    0.26315   0.26788   0.28007   0.28739   0.29746
 Alpha virt. eigenvalues --    0.30340   0.31566   0.31665   0.31788   0.32310

 Mulliken charges:
               1
     1  C   -0.298245
     2  C   -0.304151
     3  C   -0.475582
     4  H    0.150044
     5  H    0.150639
     6  H    0.151859
     7  H    0.155318
     8  H    0.155540
     9  H    0.155341
    10  H    0.160218
    11  C   -0.309929
    12  C   -0.300503
    13  C   -0.477657
    14  H    0.149833
    15  H    0.159609
    16  H    0.152489
    17  H    0.152607
    18  H    0.156710
    19  H    0.155092
    20  H    0.160712
    21  C   -0.297864
    22  C   -0.299959
    23  C   -0.475770
    24  H    0.149950
    25  H    0.149654
    26  H    0.152612
    27  H    0.151916
    28  H    0.155121
    29  H    0.155312
    30  H    0.160351
    31  C   -0.306180
    32  C   -0.303794
    33  C   -0.481307
    34  H    0.155698
    35  H    0.150065
    36  H    0.155004
    37  H    0.153028
    38  H    0.155786
    39  H    0.159987
    40  H    0.160446
 Sum of Mulliken charges =  -0.00000

 Dipole moment (field-independent basis, Debye):
    X=             -0.0050    Y=              0.0034    Z=              0.0021  Tot=              0.0064
 Quadrupole moment (field-independent basis, Debye-Ang):
   XX=            -85.0114   YY=            -85.5983   ZZ=            -84.0557
   XY=              0.5362   XZ=             -1.5159   YZ=             -0.4270

 Normal termination of Gaussian 16 at Wed May  5 21:35:14 2021.
