 Gaussian 16, Revision A.03,
 Gaussian 16:  EM64L-G16RevA.03 25-Dec-2016

 -------------
 #p 6-31g* mp2
 -------------

 ------------------------------------------------------
 Input file generated by CHIRIPA (05-May-2021 14:53:16)
 ------------------------------------------------------
 Symbolic Z-matrix:
 Charge =  0 Multiplicity = 1

                         Standard orientation:
 ---------------------------------------------------------------------
 Center     Atomic      Atomic             Coordinates (Angstroms)
 Number     Number       Type             X           Y           Z
 ---------------------------------------------------------------------
      1          6           0        3.952609   -0.533829    0.232438
      2          6           0        2.782221   -0.186780    1.153163
      3          6           0        1.774269   -1.329000    1.284158
      4          1           0        3.563895   -0.797434   -0.760717
      5          1           0        4.459836   -1.429347    0.617360
      6          1           0        2.278197    0.708625    0.767385
      7          1           0        3.173780    0.076215    2.144189
      8          1           0        2.256690   -2.223772    1.690670
      9          1           0        1.356018   -1.587769    0.306044
     10          1           0        0.945938   -1.059451    1.946783
     11          6           0        4.968757    0.598106    0.091390
     12          6           0        6.139144    0.251057   -0.829335
     13          6           0        7.147097    1.393277   -0.960329
     14          1           0        4.461530    1.493624   -0.293532
     15          1           0        5.357471    0.861711    1.084546
     16          1           0        5.747585   -0.011938   -1.820360
     17          1           0        6.643168   -0.644348   -0.443557
     18          1           0        7.565347    1.652046    0.017784
     19          1           0        6.664676    2.288050   -1.366842
     20          1           0        7.975428    1.123728   -1.622954
     21          6           0       -5.017755    1.967738    0.085331
     22          6           0       -5.176049    1.072748   -0.977899
     23          6           0       -4.332505   -0.034848   -1.105222
     24          6           0       -3.336719   -0.217769   -0.146973
     25          6           0       -3.153808    0.656125    0.923607
     26          6           0       -4.008918    1.756941    1.031023
     27          1           0       -5.677533    2.825511    0.176507
     28          1           0       -5.958661    1.233949   -1.713819
     29          1           0       -4.432817   -0.743430   -1.918405
     30          1           0       -2.364556    0.469021    1.641585
     31          1           0       -3.883655    2.450354    1.857783
     32          7           0       -2.437574   -1.386743   -0.271228
     33          8           0       -1.567973   -1.525599    0.586180
     34          8           0       -2.619450   -2.141994   -1.223675
 ---------------------------------------------------------------------

 SCF Done:  E(RHF) =  -669.535397218     A.U. after   15 cycles
 E2 =    -0.2091119398D+01 EUMP2 =    -0.67162651661655D+03

 The electronic state is 1-A.
 Alpha  occ. eigenvalues --  -20.60877 -20.60857 -15.85902 -11.31261 -11.27830
 Alpha  occ. eigenvalues --  -11.27825 -11.27570 -11.26842 -11.26833 -11.21161
 Alpha  occ. eigenvalues --  -11.20853 -11.20732 -11.20707 -11.20633 -11.19581
 Alpha  occ. eigenvalues --   -1.59939  -1.39494  -1.19433  -1.08831  -1.07774
 Alpha  occ. eigenvalues --   -1.04834  -1.02785  -0.95677  -0.95185  -0.86241
 Alpha  occ. eigenvalues --   -0.86188  -0.82501  -0.78871  -0.77596  -0.77520
 Alpha  occ. eigenvalues --   -0.72132  -0.71258  -0.70542  -0.65089  -0.64837
 Alpha  occ. eigenvalues --   -0.64413  -0.62182  -0.60185  -0.58616  -0.56811
 Alpha  occ. eigenvalues --   -0.55337  -0.54479  -0.53164  -0.52926  -0.51843
 Alpha  occ. eigenvalues --   -0.51620  -0.49206  -0.48885  -0.48812  -0.47160
 Alpha  occ. eigenvalues --   -0.45943  -0.45113  -0.45077  -0.44787  -0.43014
 Alpha  occ. eigenvalues --   -0.37412  -0.36437
 Alpha virt. eigenvalues --    0.04971   0.11217   0.16455   0.21251   0.23462
 Alpha virt. eigenvalues --    0.24922   0.27077   0.27267   0.27779   0.28144
 Alpha virt. eigenvalues --    0.29104   0.30725   0.31833   0.32168   0.32405

 Mulliken charges:
               1
     1  C   -0.297649
     2  C   -0.301024
     3  C   -0.471205
     4  H    0.150619
     5  H    0.148922
     6  H    0.146143
     7  H    0.146105
     8  H    0.148975
     9  H    0.168316
    10  H    0.163221
    11  C   -0.297329
    12  C   -0.299196
    13  C   -0.475258
    14  H    0.147274
    15  H    0.147820
    16  H    0.151974
    17  H    0.151756
    18  H    0.154240
    19  H    0.153963
    20  H    0.159153
    21  C   -0.170711
    22  C   -0.218552
    23  C   -0.170863
    24  C    0.157878
    25  C   -0.170687
    26  C   -0.218564
    27  H    0.225868
    28  H    0.223685
    29  H    0.275769
    30  H    0.275498
    31  H    0.223769
    32  N    0.491523
    33  O   -0.461322
    34  O   -0.460109
 Sum of Mulliken charges =  -0.00000

 Dipole moment (field-independent basis, Debye):
    X=             -3.4405    Y=              4.0180    Z=              0.4009  Tot=              5.3049
 Quadrupole moment (field-independent basis, Debye-Ang):
   XX=            -74.4041   YY=            -97.1888   ZZ=            -91.2583
   XY=            -13.6102   XZ=              1.7779   YZ=              0.5512

 Normal termination of Gaussian 16 at Thu May  6 17:12:45 2021.
