 Gaussian 16, Revision A.03,
 Gaussian 16:  EM64L-G16RevA.03 25-Dec-2016

 -------------
 #p 6-31g* mp2
 -------------

 ------------------------------------------------------
 Input file generated by CHIRIPA (05-May-2021 14:55:20)
 ------------------------------------------------------
 Symbolic Z-matrix:
 Charge =  0 Multiplicity = 1

                         Standard orientation:
 ---------------------------------------------------------------------
 Center     Atomic      Atomic             Coordinates (Angstroms)
 Number     Number       Type             X           Y           Z
 ---------------------------------------------------------------------
      1          6           0       -1.485463    1.800176    1.399952
      2          6           0       -0.956631    0.517803    1.579884
      3          6           0       -1.558595   -0.589723    0.975259
      4          6           0       -2.693269   -0.377556    0.193729
      5          6           0       -3.243902    0.887667   -0.004525
      6          6           0       -2.625401    1.980697    0.609715
      7          1           0       -1.011420    2.654899    1.873374
      8          1           0       -0.071439    0.374620    2.193056
      9          1           0       -1.170141   -1.593468    1.097807
     10          1           0       -4.127351    0.998911   -0.621420
     11          1           0       -3.038296    2.975455    0.468221
     12          7           0       -3.339295   -1.542372   -0.451450
     13          8           0       -4.338061   -1.328868   -1.135205
     14          8           0       -2.834652   -2.646802   -0.261171
     15          6           0        2.638612    0.396584   -0.709500
     16          6           0        2.317555    1.891257   -0.738807
     17          6           0        0.968985    2.193505   -1.392872
     18          1           0        2.631910    0.006393   -1.736462
     19          1           0        1.841234   -0.132094   -0.169052
     20          1           0        3.116000    2.417130   -1.277842
     21          1           0        2.325210    2.277975    0.288328
     22          1           0        0.158150    1.694840   -0.852056
     23          1           0        0.953433    1.834786   -2.427125
     24          1           0        0.759560    3.267699   -1.403172
     25          6           0        3.983587    0.078503   -0.058658
     26          6           0        4.304645   -1.416170   -0.029352
     27          6           0        5.653215   -1.718418    0.624713
     28          1           0        4.780964    0.607180   -0.599106
     29          1           0        3.990288    0.468693    0.968304
     30          1           0        4.296990   -1.802889   -1.056487
     31          1           0        3.506200   -1.942043    0.509683
     32          1           0        5.668767   -1.359700    1.658966
     33          1           0        6.464050   -1.219754    0.083897
     34          1           0        5.862639   -2.792613    0.635013
 ---------------------------------------------------------------------

 SCF Done:  E(RHF) =  -669.534444135     A.U. after   15 cycles
 E2 =    -0.2093777736D+01 EUMP2 =    -0.67162822187139D+03

 The electronic state is 1-A.
 Alpha  occ. eigenvalues --  -20.60834 -20.60829 -15.85891 -11.31303 -11.27893
 Alpha  occ. eigenvalues --  -11.27883 -11.27597 -11.26882 -11.26867 -11.22029
 Alpha  occ. eigenvalues --  -11.21925 -11.21793 -11.21733 -11.21348 -11.21205
 Alpha  occ. eigenvalues --   -1.59909  -1.39461  -1.19497  -1.08897  -1.08785
 Alpha  occ. eigenvalues --   -1.04895  -1.03859  -0.96301  -0.95691  -0.87311
 Alpha  occ. eigenvalues --   -0.86282  -0.82521  -0.79930  -0.78619  -0.77562
 Alpha  occ. eigenvalues --   -0.72107  -0.71233  -0.70580  -0.65479  -0.65133
 Alpha  occ. eigenvalues --   -0.64869  -0.62232  -0.61304  -0.59672  -0.57923
 Alpha  occ. eigenvalues --   -0.55711  -0.55373  -0.53370  -0.52980  -0.52970
 Alpha  occ. eigenvalues --   -0.52572  -0.50170  -0.48870  -0.48859  -0.48212
 Alpha  occ. eigenvalues --   -0.46951  -0.46145  -0.46089  -0.44857  -0.44132
 Alpha  occ. eigenvalues --   -0.37369  -0.36487
 Alpha virt. eigenvalues --    0.04939   0.11099   0.16329   0.20326   0.22890
 Alpha virt. eigenvalues --    0.24139   0.25699   0.26637   0.27499   0.28243
 Alpha virt. eigenvalues --    0.28658   0.30904   0.31205   0.31504   0.31761

 Mulliken charges:
               1
     1  C   -0.172720
     2  C   -0.219093
     3  C   -0.170639
     4  C    0.159072
     5  C   -0.170381
     6  C   -0.216160
     7  H    0.227015
     8  H    0.224505
     9  H    0.276366
    10  H    0.276450
    11  H    0.224504
    12  N    0.488160
    13  O   -0.460016
    14  O   -0.460007
    15  C   -0.299547
    16  C   -0.297768
    17  C   -0.485135
    18  H    0.153708
    19  H    0.145599
    20  H    0.153538
    21  H    0.142606
    22  H    0.169090
    23  H    0.156982
    24  H    0.154079
    25  C   -0.298221
    26  C   -0.299292
    27  C   -0.475826
    28  H    0.151222
    29  H    0.145426
    30  H    0.154874
    31  H    0.149654
    32  H    0.153791
    33  H    0.156081
    34  H    0.162082
 Sum of Mulliken charges =  -0.00000

 Dipole moment (field-independent basis, Debye):
    X=              2.1742    Y=              4.0493    Z=              2.2443  Tot=              5.1148
 Quadrupole moment (field-independent basis, Debye-Ang):
   XX=           -105.4917   YY=            -96.7523   ZZ=            -93.0760
   XY=            -14.3813   XZ=             -5.1577   YZ=             -1.1886

 Normal termination of Gaussian 16 at Wed May  5 18:54:54 2021.
