 Gaussian 16, Revision A.03,
 Gaussian 16:  EM64L-G16RevA.03 25-Dec-2016

 -------------
 #p 6-31g* mp2
 -------------

 ------------------------------------------------------
 Input file generated by CHIRIPA (05-May-2021 14:53:13)
 ------------------------------------------------------
 Symbolic Z-matrix:
 Charge =  0 Multiplicity = 1

                         Standard orientation:
 ---------------------------------------------------------------------
 Center     Atomic      Atomic             Coordinates (Angstroms)
 Number     Number       Type             X           Y           Z
 ---------------------------------------------------------------------
      1          6           0       -4.100196   -0.159718    0.132715
      2          6           0       -5.385778   -0.540500   -0.602315
      3          6           0       -5.987186   -1.853437   -0.100020
      4          1           0       -3.366024   -0.968809    0.017357
      5          1           0       -4.310904   -0.079836    1.208176
      6          1           0       -5.173016   -0.618287   -1.676232
      7          1           0       -6.116909    0.269675   -0.485355
      8          1           0       -6.227494   -1.784217    0.965842
      9          1           0       -5.278237   -2.677224   -0.231801
     10          1           0       -6.905441   -2.106576   -0.639081
     11          6           0       -3.487031    1.150515   -0.358247
     12          6           0       -2.201449    1.531298    0.376784
     13          6           0       -1.600041    2.844234   -0.125512
     14          1           0       -3.276324    1.070633   -1.433707
     15          1           0       -4.221204    1.959606   -0.242888
     16          1           0       -1.470319    0.721122    0.259823
     17          1           0       -2.414212    1.609084    1.450701
     18          1           0       -2.308990    3.668022    0.006270
     19          1           0       -1.359734    2.775014   -1.191374
     20          1           0       -0.681786    3.097373    0.413550
     21          6           0        0.677227   -0.883865    1.031942
     22          6           0        0.918895   -1.041373   -0.336748
     23          6           0        2.181938   -0.769011   -0.870685
     24          6           0        3.184815   -0.338998   -0.003149
     25          6           0        2.975131   -0.172458    1.364910
     26          6           0        1.704305   -0.450674    1.876913
     27          1           0       -0.306959   -1.097715    1.438197
     28          1           0        0.123141   -1.377648   -0.995337
     29          1           0        2.396468   -0.882469   -1.926394
     30          1           0        3.788286    0.164303    1.996408
     31          1           0        1.519499   -0.327462    2.940261
     32          7           0        4.526061   -0.047562   -0.556793
     33          8           0        5.392789    0.329975    0.228627
     34          8           0        4.685206   -0.202191   -1.765677
 ---------------------------------------------------------------------

 SCF Done:  E(RHF) =  -669.534668618     A.U. after   15 cycles
 E2 =    -0.2092745022D+01 EUMP2 =    -0.67162741363991D+03

 The electronic state is 1-A.
 Alpha  occ. eigenvalues --  -20.60781 -20.60776 -15.85837 -11.31212 -11.27799
 Alpha  occ. eigenvalues --  -11.27796 -11.27514 -11.26808 -11.26786 -11.22312
 Alpha  occ. eigenvalues --  -11.22287 -11.22249 -11.22093 -11.21708 -11.21579
 Alpha  occ. eigenvalues --   -1.59857  -1.39410  -1.19400  -1.09191  -1.08789
 Alpha  occ. eigenvalues --   -1.04805  -1.04200  -0.96638  -0.95624  -0.87651
 Alpha  occ. eigenvalues --   -0.86204  -0.82457  -0.80287  -0.79034  -0.77494
 Alpha  occ. eigenvalues --   -0.72055  -0.71181  -0.70519  -0.65843  -0.65048
 Alpha  occ. eigenvalues --   -0.64799  -0.62156  -0.61599  -0.60013  -0.58263
 Alpha  occ. eigenvalues --   -0.55935  -0.55311  -0.53318  -0.53133  -0.53049
 Alpha  occ. eigenvalues --   -0.52894  -0.50578  -0.48815  -0.48809  -0.48582
 Alpha  occ. eigenvalues --   -0.47326  -0.46554  -0.46487  -0.44814  -0.44474
 Alpha  occ. eigenvalues --   -0.37290  -0.36404
 Alpha virt. eigenvalues --    0.05022   0.11135   0.16470   0.19742   0.22661
 Alpha virt. eigenvalues --    0.23807   0.25200   0.26088   0.27283   0.27578
 Alpha virt. eigenvalues --    0.29980   0.30626   0.30913   0.31437   0.31854

 Mulliken charges:
               1
     1  C   -0.297582
     2  C   -0.299928
     3  C   -0.476037
     4  H    0.139594
     5  H    0.150054
     6  H    0.152950
     7  H    0.154860
     8  H    0.155772
     9  H    0.153675
    10  H    0.163003
    11  C   -0.298121
    12  C   -0.306720
    13  C   -0.474766
    14  H    0.149940
    15  H    0.152959
    16  H    0.151162
    17  H    0.149307
    18  H    0.156742
    19  H    0.156577
    20  H    0.163016
    21  C   -0.169197
    22  C   -0.218350
    23  C   -0.170946
    24  C    0.158265
    25  C   -0.170781
    26  C   -0.220720
    27  H    0.229165
    28  H    0.223320
    29  H    0.275749
    30  H    0.275813
    31  H    0.223872
    32  N    0.488130
    33  O   -0.460373
    34  O   -0.460405
 Sum of Mulliken charges =  -0.00000

 Dipole moment (field-independent basis, Debye):
    X=             -4.7896    Y=             -0.9598    Z=              1.9437  Tot=              5.2573
 Quadrupole moment (field-independent basis, Debye-Ang):
   XX=           -124.4623   YY=            -94.9996   ZZ=            -90.2302
   XY=             -2.1219   XZ=              7.8718   YZ=              1.1910

 Normal termination of Gaussian 16 at Thu May  6 02:34:01 2021.
