 Gaussian 16, Revision A.03,
 Gaussian 16:  EM64L-G16RevA.03 25-Dec-2016

 -------------
 #p 6-31g* mp2
 -------------

 ------------------------------------------------------
 Input file generated by CHIRIPA (05-May-2021 14:51:13)
 ------------------------------------------------------
 Symbolic Z-matrix:
 Charge =  0 Multiplicity = 1

                         Standard orientation:
 ---------------------------------------------------------------------
 Center     Atomic      Atomic             Coordinates (Angstroms)
 Number     Number       Type             X           Y           Z
 ---------------------------------------------------------------------
      1          6           0        3.240904   -0.698386   -0.401556
      2          6           0        4.188914    0.492103   -0.253237
      3          6           0        5.250417    0.543031   -1.352515
      4          1           0        3.825889   -1.628247   -0.391728
      5          1           0        2.750829   -0.647786   -1.383728
      6          1           0        4.676019    0.440027    0.728920
      7          1           0        3.601585    1.419229   -0.263227
      8          1           0        4.780622    0.619252   -2.338458
      9          1           0        5.861161   -0.365513   -1.340673
     10          1           0        5.917292    1.401766   -1.227169
     11          6           0        2.174100   -0.762959    0.689996
     12          6           0        1.226090   -1.953448    0.541676
     13          6           0        0.164587   -2.004375    1.640954
     14          1           0        2.664175   -0.813559    1.672167
     15          1           0        1.589115    0.166902    0.680167
     16          1           0        1.813418   -2.880573    0.551667
     17          1           0        0.738985   -1.901372   -0.440481
     18          1           0       -0.446157   -1.095831    1.629113
     19          1           0        0.634381   -2.080596    2.626898
     20          1           0       -0.502288   -2.863110    1.515609
     21          6           0       -2.471484    1.453186   -0.219731
     22          6           0       -1.413285    1.855947    0.807878
     23          6           0       -0.951106    3.304157    0.643943
     24          1           0       -2.065799    1.597932   -1.230381
     25          1           0       -3.334833    2.126962   -0.130016
     26          1           0       -0.552765    1.180746    0.717184
     27          1           0       -1.821468    1.710044    1.816201
     28          1           0       -1.794872    3.992787    0.755517
     29          1           0       -0.518961    3.460483   -0.349743
     30          1           0       -0.194718    3.570920    1.388641
     31          6           0       -2.943519    0.008159   -0.068708
     32          6           0       -4.001719   -0.394603   -1.096318
     33          6           0       -4.463898   -1.842812   -0.932384
     34          1           0       -2.080170   -0.665617   -0.158423
     35          1           0       -3.349204   -0.136588    0.941942
     36          1           0       -3.593536   -0.248699   -2.104641
     37          1           0       -4.862238    0.280599   -1.005624
     38          1           0       -4.896043   -1.999137    0.061303
     39          1           0       -3.620132   -2.531443   -1.043957
     40          1           0       -5.220286   -2.109575   -1.677080
 ---------------------------------------------------------------------

 SCF Done:  E(RHF) =  -470.732138388     A.U. after   11 cycles
 E2 =    -0.1584825591D+01 EUMP2 =    -0.47231696397855D+03

 The electronic state is 1-A.
 Alpha  occ. eigenvalues --  -11.21651 -11.21621 -11.21617 -11.21613 -11.21432
 Alpha  occ. eigenvalues --  -11.21424 -11.21365 -11.21355 -11.21131 -11.21084
 Alpha  occ. eigenvalues --  -11.21075 -11.20955  -1.08507  -1.08419  -1.03578
 Alpha  occ. eigenvalues --   -1.03527  -0.96037  -0.95955  -0.87039  -0.86986
 Alpha  occ. eigenvalues --   -0.79690  -0.79575  -0.78397  -0.78159  -0.65360
 Alpha  occ. eigenvalues --   -0.64870  -0.61053  -0.60871  -0.59444  -0.59281
 Alpha  occ. eigenvalues --   -0.57660  -0.57570  -0.55435  -0.55151  -0.52720
 Alpha  occ. eigenvalues --   -0.52671  -0.52434  -0.52389  -0.50046  -0.49860
 Alpha  occ. eigenvalues --   -0.48123  -0.47845  -0.46956  -0.46584  -0.46037
 Alpha  occ. eigenvalues --   -0.45776  -0.45753  -0.45072  -0.43811  -0.43788
 Alpha virt. eigenvalues --    0.20358   0.23233   0.23834   0.23906   0.26182
 Alpha virt. eigenvalues --    0.26297   0.27039   0.27615   0.28132   0.30019
 Alpha virt. eigenvalues --    0.30380   0.31403   0.31774   0.31901   0.31936

 Mulliken charges:
               1
     1  C   -0.297601
     2  C   -0.299813
     3  C   -0.475703
     4  H    0.149862
     5  H    0.149025
     6  H    0.152070
     7  H    0.152077
     8  H    0.155084
     9  H    0.155228
    10  H    0.160369
    11  C   -0.306124
    12  C   -0.301001
    13  C   -0.483262
    14  H    0.150116
    15  H    0.156127
    16  H    0.152446
    17  H    0.150775
    18  H    0.164663
    19  H    0.154773
    20  H    0.159695
    21  C   -0.297171
    22  C   -0.311590
    23  C   -0.475169
    24  H    0.148980
    25  H    0.149765
    26  H    0.161421
    27  H    0.152545
    28  H    0.155746
    29  H    0.154741
    30  H    0.160632
    31  C   -0.304337
    32  C   -0.299401
    33  C   -0.475652
    34  H    0.156529
    35  H    0.149849
    36  H    0.151603
    37  H    0.151923
    38  H    0.155394
    39  H    0.155154
    40  H    0.160233
 Sum of Mulliken charges =  -0.00000

 Dipole moment (field-independent basis, Debye):
    X=             -0.0145    Y=              0.0192    Z=              0.0158  Tot=              0.0288
 Quadrupole moment (field-independent basis, Debye-Ang):
   XX=            -84.6939   YY=            -85.5033   ZZ=            -84.5822
   XY=             -1.1500   XZ=              0.4545   YZ=              0.0172

 Normal termination of Gaussian 16 at Thu May  6 03:56:57 2021.
