 Gaussian 16, Revision A.03,
 Gaussian 16:  EM64L-G16RevA.03 25-Dec-2016

 -------------
 #p 6-31g* mp2
 -------------

 ------------------------------------------------------
 Input file generated by CHIRIPA (05-May-2021 14:55:21)
 ------------------------------------------------------
 Symbolic Z-matrix:
 Charge =  0 Multiplicity = 1

                         Standard orientation:
 ---------------------------------------------------------------------
 Center     Atomic      Atomic             Coordinates (Angstroms)
 Number     Number       Type             X           Y           Z
 ---------------------------------------------------------------------
      1          6           0       -5.208807   -1.754179   -0.034505
      2          6           0       -3.824020   -1.951240   -0.041780
      3          6           0       -2.951407   -0.858952   -0.041176
      4          6           0       -3.500365    0.422403   -0.033161
      5          6           0       -4.875450    0.651258   -0.025796
      6          6           0       -5.729185   -0.455848   -0.026550
      7          1           0       -5.879342   -2.608451   -0.035032
      8          1           0       -3.417068   -2.958413   -0.047966
      9          1           0       -1.875282   -0.982817   -0.046705
     10          1           0       -5.251404    1.667152   -0.019717
     11          1           0       -6.804203   -0.299800   -0.020889
     12          7           0       -2.586561    1.586603   -0.032443
     13          8           0       -3.095282    2.705437   -0.025308
     14          8           0       -1.378903    1.358225   -0.039028
     15          6           0        5.372854   -0.427695   -0.233786
     16          6           0        6.418981    0.573017    0.258327
     17          6           0        7.813571    0.294560   -0.303257
     18          1           0        5.686105   -1.443018    0.045387
     19          1           0        5.338878   -0.401871   -1.331772
     20          1           0        6.449993    0.546309    1.355114
     21          1           0        6.103108    1.586094   -0.021883
     22          1           0        7.804777    0.341125   -1.397038
     23          1           0        8.153635   -0.704567   -0.012217
     24          1           0        8.545761    1.021738    0.061393
     25          6           0        3.973631   -0.162459    0.318982
     26          6           0        2.927503   -1.163171   -0.173131
     27          6           0        1.532914   -0.884713    0.388454
     28          1           0        4.007606   -0.188282    1.416968
     29          1           0        3.660379    0.852865    0.039809
     30          1           0        3.243377   -2.176247    0.107079
     31          1           0        2.896491   -1.136463   -1.269918
     32          1           0        1.192850    0.114413    0.097414
     33          1           0        1.541707   -0.931279    1.482234
     34          1           0        0.800724   -1.611892    0.023804
 ---------------------------------------------------------------------

 SCF Done:  E(RHF) =  -669.535864327     A.U. after   15 cycles
 E2 =    -0.2091155720D+01 EUMP2 =    -0.67162702004633D+03

 The electronic state is 1-A.
 Alpha  occ. eigenvalues --  -20.60810 -20.60802 -15.85859 -11.31183 -11.27760
 Alpha  occ. eigenvalues --  -11.27727 -11.27503 -11.26769 -11.26754 -11.21248
 Alpha  occ. eigenvalues --  -11.21160 -11.21011 -11.20896 -11.20781 -11.20476
 Alpha  occ. eigenvalues --   -1.59880  -1.39435  -1.19358  -1.08763  -1.08013
 Alpha  occ. eigenvalues --   -1.04756  -1.03114  -0.95632  -0.95531  -0.86578
 Alpha  occ. eigenvalues --   -0.86155  -0.82439  -0.79185  -0.77826  -0.77470
 Alpha  occ. eigenvalues --   -0.72089  -0.71198  -0.70470  -0.65017  -0.64764
 Alpha  occ. eigenvalues --   -0.64636  -0.62109  -0.60494  -0.58961  -0.57179
 Alpha  occ. eigenvalues --   -0.55265  -0.54810  -0.53090  -0.52881  -0.52262
 Alpha  occ. eigenvalues --   -0.51965  -0.49483  -0.48835  -0.48806  -0.47480
 Alpha  occ. eigenvalues --   -0.46187  -0.45357  -0.45276  -0.44847  -0.43395
 Alpha  occ. eigenvalues --   -0.37344  -0.36358
 Alpha virt. eigenvalues --    0.05047   0.11295   0.16543   0.20879   0.23279
 Alpha virt. eigenvalues --    0.24270   0.26122   0.27096   0.27701   0.27956
 Alpha virt. eigenvalues --    0.29286   0.30507   0.31510   0.31913   0.32257

 Mulliken charges:
               1
     1  C   -0.170380
     2  C   -0.220647
     3  C   -0.175355
     4  C    0.156332
     5  C   -0.170283
     6  C   -0.219026
     7  H    0.225564
     8  H    0.223659
     9  H    0.285113
    10  H    0.275481
    11  H    0.223371
    12  N    0.493457
    13  O   -0.460148
    14  O   -0.466317
    15  C   -0.298005
    16  C   -0.299609
    17  C   -0.475507
    18  H    0.147706
    19  H    0.149131
    20  H    0.151544
    21  H    0.153455
    22  H    0.154880
    23  H    0.154057
    24  H    0.159751
    25  C   -0.299057
    26  C   -0.299363
    27  C   -0.482663
    28  H    0.148863
    29  H    0.154793
    30  H    0.147317
    31  H    0.151136
    32  H    0.184153
    33  H    0.152914
    34  H    0.143683
 Sum of Mulliken charges =  -0.00000

 Dipole moment (field-independent basis, Debye):
    X=             -3.2953    Y=             -3.9402    Z=             -0.0048  Tot=              5.1365
 Quadrupole moment (field-independent basis, Debye-Ang):
   XX=            -70.8571   YY=            -96.6129   ZZ=            -95.2075
   XY=             10.7372   XZ=              0.5816   YZ=             -0.3424

 Normal termination of Gaussian 16 at Thu May  6 15:49:39 2021.
