 Gaussian 16, Revision A.03,
 Gaussian 16:  EM64L-G16RevA.03 25-Dec-2016

 -------------
 #p 6-31g* mp2
 -------------

 ------------------------------------------------------
 Input file generated by CHIRIPA (05-May-2021 14:51:14)
 ------------------------------------------------------
 Symbolic Z-matrix:
 Charge =  0 Multiplicity = 1

                         Standard orientation:
 ---------------------------------------------------------------------
 Center     Atomic      Atomic             Coordinates (Angstroms)
 Number     Number       Type             X           Y           Z
 ---------------------------------------------------------------------
      1          6           0        2.774277   -0.618689   -0.413361
      2          6           0        1.877119   -1.241310   -1.483611
      3          6           0        2.043862   -2.757738   -1.585768
      4          1           0        3.822540   -0.859481   -0.637210
      5          1           0        2.548279   -1.079621    0.558164
      6          1           0        2.103776   -0.778358   -2.452589
      7          1           0        0.830884   -0.998846   -1.257294
      8          1           0        1.798163   -3.237380   -0.632785
      9          1           0        3.078287   -3.015640   -1.834872
     10          1           0        1.393310   -3.182117   -2.356835
     11          6           0        2.618935    0.896757   -0.299244
     12          6           0        3.516093    1.519378    0.771006
     13          6           0        3.349349    3.035806    0.873163
     14          1           0        2.844932    1.357689   -1.270769
     15          1           0        1.570672    1.137549   -0.075395
     16          1           0        4.562328    1.276914    0.544689
     17          1           0        3.289436    1.056426    1.739984
     18          1           0        2.314924    3.293708    1.122267
     19          1           0        3.595049    3.515448   -0.079820
     20          1           0        3.999902    3.460185    1.644230
     21          6           0       -3.024043    0.102608   -0.290092
     22          6           0       -3.662060    1.486634   -0.166034
     23          6           0       -4.313020    1.956291   -1.467367
     24          1           0       -2.272552    0.122759   -1.091216
     25          1           0       -3.791212   -0.620747   -0.599292
     26          1           0       -2.894211    2.206905    0.144182
     27          1           0       -4.411984    1.463235    0.635016
     28          1           0       -5.098678    1.260091   -1.778251
     29          1           0       -3.572281    2.007986   -2.271875
     30          1           0       -4.762886    2.947815   -1.356184
     31          6           0       -2.369169   -0.380676    1.002697
     32          6           0       -1.731152   -1.764702    0.878639
     33          6           0       -1.080191   -2.234359    2.179971
     34          1           0       -1.602000    0.342679    1.311896
     35          1           0       -3.120660   -0.400828    1.803821
     36          1           0       -0.981227   -1.741304    0.077588
     37          1           0       -2.499001   -2.484973    0.568423
     38          1           0       -1.820931   -2.286054    2.984480
     39          1           0       -0.294534   -1.538159    2.490855
     40          1           0       -0.630326   -3.225882    2.068788
 ---------------------------------------------------------------------

 SCF Done:  E(RHF) =  -470.733386789     A.U. after   11 cycles
 E2 =    -0.1583474540D+01 EUMP2 =    -0.47231686132845D+03

 The electronic state is 1-A.
 Alpha  occ. eigenvalues --  -11.21644 -11.21642 -11.21628 -11.21627 -11.21456
 Alpha  occ. eigenvalues --  -11.21451 -11.21395 -11.21391 -11.21136 -11.21108
 Alpha  occ. eigenvalues --  -11.21101 -11.21084  -1.08499  -1.08452  -1.03601
 Alpha  occ. eigenvalues --   -1.03540  -0.96026  -0.96010  -0.87040  -0.87028
 Alpha  occ. eigenvalues --   -0.79689  -0.79584  -0.78333  -0.78244  -0.65324
 Alpha  occ. eigenvalues --   -0.64921  -0.61187  -0.60759  -0.59401  -0.59365
 Alpha  occ. eigenvalues --   -0.57630  -0.57626  -0.55335  -0.55276  -0.52716
 Alpha  occ. eigenvalues --   -0.52705  -0.52447  -0.52437  -0.49990  -0.49943
 Alpha  occ. eigenvalues --   -0.48049  -0.47891  -0.46909  -0.46497  -0.46010
 Alpha  occ. eigenvalues --   -0.45788  -0.45769  -0.45446  -0.43829  -0.43820
 Alpha virt. eigenvalues --    0.19189   0.23115   0.23534   0.24945   0.25241
 Alpha virt. eigenvalues --    0.26393   0.26881   0.27975   0.28646   0.29496
 Alpha virt. eigenvalues --    0.31005   0.31362   0.31692   0.31801   0.32251

 Mulliken charges:
               1
     1  C   -0.298925
     2  C   -0.305717
     3  C   -0.476370
     4  H    0.150080
     5  H    0.150447
     6  H    0.152415
     7  H    0.156146
     8  H    0.156138
     9  H    0.155483
    10  H    0.160512
    11  C   -0.298601
    12  C   -0.299690
    13  C   -0.475695
    14  H    0.149767
    15  H    0.148876
    16  H    0.152236
    17  H    0.151929
    18  H    0.154955
    19  H    0.155291
    20  H    0.160509
    21  C   -0.299317
    22  C   -0.299596
    23  C   -0.475792
    24  H    0.149999
    25  H    0.149873
    26  H    0.151835
    27  H    0.152071
    28  H    0.155212
    29  H    0.155467
    30  H    0.160363
    31  C   -0.298208
    32  C   -0.308025
    33  C   -0.475900
    34  H    0.148843
    35  H    0.150037
    36  H    0.160281
    37  H    0.152449
    38  H    0.155668
    39  H    0.154614
    40  H    0.160342
 Sum of Mulliken charges =  -0.00000

 Dipole moment (field-independent basis, Debye):
    X=              0.0035    Y=             -0.0118    Z=             -0.0090  Tot=              0.0153
 Quadrupole moment (field-independent basis, Debye-Ang):
   XX=            -83.5817   YY=            -85.9794   ZZ=            -85.0101
   XY=              0.7399   XZ=             -1.2269   YZ=             -0.0075

 Normal termination of Gaussian 16 at Wed May  5 18:24:52 2021.
