 Gaussian 16, Revision A.03,
 Gaussian 16:  EM64L-G16RevA.03 25-Dec-2016

 -------------
 #p 6-31g* mp2
 -------------

 ------------------------------------------------------
 Input file generated by CHIRIPA (05-May-2021 14:53:11)
 ------------------------------------------------------
 Symbolic Z-matrix:
 Charge =  0 Multiplicity = 1

                         Standard orientation:
 ---------------------------------------------------------------------
 Center     Atomic      Atomic             Coordinates (Angstroms)
 Number     Number       Type             X           Y           Z
 ---------------------------------------------------------------------
      1          6           0       -4.679935   -0.256263   -0.383968
      2          6           0       -5.762242   -0.247753    0.696088
      3          6           0       -7.166259   -0.048283    0.124474
      4          1           0       -4.719522    0.689705   -0.941213
      5          1           0       -4.899330   -1.054248   -1.106796
      6          1           0       -5.540116    0.549083    1.417427
      7          1           0       -5.719948   -1.193773    1.250952
      8          1           0       -7.412775   -0.849264   -0.579984
      9          1           0       -7.231921    0.903494   -0.412563
     10          1           0       -7.924416   -0.045451    0.913809
     11          6           0       -3.270912   -0.454745    0.171900
     12          6           0       -2.188605   -0.463255   -0.908157
     13          6           0       -0.784588   -0.662725   -0.336542
     14          1           0       -3.051517    0.343240    0.894728
     15          1           0       -3.231325   -1.400713    0.729144
     16          1           0       -2.230899    0.482765   -1.463020
     17          1           0       -2.410731   -1.260091   -1.629495
     18          1           0       -0.718926   -1.614502    0.200495
     19          1           0       -0.538072    0.138256    0.367915
     20          1           0       -0.026431   -0.665557   -1.125878
     21          6           0        1.442921    2.175219    0.064934
     22          6           0        1.998137    1.719673   -1.135372
     23          6           0        2.920443    0.669009   -1.137394
     24          6           0        3.266560    0.094296    0.084570
     25          6           0        2.730846    0.525826    1.297039
     26          6           0        1.810399    1.577895    1.275175
     27          1           0        0.727173    2.991945    0.057227
     28          1           0        1.714598    2.181674   -2.076757
     29          1           0        3.365679    0.296627   -2.052005
     30          1           0        3.032992    0.045383    2.219698
     31          1           0        1.380826    1.929611    2.208881
     32          7           0        4.241981   -1.018738    0.095074
     33          8           0        4.530446   -1.508263    1.184931
     34          8           0        4.699580   -1.380534   -0.986750
 ---------------------------------------------------------------------

 SCF Done:  E(RHF) =  -669.533589070     A.U. after   15 cycles
 E2 =    -0.2093740482D+01 EUMP2 =    -0.67162732955208D+03

 The electronic state is 1-A.
 Alpha  occ. eigenvalues --  -20.60786 -20.60781 -15.85840 -11.31232 -11.27801
 Alpha  occ. eigenvalues --  -11.27797 -11.27509 -11.26790 -11.26780 -11.21879
 Alpha  occ. eigenvalues --  -11.21852 -11.21706 -11.21645 -11.21320 -11.21024
 Alpha  occ. eigenvalues --   -1.59861  -1.39414  -1.19405  -1.08809  -1.08694
 Alpha  occ. eigenvalues --   -1.04811  -1.03759  -0.96196  -0.95626  -0.87212
 Alpha  occ. eigenvalues --   -0.86209  -0.82458  -0.79833  -0.78530  -0.77500
 Alpha  occ. eigenvalues --   -0.72059  -0.71182  -0.70514  -0.65350  -0.65056
 Alpha  occ. eigenvalues --   -0.64813  -0.62155  -0.61194  -0.59592  -0.57821
 Alpha  occ. eigenvalues --   -0.55630  -0.55311  -0.53580  -0.52901  -0.52661
 Alpha  occ. eigenvalues --   -0.52343  -0.50052  -0.48820  -0.48812  -0.48151
 Alpha  occ. eigenvalues --   -0.46866  -0.46061  -0.46006  -0.44815  -0.44008
 Alpha  occ. eigenvalues --   -0.37276  -0.36357
 Alpha virt. eigenvalues --    0.05011   0.11147   0.16480   0.21221   0.22644
 Alpha virt. eigenvalues --    0.24171   0.26358   0.27011   0.27432   0.27836
 Alpha virt. eigenvalues --    0.28310   0.30924   0.31313   0.31658   0.31882

 Mulliken charges:
               1
     1  C   -0.298036
     2  C   -0.299604
     3  C   -0.475752
     4  H    0.147788
     5  H    0.150958
     6  H    0.150435
     7  H    0.153052
     8  H    0.156083
     9  H    0.154552
    10  H    0.160820
    11  C   -0.297337
    12  C   -0.299801
    13  C   -0.477953
    14  H    0.144944
    15  H    0.151707
    16  H    0.145351
    17  H    0.153224
    18  H    0.155189
    19  H    0.155243
    20  H    0.161007
    21  C   -0.169088
    22  C   -0.214736
    23  C   -0.172589
    24  C    0.160732
    25  C   -0.168486
    26  C   -0.219396
    27  H    0.225514
    28  H    0.223521
    29  H    0.275781
    30  H    0.275946
    31  H    0.223599
    32  N    0.487998
    33  O   -0.460204
    34  O   -0.460462
 Sum of Mulliken charges =  -0.00000

 Dipole moment (field-independent basis, Debye):
    X=             -3.3455    Y=              3.9263    Z=             -0.0178  Tot=              5.1584
 Quadrupole moment (field-independent basis, Debye-Ang):
   XX=           -119.1661   YY=            -93.6746   ZZ=            -89.9005
   XY=             12.9675   XZ=             -1.1483   YZ=              0.1197

 Normal termination of Gaussian 16 at Wed May  5 16:55:37 2021.
