 Gaussian 16, Revision A.03,
 Gaussian 16:  EM64L-G16RevA.03 25-Dec-2016

 -------------
 #p 6-31g* mp2
 -------------

 ------------------------------------------------------
 Input file generated by CHIRIPA (05-May-2021 14:57:27)
 ------------------------------------------------------
 Symbolic Z-matrix:
 Charge =  0 Multiplicity = 1

                         Standard orientation:
 ---------------------------------------------------------------------
 Center     Atomic      Atomic             Coordinates (Angstroms)
 Number     Number       Type             X           Y           Z
 ---------------------------------------------------------------------
      1          6           0        1.962615    1.742359   -0.067530
      2          6           0        1.907964    0.421649   -0.524980
      3          6           0        3.051865   -0.382017   -0.512384
      4          6           0        4.239056    0.169798   -0.033459
      5          6           0        4.325459    1.482035    0.428990
      6          6           0        3.169062    2.267411    0.407158
      7          1           0        1.069151    2.359562   -0.080902
      8          1           0        0.972393    0.011233   -0.894182
      9          1           0        3.037751   -1.407660   -0.860631
     10          1           0        5.272528    1.863195    0.791200
     11          1           0        3.214460    3.292756    0.763037
     12          7           0        5.456668   -0.671326   -0.015236
     13          8           0        6.490389   -0.161568    0.411619
     14          8           0        5.354255   -1.824430   -0.428152
     15          6           0       -6.189856    0.993325   -0.169727
     16          6           0       -5.805772    0.467450    1.068196
     17          6           0       -4.615779   -0.255464    1.194143
     18          6           0       -3.830382   -0.434274    0.056397
     19          6           0       -4.185923    0.077240   -1.190694
     20          6           0       -5.380133    0.796889   -1.293240
     21          1           0       -7.115910    1.553633   -0.258477
     22          1           0       -6.432639    0.618441    1.942430
     23          1           0       -4.294494   -0.673546    2.140399
     24          1           0       -3.540224   -0.089750   -2.044277
     25          1           0       -5.675909    1.204141   -2.255897
     26          7           0       -2.568357   -1.197861    0.177344
     27          8           0       -1.893987   -1.341484   -0.840121
     28          8           0       -2.277448   -1.638279    1.287318
 ---------------------------------------------------------------------

 SCF Done:  E(RHF) =  -868.339607546     A.U. after   16 cycles
 E2 =    -0.2598457122D+01 EUMP2 =    -0.87093806466781D+03

 The electronic state is 1-A.
 Alpha  occ. eigenvalues --  -20.61763 -20.61707 -20.60073 -20.60058 -15.86758
 Alpha  occ. eigenvalues --  -15.85113 -11.31933 -11.30367 -11.28489 -11.28456
 Alpha  occ. eigenvalues --  -11.28167 -11.27443 -11.27422 -11.26957 -11.26811
 Alpha  occ. eigenvalues --  -11.26646 -11.26001 -11.25716  -1.60796  -1.59145
 Alpha  occ. eigenvalues --   -1.40355  -1.38701  -1.20085  -1.18513  -1.09512
 Alpha  occ. eigenvalues --   -1.07942  -1.05454  -1.03875  -0.96378  -0.94800
 Alpha  occ. eigenvalues --   -0.86860  -0.85287  -0.83214  -0.81615  -0.78288
 Alpha  occ. eigenvalues --   -0.76669  -0.72976  -0.72108  -0.71337  -0.71180
 Alpha  occ. eigenvalues --   -0.70464  -0.69657  -0.65735  -0.65447  -0.64162
 Alpha  occ. eigenvalues --   -0.63848  -0.62801  -0.61203  -0.55951  -0.54432
 Alpha  occ. eigenvalues --   -0.53799  -0.53537  -0.52242  -0.51943  -0.49748
 Alpha  occ. eigenvalues --   -0.49712  -0.48097  -0.48082  -0.45790  -0.44131
 Alpha  occ. eigenvalues --   -0.38052  -0.37052  -0.36520  -0.35469
 Alpha virt. eigenvalues --    0.04192   0.05824   0.10605   0.12172   0.15709
 Alpha virt. eigenvalues --    0.17349   0.20786   0.22354   0.26720   0.27591
 Alpha virt. eigenvalues --    0.28441   0.29065   0.30377   0.31702   0.32108

 Mulliken charges:
               1
     1  C   -0.172400
     2  C   -0.223970
     3  C   -0.171897
     4  C    0.158311
     5  C   -0.172954
     6  C   -0.218448
     7  H    0.221026
     8  H    0.242548
     9  H    0.278087
    10  H    0.272548
    11  H    0.219192
    12  N    0.488050
    13  O   -0.463459
    14  O   -0.460198
    15  C   -0.170113
    16  C   -0.218586
    17  C   -0.170733
    18  C    0.156958
    19  C   -0.172078
    20  C   -0.218596
    21  H    0.227996
    22  H    0.225855
    23  H    0.277226
    24  H    0.274688
    25  H    0.225284
    26  N    0.488253
    27  O   -0.468088
    28  O   -0.454504
 Sum of Mulliken charges =  -0.00000

 Dipole moment (field-independent basis, Debye):
    X=             -9.2174    Y=              5.5321    Z=             -0.4654  Tot=             10.7601
 Quadrupole moment (field-independent basis, Debye-Ang):
   XX=           -106.5923   YY=           -104.4557   ZZ=           -100.0128
   XY=              5.1687   XZ=              1.1053   YZ=              1.0275

 Normal termination of Gaussian 16 at Wed May  5 18:04:04 2021.
