 Gaussian 16, Revision A.03,
 Gaussian 16:  EM64L-G16RevA.03 25-Dec-2016

 -------------
 #p 6-31g* mp2
 -------------

 ------------------------------------------------------
 Input file generated by CHIRIPA (05-May-2021 14:55:23)
 ------------------------------------------------------
 Symbolic Z-matrix:
 Charge =  0 Multiplicity = 1

                         Standard orientation:
 ---------------------------------------------------------------------
 Center     Atomic      Atomic             Coordinates (Angstroms)
 Number     Number       Type             X           Y           Z
 ---------------------------------------------------------------------
      1          6           0       -3.525119    2.637844    0.167448
      2          6           0       -2.449768    1.929404    0.713574
      3          6           0       -2.403537    0.534524    0.631594
      4          6           0       -3.454355   -0.122784   -0.006384
      5          6           0       -4.539392    0.554827   -0.560305
      6          6           0       -4.564667    1.949508   -0.466631
      7          1           0       -3.552893    3.721343    0.235674
      8          1           0       -1.641046    2.461339    1.206584
      9          1           0       -1.583069   -0.038831    1.045737
     10          1           0       -5.330859   -0.003206   -1.045690
     11          1           0       -5.401060    2.497081   -0.891666
     12          7           0       -3.416505   -1.599375   -0.099363
     13          8           0       -4.354695   -2.155016   -0.666549
     14          8           0       -2.449365   -2.173127    0.396707
     15          6           0        4.955890    0.290823   -0.340442
     16          6           0        6.378811    0.004176    0.140301
     17          6           0        7.420507    0.902745   -0.526957
     18          1           0        4.910621    0.160304   -1.430333
     19          1           0        4.714302    1.344123   -0.141475
     20          1           0        6.617146   -1.048624   -0.058255
     21          1           0        6.420651    0.135205    1.229199
     22          1           0        7.210368    1.956754   -0.318374
     23          1           0        7.407978    0.766199   -1.613143
     24          1           0        8.430616    0.680855   -0.168762
     25          6           0        3.903229   -0.599498    0.317557
     26          6           0        2.480308   -0.312852   -0.163187
     27          6           0        1.438612   -1.211421    0.504072
     28          1           0        4.144817   -1.652798    0.118590
     29          1           0        3.948498   -0.468980    1.407448
     30          1           0        2.438468   -0.443880   -1.252084
     31          1           0        2.241973    0.739949    0.035370
     32          1           0        1.451140   -1.074874    1.590257
     33          1           0        1.648751   -2.265431    0.295488
     34          1           0        0.428503   -0.989531    0.145876
 ---------------------------------------------------------------------

 SCF Done:  E(RHF) =  -669.535550925     A.U. after   15 cycles
 E2 =    -0.2091311838D+01 EUMP2 =    -0.67162686276306D+03

 The electronic state is 1-A.
 Alpha  occ. eigenvalues --  -20.60797 -20.60792 -15.85837 -11.31195 -11.27767
 Alpha  occ. eigenvalues --  -11.27730 -11.27511 -11.26786 -11.26774 -11.21625
 Alpha  occ. eigenvalues --  -11.21614 -11.21427 -11.21358 -11.21109 -11.20912
 Alpha  occ. eigenvalues --   -1.59865  -1.39419  -1.19370  -1.08768  -1.08443
 Alpha  occ. eigenvalues --   -1.04772  -1.03526  -0.95966  -0.95599  -0.86976
 Alpha  occ. eigenvalues --   -0.86169  -0.82432  -0.79587  -0.78258  -0.77481
 Alpha  occ. eigenvalues --   -0.72056  -0.71184  -0.70485  -0.65078  -0.65022
 Alpha  occ. eigenvalues --   -0.64786  -0.62159  -0.60923  -0.59318  -0.57578
 Alpha  occ. eigenvalues --   -0.55304  -0.55220  -0.53113  -0.52992  -0.52517
 Alpha  occ. eigenvalues --   -0.52342  -0.49896  -0.48817  -0.48812  -0.47896
 Alpha  occ. eigenvalues --   -0.46630  -0.45794  -0.45730  -0.44828  -0.43751
 Alpha  occ. eigenvalues --   -0.37353  -0.36370
 Alpha virt. eigenvalues --    0.05012   0.11211   0.16537   0.21005   0.22885
 Alpha virt. eigenvalues --    0.24133   0.26540   0.26866   0.27434   0.27803
 Alpha virt. eigenvalues --    0.29191   0.30548   0.31428   0.31625   0.31905

 Mulliken charges:
               1
     1  C   -0.170627
     2  C   -0.220041
     3  C   -0.175046
     4  C    0.157161
     5  C   -0.170715
     6  C   -0.218554
     7  H    0.225601
     8  H    0.223715
     9  H    0.283267
    10  H    0.275573
    11  H    0.223477
    12  N    0.488210
    13  O   -0.459978
    14  O   -0.460958
    15  C   -0.297925
    16  C   -0.299667
    17  C   -0.475644
    18  H    0.150175
    19  H    0.147350
    20  H    0.153009
    21  H    0.151602
    22  H    0.154218
    23  H    0.155443
    24  H    0.160499
    25  C   -0.298282
    26  C   -0.299718
    27  C   -0.481636
    28  H    0.151917
    29  H    0.148706
    30  H    0.153786
    31  H    0.144535
    32  H    0.150770
    33  H    0.163647
    34  H    0.166130
 Sum of Mulliken charges =  -0.00000

 Dipole moment (field-independent basis, Debye):
    X=             -0.1557    Y=              5.1065    Z=              0.2987  Tot=              5.1176
 Quadrupole moment (field-independent basis, Debye-Ang):
   XX=            -90.9580   YY=            -96.3143   ZZ=            -93.9141
   XY=            -19.0438   XZ=              1.5552   YZ=              0.6857

 Normal termination of Gaussian 16 at Wed May  5 19:02:50 2021.
