 Gaussian 16, Revision A.03,
 Gaussian 16:  EM64L-G16RevA.03 25-Dec-2016

 -------------
 #p 6-31g* mp2
 -------------

 ------------------------------------------------------
 Input file generated by CHIRIPA (05-May-2021 14:57:23)
 ------------------------------------------------------
 Symbolic Z-matrix:
 Charge =  0 Multiplicity = 1

                         Standard orientation:
 ---------------------------------------------------------------------
 Center     Atomic      Atomic             Coordinates (Angstroms)
 Number     Number       Type             X           Y           Z
 ---------------------------------------------------------------------
      1          6           0        5.740856    1.384358    0.066944
      2          6           0        5.752693    0.001476    0.276750
      3          6           0        4.576457   -0.744780    0.157934
      4          6           0        3.400940   -0.072781   -0.173530
      5          6           0        3.356904    1.303826   -0.388712
      6          6           0        4.545107    2.029981   -0.264533
      7          1           0        6.659232    1.956261    0.161326
      8          1           0        6.679863   -0.502582    0.534291
      9          1           0        4.557172   -1.816413    0.314935
     10          1           0        2.417221    1.778279   -0.644266
     11          1           0        4.532932    3.103835   -0.428039
     12          7           0        2.149377   -0.852169   -0.302154
     13          8           0        1.126776   -0.236484   -0.595167
     14          8           0        2.214701   -2.063981   -0.107521
     15          6           0       -1.720271   -1.649390    0.667537
     16          6           0       -1.932941   -0.530491    1.479545
     17          6           0       -2.975387    0.359271    1.203540
     18          6           0       -3.789636    0.098404    0.102523
     19          6           0       -3.603230   -1.007620   -0.725278
     20          6           0       -2.554623   -1.883970   -0.430347
     21          1           0       -0.908081   -2.335368    0.889295
     22          1           0       -1.286549   -0.345801    2.332840
     23          1           0       -3.162515    1.233218    1.815601
     24          1           0       -4.264190   -1.165268   -1.568898
     25          1           0       -2.391817   -2.752111   -1.062700
     26          7           0       -4.896487    1.033254   -0.199689
     27          8           0       -5.599822    0.781093   -1.175584
     28          8           0       -5.039744    2.000453    0.545055
 ---------------------------------------------------------------------

 SCF Done:  E(RHF) =  -868.339744240     A.U. after   16 cycles
 E2 =    -0.2599451223D+01 EUMP2 =    -0.87093919546287D+03

 The electronic state is 1-A.
 Alpha  occ. eigenvalues --  -20.61788 -20.61748 -20.59785 -20.59778 -15.86764
 Alpha  occ. eigenvalues --  -15.84833 -11.31867 -11.29848 -11.28411 -11.28382
 Alpha  occ. eigenvalues --  -11.28086 -11.27355 -11.27331 -11.26474 -11.26442
 Alpha  occ. eigenvalues --  -11.25949 -11.25320 -11.25256  -1.60838  -1.58870
 Alpha  occ. eigenvalues --   -1.40390  -1.38434  -1.20014  -1.17998  -1.09462
 Alpha  occ. eigenvalues --   -1.07406  -1.05370  -1.03388  -0.96339  -0.94309
 Alpha  occ. eigenvalues --   -0.86781  -0.84785  -0.83173  -0.81189  -0.78256
 Alpha  occ. eigenvalues --   -0.76316  -0.72989  -0.72147  -0.71111  -0.71062
 Alpha  occ. eigenvalues --   -0.70193  -0.69033  -0.65664  -0.65365  -0.63651
 Alpha  occ. eigenvalues --   -0.63406  -0.62716  -0.60787  -0.55883  -0.53788
 Alpha  occ. eigenvalues --   -0.53705  -0.53454  -0.51730  -0.51498  -0.49778
 Alpha  occ. eigenvalues --   -0.49679  -0.47832  -0.47783  -0.45849  -0.43921
 Alpha  occ. eigenvalues --   -0.37982  -0.36963  -0.35766  -0.35001
 Alpha virt. eigenvalues --    0.04230   0.06276   0.10696   0.12684   0.15805
 Alpha virt. eigenvalues --    0.17890   0.20891   0.22822   0.26820   0.27766
 Alpha virt. eigenvalues --    0.28527   0.29794   0.30514   0.31947   0.32484

 Mulliken charges:
               1
     1  C   -0.169788
     2  C   -0.218597
     3  C   -0.170982
     4  C    0.157212
     5  C   -0.171135
     6  C   -0.218633
     7  H    0.228096
     8  H    0.225201
     9  H    0.275178
    10  H    0.277747
    11  H    0.226366
    12  N    0.487008
    13  O   -0.456230
    14  O   -0.467826
    15  C   -0.150482
    16  C   -0.217214
    17  C   -0.172765
    18  C    0.155860
    19  C   -0.171832
    20  C   -0.219618
    21  H    0.236063
    22  H    0.216311
    23  H    0.269213
    24  H    0.270779
    25  H    0.221566
    26  N    0.488409
    27  O   -0.464301
    28  O   -0.465608
 Sum of Mulliken charges =  -0.00000

 Dipole moment (field-independent basis, Debye):
    X=              8.9169    Y=             -0.6198    Z=              1.4561  Tot=              9.0563
 Quadrupole moment (field-independent basis, Debye-Ang):
   XX=           -104.9891   YY=           -101.3350   ZZ=           -102.7967
   XY=             21.3657   XZ=             -0.9519   YZ=              0.5743

 Normal termination of Gaussian 16 at Wed May  5 19:23:16 2021.
