 Gaussian 16, Revision A.03,
 Gaussian 16:  EM64L-G16RevA.03 25-Dec-2016

 -------------
 #p 6-31g* mp2
 -------------

 ------------------------------------------------------
 Input file generated by CHIRIPA (05-May-2021 14:51:11)
 ------------------------------------------------------
 Symbolic Z-matrix:
 Charge =  0 Multiplicity = 1

                         Standard orientation:
 ---------------------------------------------------------------------
 Center     Atomic      Atomic             Coordinates (Angstroms)
 Number     Number       Type             X           Y           Z
 ---------------------------------------------------------------------
      1          6           0       -2.751576   -0.655894    0.495350
      2          6           0       -1.554124   -1.215761   -0.273184
      3          6           0       -0.339530   -1.461796    0.622372
      4          1           0       -2.458668    0.283178    0.984526
      5          1           0       -3.022571   -1.355317    1.298323
      6          1           0       -1.286338   -0.516152   -1.075340
      7          1           0       -1.849972   -2.153511   -0.760744
      8          1           0       -0.583611   -2.176833    1.414678
      9          1           0       -0.016774   -0.530170    1.098295
     10          1           0        0.504910   -1.861957    0.052590
     11          6           0       -3.973555   -0.404652   -0.386337
     12          6           0       -5.171006    0.155215    0.382197
     13          6           0       -6.385600    0.401250   -0.513359
     14          1           0       -3.702559    0.294771   -1.189309
     15          1           0       -4.266463   -1.343724   -0.875512
     16          1           0       -4.875158    1.092965    0.869757
     17          1           0       -5.438793   -0.544394    1.184353
     18          1           0       -6.708357   -0.530376   -0.989281
     19          1           0       -6.141520    1.116287   -1.305665
     20          1           0       -7.230041    0.801411    0.056424
     21          6           0        2.960698    1.048493    0.337135
     22          6           0        2.595979    2.283024   -0.488031
     23          6           0        1.792128    3.310625    0.309249
     24          1           0        2.040206    0.582881    0.715083
     25          1           0        3.536907    1.362324    1.218548
     26          1           0        2.021814    1.966820   -1.368352
     27          1           0        3.517436    2.745642   -0.864217
     28          1           0        2.361410    3.654395    1.178929
     29          1           0        0.857289    2.871149    0.671929
     30          1           0        1.542133    4.184943   -0.299792
     31          6           0        3.764432    0.012053   -0.446148
     32          6           0        4.129152   -1.222478    0.379017
     33          6           0        4.933002   -2.250079   -0.418263
     34          1           0        3.188223   -0.301778   -1.327561
     35          1           0        4.684924    0.477665   -0.824096
     36          1           0        3.207695   -1.685096    0.755204
     37          1           0        4.703316   -0.906274    1.259339
     38          1           0        5.867841   -1.810603   -0.780943
     39          1           0        4.363722   -2.593849   -1.287943
     40          1           0        5.182997   -3.124397    0.190778
 ---------------------------------------------------------------------

 SCF Done:  E(RHF) =  -470.733036908     A.U. after   11 cycles
 E2 =    -0.1583311958D+01 EUMP2 =    -0.47231634886595D+03

 The electronic state is 1-A.
 Alpha  occ. eigenvalues --  -11.21695 -11.21635 -11.21577 -11.21538 -11.21466
 Alpha  occ. eigenvalues --  -11.21403 -11.21339 -11.21258 -11.21184 -11.21096
 Alpha  occ. eigenvalues --  -11.21087 -11.21038  -1.08496  -1.08379  -1.03599
 Alpha  occ. eigenvalues --   -1.03498  -0.96061  -0.95940  -0.87076  -0.86964
 Alpha  occ. eigenvalues --   -0.79672  -0.79557  -0.78315  -0.78177  -0.65194
 Alpha  occ. eigenvalues --   -0.64971  -0.61042  -0.60867  -0.59423  -0.59304
 Alpha  occ. eigenvalues --   -0.57664  -0.57555  -0.55464  -0.55133  -0.52769
 Alpha  occ. eigenvalues --   -0.52631  -0.52501  -0.52356  -0.50099  -0.49814
 Alpha  occ. eigenvalues --   -0.48016  -0.47847  -0.46798  -0.46547  -0.45908
 Alpha  occ. eigenvalues --   -0.45789  -0.45708  -0.45457  -0.43830  -0.43737
 Alpha virt. eigenvalues --    0.20460   0.22854   0.23621   0.24860   0.25825
 Alpha virt. eigenvalues --    0.26729   0.26894   0.27593   0.28032   0.29274
 Alpha virt. eigenvalues --    0.29881   0.31647   0.31727   0.31751   0.32480

 Mulliken charges:
               1
     1  C   -0.298666
     2  C   -0.299976
     3  C   -0.482198
     4  H    0.149728
     5  H    0.149858
     6  H    0.151932
     7  H    0.152445
     8  H    0.156247
     9  H    0.158782
    10  H    0.162418
    11  C   -0.298353
    12  C   -0.299729
    13  C   -0.475755
    14  H    0.149680
    15  H    0.149782
    16  H    0.152125
    17  H    0.152011
    18  H    0.155210
    19  H    0.155281
    20  H    0.160415
    21  C   -0.306546
    22  C   -0.299188
    23  C   -0.475553
    24  H    0.159240
    25  H    0.148891
    26  H    0.151380
    27  H    0.151866
    28  H    0.155445
    29  H    0.153688
    30  H    0.160195
    31  C   -0.297494
    32  C   -0.303427
    33  C   -0.475558
    34  H    0.148863
    35  H    0.149390
    36  H    0.155843
    37  H    0.151823
    38  H    0.155098
    39  H    0.154650
    40  H    0.160159
 Sum of Mulliken charges =  -0.00000

 Dipole moment (field-independent basis, Debye):
    X=             -0.0483    Y=             -0.0243    Z=              0.0179  Tot=              0.0570
 Quadrupole moment (field-independent basis, Debye-Ang):
   XX=            -85.2523   YY=            -84.4550   ZZ=            -85.1454
   XY=              1.4337   XZ=             -0.0007   YZ=             -0.3142

 Normal termination of Gaussian 16 at Wed May  5 21:29:51 2021.
