 Gaussian 16, Revision A.03,
 Gaussian 16:  EM64L-G16RevA.03 25-Dec-2016

 -------------
 #p 6-31g* mp2
 -------------

 ------------------------------------------------------
 Input file generated by CHIRIPA (05-May-2021 14:51:09)
 ------------------------------------------------------
 Symbolic Z-matrix:
 Charge =  0 Multiplicity = 1

                         Standard orientation:
 ---------------------------------------------------------------------
 Center     Atomic      Atomic             Coordinates (Angstroms)
 Number     Number       Type             X           Y           Z
 ---------------------------------------------------------------------
      1          6           0       -2.569801    0.235213    0.914256
      2          6           0       -1.329364   -0.393119    1.550259
      3          6           0       -0.595841    0.565931    2.488322
      4          1           0       -2.273508    1.136784    0.360790
      5          1           0       -3.252758    0.566507    1.708742
      6          1           0       -0.649574   -0.724380    0.754792
      7          1           0       -1.628617   -1.293406    2.102117
      8          1           0       -1.253918    0.887536    3.302020
      9          1           0       -0.269313    1.459796    1.947040
     10          1           0        0.287625    0.096326    2.931966
     11          6           0       -3.313833   -0.711261   -0.026133
     12          6           0       -4.554270   -0.082929   -0.662136
     13          6           0       -5.287793   -1.041978   -1.600199
     14          1           0       -2.630876   -1.042555   -0.820619
     15          1           0       -3.610126   -1.612832    0.527334
     16          1           0       -4.255017    0.817358   -1.213994
     17          1           0       -5.234060    0.248332    0.133331
     18          1           0       -5.614321   -1.935843   -1.058917
     19          1           0       -4.629716   -1.363584   -2.413897
     20          1           0       -6.171259   -0.572373   -2.043843
     21          6           0        3.593114   -0.159498   -0.409131
     22          6           0        3.377273   -1.662250   -0.227102
     23          6           0        4.689545   -2.443978   -0.158998
     24          1           0        4.172256    0.012814   -1.326653
     25          1           0        4.204016    0.219438    0.421894
     26          1           0        2.765800   -2.037981   -1.057489
     27          1           0        2.798414   -1.830992    0.689993
     28          1           0        5.301576   -2.096981    0.679818
     29          1           0        5.268777   -2.305145   -1.077593
     30          1           0        4.511910   -3.516045   -0.028698
     31          6           0        2.290519    0.635546   -0.478993
     32          6           0        2.506361    2.138297   -0.661021
     33          6           0        1.194089    2.920026   -0.729125
     34          1           0        1.679618    0.256610   -1.310018
     35          1           0        1.711378    0.463234    0.438530
     36          1           0        3.085220    2.307041   -1.578116
     37          1           0        3.117834    2.514028    0.169366
     38          1           0        0.614857    2.781193    0.189470
     39          1           0        0.582058    2.573029   -1.567941
     40          1           0        1.371725    3.992093   -0.859425
 ---------------------------------------------------------------------

 SCF Done:  E(RHF) =  -470.732801564     A.U. after   11 cycles
 E2 =    -0.1584122838D+01 EUMP2 =    -0.47231692440238D+03

 The electronic state is 1-A.
 Alpha  occ. eigenvalues --  -11.21630 -11.21618 -11.21582 -11.21569 -11.21404
 Alpha  occ. eigenvalues --  -11.21379 -11.21338 -11.21319 -11.21129 -11.21106
 Alpha  occ. eigenvalues --  -11.21082 -11.21059  -1.08467  -1.08394  -1.03582
 Alpha  occ. eigenvalues --   -1.03503  -0.96009  -0.95985  -0.87027  -0.87001
 Alpha  occ. eigenvalues --   -0.79641  -0.79567  -0.78286  -0.78206  -0.65216
 Alpha  occ. eigenvalues --   -0.64931  -0.61145  -0.60765  -0.59376  -0.59348
 Alpha  occ. eigenvalues --   -0.57715  -0.57508  -0.55339  -0.55251  -0.52704
 Alpha  occ. eigenvalues --   -0.52680  -0.52498  -0.52351  -0.50050  -0.49860
 Alpha  occ. eigenvalues --   -0.48042  -0.47813  -0.46752  -0.46482  -0.45946
 Alpha  occ. eigenvalues --   -0.45739  -0.45651  -0.45513  -0.43803  -0.43777
 Alpha virt. eigenvalues --    0.20385   0.23103   0.23573   0.24401   0.25935
 Alpha virt. eigenvalues --    0.26133   0.26462   0.27952   0.28501   0.29701
 Alpha virt. eigenvalues --    0.30189   0.31481   0.31630   0.31786   0.32318

 Mulliken charges:
               1
     1  C   -0.299097
     2  C   -0.302905
     3  C   -0.483255
     4  H    0.150920
     5  H    0.149253
     6  H    0.156124
     7  H    0.151845
     8  H    0.156257
     9  H    0.160385
    10  H    0.159175
    11  C   -0.298286
    12  C   -0.299699
    13  C   -0.475677
    14  H    0.149576
    15  H    0.149539
    16  H    0.152098
    17  H    0.151887
    18  H    0.155135
    19  H    0.155060
    20  H    0.160210
    21  C   -0.297827
    22  C   -0.300068
    23  C   -0.475672
    24  H    0.149576
    25  H    0.149524
    26  H    0.151710
    27  H    0.152088
    28  H    0.155236
    29  H    0.155243
    30  H    0.160343
    31  C   -0.307665
    32  C   -0.299026
    33  C   -0.482060
    34  H    0.148361
    35  H    0.161596
    36  H    0.152082
    37  H    0.152117
    38  H    0.160049
    39  H    0.154888
    40  H    0.160960
 Sum of Mulliken charges =  -0.00000

 Dipole moment (field-independent basis, Debye):
    X=              0.0116    Y=              0.0051    Z=              0.0047  Tot=              0.0135
 Quadrupole moment (field-independent basis, Debye-Ang):
   XX=            -85.6368   YY=            -85.4952   ZZ=            -83.6904
   XY=              0.4327   XZ=             -0.9070   YZ=             -0.4824

 Normal termination of Gaussian 16 at Thu May  6 02:11:09 2021.
