 Gaussian 16, Revision A.03,
 Gaussian 16:  EM64L-G16RevA.03 25-Dec-2016

 -------------
 #p 6-31g* mp2
 -------------

 ------------------------------------------------------
 Input file generated by CHIRIPA (05-May-2021 14:51:11)
 ------------------------------------------------------
 Symbolic Z-matrix:
 Charge =  0 Multiplicity = 1

                         Standard orientation:
 ---------------------------------------------------------------------
 Center     Atomic      Atomic             Coordinates (Angstroms)
 Number     Number       Type             X           Y           Z
 ---------------------------------------------------------------------
      1          6           0       -4.347741    0.438421    0.164045
      2          6           0       -5.644546   -0.117344   -0.425366
      3          6           0       -6.802415    0.878398   -0.350319
      4          1           0       -4.520816    0.723481    1.210816
      5          1           0       -4.075669    1.359473   -0.369842
      6          1           0       -5.913351   -1.037825    0.108557
      7          1           0       -5.468313   -0.401293   -1.470800
      8          1           0       -6.559237    1.794061   -0.898976
      9          1           0       -7.006803    1.153912    0.689354
     10          1           0       -7.719535    0.460580   -0.777143
     11          6           0       -3.181016   -0.545394    0.096300
     12          6           0       -1.884210    0.010371    0.685711
     13          6           0       -0.726341   -0.985371    0.610664
     14          1           0       -3.453087   -1.466446    0.630187
     15          1           0       -3.007940   -0.830454   -0.950471
     16          1           0       -2.060444    0.294319    1.731145
     17          1           0       -1.615406    0.930852    0.151788
     18          1           0       -0.521953   -1.260885   -0.429009
     19          1           0       -0.969520   -1.901034    1.159322
     20          1           0        0.190779   -0.567553    1.037488
     21          6           0        3.550080    0.763694   -0.312143
     22          6           0        4.490927    1.839165    0.232058
     23          6           0        4.048919    3.254718   -0.140276
     24          1           0        3.491826    0.855540   -1.405356
     25          1           0        2.536407    0.945057    0.071222
     26          1           0        5.502801    1.655024   -0.151111
     27          1           0        4.547098    1.744627    1.324086
     28          1           0        3.049629    3.462910    0.255550
     29          1           0        4.010763    3.372796   -1.228028
     30          1           0        4.735586    4.007747    0.258840
     31          6           0        3.978676   -0.656721    0.051798
     32          6           0        3.037830   -1.732193   -0.492403
     33          6           0        3.479838   -3.147745   -0.120069
     34          1           0        4.992349   -0.838083   -0.331567
     35          1           0        4.036931   -0.748566    1.145011
     36          1           0        2.981659   -1.637654   -1.584430
     37          1           0        2.025956   -1.548050   -0.109234
     38          1           0        3.517993   -3.265824    0.967683
     39          1           0        4.479127   -3.355937   -0.515895
     40          1           0        2.793170   -3.900774   -0.519185
 ---------------------------------------------------------------------

 SCF Done:  E(RHF) =  -470.732694939     A.U. after   11 cycles
 E2 =    -0.1583078283D+01 EUMP2 =    -0.47231577322186D+03

 The electronic state is 1-A.
 Alpha  occ. eigenvalues --  -11.21657 -11.21623 -11.21577 -11.21440 -11.21401
 Alpha  occ. eigenvalues --  -11.21380 -11.21354 -11.21280 -11.21150 -11.21087
 Alpha  occ. eigenvalues --  -11.21057 -11.20966  -1.08471  -1.08364  -1.03585
 Alpha  occ. eigenvalues --   -1.03449  -0.96037  -0.95915  -0.87076  -0.86919
 Alpha  occ. eigenvalues --   -0.79714  -0.79466  -0.78291  -0.78160  -0.65111
 Alpha  occ. eigenvalues --   -0.65005  -0.61005  -0.60855  -0.59435  -0.59243
 Alpha  occ. eigenvalues --   -0.57649  -0.57517  -0.55321  -0.55207  -0.52819
 Alpha  occ. eigenvalues --   -0.52580  -0.52456  -0.52329  -0.50010  -0.49832
 Alpha  occ. eigenvalues --   -0.47972  -0.47822  -0.46734  -0.46498  -0.45849
 Alpha  occ. eigenvalues --   -0.45758  -0.45697  -0.45594  -0.43760  -0.43682
 Alpha virt. eigenvalues --    0.21437   0.23012   0.24076   0.24416   0.26103
 Alpha virt. eigenvalues --    0.26594   0.27113   0.27307   0.27897   0.29184
 Alpha virt. eigenvalues --    0.30702   0.31265   0.31629   0.31843   0.32299

 Mulliken charges:
               1
     1  C   -0.298375
     2  C   -0.299665
     3  C   -0.475730
     4  H    0.149682
     5  H    0.149675
     6  H    0.151958
     7  H    0.152027
     8  H    0.155251
     9  H    0.155195
    10  H    0.160339
    11  C   -0.298800
    12  C   -0.299750
    13  C   -0.480091
    14  H    0.149614
    15  H    0.149997
    16  H    0.151904
    17  H    0.152382
    18  H    0.157701
    19  H    0.155818
    20  H    0.161977
    21  C   -0.300165
    22  C   -0.299505
    23  C   -0.475667
    24  H    0.149565
    25  H    0.150357
    26  H    0.152036
    27  H    0.151772
    28  H    0.155016
    29  H    0.155080
    30  H    0.160185
    31  C   -0.297538
    32  C   -0.311366
    33  C   -0.474770
    34  H    0.149122
    35  H    0.148751
    36  H    0.150287
    37  H    0.167016
    38  H    0.154528
    39  H    0.154411
    40  H    0.159781
 Sum of Mulliken charges =  -0.00000

 Dipole moment (field-independent basis, Debye):
    X=             -0.0721    Y=             -0.0004    Z=              0.0052  Tot=              0.0723
 Quadrupole moment (field-independent basis, Debye-Ang):
   XX=            -85.5685   YY=            -86.2805   ZZ=            -83.2317
   XY=              0.9348   XZ=             -0.7458   YZ=             -0.1154

 Normal termination of Gaussian 16 at Wed May  5 23:04:59 2021.
