 Gaussian 16, Revision A.03,
 Gaussian 16:  EM64L-G16RevA.03 25-Dec-2016

 -------------
 #p 6-31g* mp2
 -------------

 ------------------------------------------------------
 Input file generated by CHIRIPA (05-May-2021 14:51:08)
 ------------------------------------------------------
 Symbolic Z-matrix:
 Charge =  0 Multiplicity = 1

                         Standard orientation:
 ---------------------------------------------------------------------
 Center     Atomic      Atomic             Coordinates (Angstroms)
 Number     Number       Type             X           Y           Z
 ---------------------------------------------------------------------
      1          6           0        3.003733   -1.265982    0.003290
      2          6           0        1.573401   -1.080090   -0.504233
      3          6           0        0.741223   -2.359191   -0.408442
      4          1           0        3.489555   -2.065215   -0.573033
      5          1           0        2.973470   -1.607515    1.047241
      6          1           0        1.606372   -0.737680   -1.546483
      7          1           0        1.090990   -0.281076    0.073237
      8          1           0        0.678590   -2.701192    0.629687
      9          1           0        1.196900   -3.160391   -0.999236
     10          1           0       -0.277716   -2.203731   -0.776485
     11          6           0        3.848103    0.003973   -0.086043
     12          6           0        5.278435   -0.181919    0.421480
     13          6           0        6.110612    1.097182    0.325690
     14          1           0        3.878365    0.345507   -1.129994
     15          1           0        3.362281    0.803206    0.490280
     16          1           0        5.760845   -0.980933   -0.155990
     17          1           0        5.245464   -0.524328    1.463730
     18          1           0        5.654935    1.898383    0.916483
     19          1           0        6.173245    1.439184   -0.712440
     20          1           0        7.129551    0.941722    0.693732
     21          6           0       -2.997874    1.130557   -0.346770
     22          6           0       -1.667483    1.448647    0.336504
     23          6           0       -0.822349    2.449488   -0.452078
     24          1           0       -2.800832    0.734239   -1.352280
     25          1           0       -3.563906    2.062394   -0.483462
     26          1           0       -1.104729    0.516305    0.473116
     27          1           0       -1.867709    1.844075    1.340576
     28          1           0       -1.360809    3.394550   -0.576649
     29          1           0       -0.593493    2.059237   -1.449039
     30          1           0        0.124214    2.662543    0.054367
     31          6           0       -3.853961    0.131451    0.429523
     32          6           0       -5.184353   -0.186638   -0.253751
     33          6           0       -6.029487   -1.187479    0.534831
     34          1           0       -3.287930   -0.800385    0.566214
     35          1           0       -4.051004    0.527769    1.435034
     36          1           0       -4.984126   -0.582066   -1.257824
     37          1           0       -5.747107    0.745703   -0.390363
     38          1           0       -6.258342   -0.797228    1.531791
     39          1           0       -5.491026   -2.132542    0.659401
     40          1           0       -6.976050   -1.400534    0.028386
 ---------------------------------------------------------------------

 SCF Done:  E(RHF) =  -470.733220728     A.U. after   11 cycles
 E2 =    -0.1583212306D+01 EUMP2 =    -0.47231643303423D+03

 The electronic state is 1-A.
 Alpha  occ. eigenvalues --  -11.21607 -11.21602 -11.21596 -11.21568 -11.21416
 Alpha  occ. eigenvalues --  -11.21398 -11.21357 -11.21338 -11.21135 -11.21073
 Alpha  occ. eigenvalues --  -11.21064 -11.21051  -1.08458  -1.08409  -1.03582
 Alpha  occ. eigenvalues --   -1.03491  -0.96008  -0.95964  -0.87021  -0.86979
 Alpha  occ. eigenvalues --   -0.79655  -0.79548  -0.78298  -0.78196  -0.65176
 Alpha  occ. eigenvalues --   -0.64976  -0.61126  -0.60783  -0.59416  -0.59275
 Alpha  occ. eigenvalues --   -0.57638  -0.57550  -0.55313  -0.55232  -0.52714
 Alpha  occ. eigenvalues --   -0.52647  -0.52429  -0.52390  -0.49959  -0.49893
 Alpha  occ. eigenvalues --   -0.48004  -0.47842  -0.46857  -0.46450  -0.45899
 Alpha  occ. eigenvalues --   -0.45762  -0.45750  -0.45468  -0.43804  -0.43774
 Alpha virt. eigenvalues --    0.20565   0.22921   0.23723   0.24621   0.26115
 Alpha virt. eigenvalues --    0.26299   0.26731   0.27404   0.28765   0.29116
 Alpha virt. eigenvalues --    0.30781   0.31145   0.31677   0.31842   0.32376

 Mulliken charges:
               1
     1  C   -0.297790
     2  C   -0.306701
     3  C   -0.476703
     4  H    0.149586
     5  H    0.149463
     6  H    0.151870
     7  H    0.159597
     8  H    0.155362
     9  H    0.155740
    10  H    0.159695
    11  C   -0.298312
    12  C   -0.299686
    13  C   -0.475711
    14  H    0.149753
    15  H    0.149543
    16  H    0.151969
    17  H    0.151922
    18  H    0.155181
    19  H    0.155267
    20  H    0.160268
    21  C   -0.297647
    22  C   -0.307000
    23  C   -0.475429
    24  H    0.149425
    25  H    0.149500
    26  H    0.158628
    27  H    0.151543
    28  H    0.155052
    29  H    0.156175
    30  H    0.159656
    31  C   -0.298906
    32  C   -0.299610
    33  C   -0.475738
    34  H    0.149901
    35  H    0.149638
    36  H    0.151866
    37  H    0.151937
    38  H    0.155139
    39  H    0.155320
    40  H    0.160237
 Sum of Mulliken charges =  -0.00000

 Dipole moment (field-independent basis, Debye):
    X=              0.0153    Y=             -0.0013    Z=             -0.0016  Tot=              0.0155
 Quadrupole moment (field-independent basis, Debye-Ang):
   XX=            -85.5930   YY=            -85.3726   ZZ=            -83.8352
   XY=             -1.5494   XZ=             -0.1892   YZ=              0.9681

 Normal termination of Gaussian 16 at Wed May  5 15:04:59 2021.
