 Gaussian 16, Revision A.03,
 Gaussian 16:  EM64L-G16RevA.03 25-Dec-2016

 -------------
 #p 6-31g* mp2
 -------------

 ------------------------------------------------------
 Input file generated by CHIRIPA (05-May-2021 14:51:11)
 ------------------------------------------------------
 Symbolic Z-matrix:
 Charge =  0 Multiplicity = 1

                         Standard orientation:
 ---------------------------------------------------------------------
 Center     Atomic      Atomic             Coordinates (Angstroms)
 Number     Number       Type             X           Y           Z
 ---------------------------------------------------------------------
      1          6           0        2.160036   -0.878136    0.199739
      2          6           0        2.241736   -1.373590    1.643982
      3          6           0        1.783475   -2.824114    1.798160
      4          1           0        1.125800   -0.977340   -0.157274
      5          1           0        2.774753   -1.527677   -0.438708
      6          1           0        1.628151   -0.722478    2.279736
      7          1           0        3.275859   -1.273017    1.997662
      8          1           0        2.401691   -3.490373    1.187825
      9          1           0        0.744621   -2.936707    1.471502
     10          1           0        1.850075   -3.157767    2.838401
     11          6           0        2.614843    0.570277    0.029510
     12          6           0        2.533144    1.065730   -1.414732
     13          6           0        2.991404    2.516255   -1.568910
     14          1           0        2.000127    1.219818    0.667958
     15          1           0        3.649080    0.669480    0.386524
     16          1           0        1.499020    0.965157   -1.768412
     17          1           0        3.146728    0.414619   -2.050486
     18          1           0        4.030259    2.628847   -1.242252
     19          1           0        2.373189    3.182513   -0.958575
     20          1           0        2.924805    2.849907   -2.609151
     21          6           0       -2.136789    0.860900    0.029590
     22          6           0       -2.780668    1.492441    1.264322
     23          6           0       -2.269046    2.906704    1.539814
     24          1           0       -1.046589    0.838396    0.163393
     25          1           0       -2.331424    1.498825   -0.843660
     26          1           0       -2.586053    0.852806    2.134730
     27          1           0       -3.869475    1.513270    1.127647
     28          1           0       -2.477090    3.564101    0.689432
     29          1           0       -1.186377    2.899885    1.702238
     30          1           0       -2.742448    3.339217    2.426765
     31          6           0       -2.638091   -0.553041   -0.258840
     32          6           0       -1.994212   -1.184581   -1.493572
     33          6           0       -2.505833   -2.598844   -1.769064
     34          1           0       -2.443456   -1.190965    0.614410
     35          1           0       -3.728291   -0.530536   -0.392642
     36          1           0       -0.905404   -1.205410   -1.356897
     37          1           0       -2.188826   -0.544947   -2.363980
     38          1           0       -3.588503   -2.592026   -1.931488
     39          1           0       -2.297788   -3.256242   -0.918683
     40          1           0       -2.032432   -3.031358   -2.656014
 ---------------------------------------------------------------------

 SCF Done:  E(RHF) =  -470.733333688     A.U. after   11 cycles
 E2 =    -0.1584229281D+01 EUMP2 =    -0.47231756296894D+03

 The electronic state is 1-A.
 Alpha  occ. eigenvalues --  -11.21668 -11.21660 -11.21642 -11.21604 -11.21481
 Alpha  occ. eigenvalues --  -11.21448 -11.21421 -11.21388 -11.21135 -11.21132
 Alpha  occ. eigenvalues --  -11.21104 -11.21066  -1.08527  -1.08450  -1.03590
 Alpha  occ. eigenvalues --   -1.03558  -0.96037  -0.96013  -0.87057  -0.87024
 Alpha  occ. eigenvalues --   -0.79663  -0.79617  -0.78404  -0.78208  -0.65413
 Alpha  occ. eigenvalues --   -0.64848  -0.61047  -0.60903  -0.59405  -0.59379
 Alpha  occ. eigenvalues --   -0.57649  -0.57619  -0.55355  -0.55278  -0.52732
 Alpha  occ. eigenvalues --   -0.52699  -0.52469  -0.52431  -0.50030  -0.49918
 Alpha  occ. eigenvalues --   -0.48025  -0.47911  -0.46820  -0.46637  -0.46251
 Alpha  occ. eigenvalues --   -0.45807  -0.45768  -0.45201  -0.43844  -0.43817
 Alpha virt. eigenvalues --    0.18856   0.22357   0.23773   0.24474   0.25348
 Alpha virt. eigenvalues --    0.26372   0.27065   0.27974   0.28026   0.30766
 Alpha virt. eigenvalues --    0.31050   0.31525   0.31778   0.31856   0.32078

 Mulliken charges:
               1
     1  C   -0.309587
     2  C   -0.299036
     3  C   -0.475817
     4  H    0.159607
     5  H    0.149905
     6  H    0.151343
     7  H    0.152431
     8  H    0.155631
     9  H    0.154385
    10  H    0.160556
    11  C   -0.298220
    12  C   -0.301860
    13  C   -0.475713
    14  H    0.149160
    15  H    0.150095
    16  H    0.154234
    17  H    0.151885
    18  H    0.155069
    19  H    0.155503
    20  H    0.160374
    21  C   -0.303073
    22  C   -0.299620
    23  C   -0.475750
    24  H    0.152921
    25  H    0.149928
    26  H    0.152033
    27  H    0.152441
    28  H    0.155483
    29  H    0.154507
    30  H    0.160691
    31  C   -0.297902
    32  C   -0.308955
    33  C   -0.475190
    34  H    0.149167
    35  H    0.150298
    36  H    0.159659
    37  H    0.152243
    38  H    0.155366
    39  H    0.155087
    40  H    0.160721
 Sum of Mulliken charges =  -0.00000

 Dipole moment (field-independent basis, Debye):
    X=             -0.0079    Y=             -0.0022    Z=             -0.0145  Tot=              0.0166
 Quadrupole moment (field-independent basis, Debye-Ang):
   XX=            -83.3655   YY=            -86.6394   ZZ=            -84.5782
   XY=             -1.2355   XZ=              0.2763   YZ=             -0.2231

 Normal termination of Gaussian 16 at Wed May  5 23:07:03 2021.
