 Gaussian 16, Revision A.03,
 Gaussian 16:  EM64L-G16RevA.03 25-Dec-2016

 -------------
 #p 6-31g* mp2
 -------------

 ------------------------------------------------------
 Input file generated by CHIRIPA (05-May-2021 14:57:25)
 ------------------------------------------------------
 Symbolic Z-matrix:
 Charge =  0 Multiplicity = 1

                         Standard orientation:
 ---------------------------------------------------------------------
 Center     Atomic      Atomic             Coordinates (Angstroms)
 Number     Number       Type             X           Y           Z
 ---------------------------------------------------------------------
      1          6           0        3.155732    2.534154   -0.220039
      2          6           0        4.174804    1.804565   -0.841098
      3          6           0        4.239033    0.414904   -0.702297
      4          6           0        3.263405   -0.215675    0.068294
      5          6           0        2.235712    0.483443    0.699459
      6          6           0        2.191139    1.872431    0.546905
      7          1           0        3.113473    3.613415   -0.333205
      8          1           0        4.925268    2.315812   -1.437315
      9          1           0        5.017052   -0.174440   -1.172167
     10          1           0        1.501820   -0.054175    1.287497
     11          1           0        1.398571    2.436470    1.030373
     12          7           0        3.320997   -1.686490    0.222516
     13          8           0        2.449472   -2.218407    0.906728
     14          8           0        4.236572   -2.279549   -0.343735
     15          6           0       -3.250228    2.483815    0.208227
     16          6           0       -4.432720    1.815462   -0.125747
     17          6           0       -4.446469    0.424683   -0.267498
     18          6           0       -3.254269   -0.269444   -0.067152
     19          6           0       -2.060116    0.367784    0.266356
     20          6           0       -2.069782    1.759122    0.402869
     21          1           0       -3.248642    3.564423    0.316308
     22          1           0       -5.350959    2.375688   -0.277503
     23          1           0       -5.347789   -0.118031   -0.525379
     24          1           0       -1.160452   -0.217870    0.411376
     25          1           0       -1.149963    2.275522    0.662308
     26          7           0       -3.256431   -1.742095   -0.214445
     27          8           0       -2.192863   -2.330662   -0.032658
     28          8           0       -4.321654   -2.279905   -0.508892
 ---------------------------------------------------------------------

 SCF Done:  E(RHF) =  -868.335275995     A.U. after   16 cycles
 E2 =    -0.2601095723D+01 EUMP2 =    -0.87093637171770D+03

 The electronic state is 1-A.
 Alpha  occ. eigenvalues --  -20.60873 -20.60843 -20.60738 -20.60703 -15.85926
 Alpha  occ. eigenvalues --  -15.85785 -11.31604 -11.31405 -11.28304 -11.28166
 Alpha  occ. eigenvalues --  -11.28063 -11.28022 -11.27988 -11.27837 -11.27431
 Alpha  occ. eigenvalues --  -11.27229 -11.27197 -11.27046  -1.59930  -1.59799
 Alpha  occ. eigenvalues --   -1.39476  -1.39343  -1.19815  -1.19616  -1.09146
 Alpha  occ. eigenvalues --   -1.08967  -1.05294  -1.05066  -0.95928  -0.95753
 Alpha  occ. eigenvalues --   -0.86679  -0.86448  -0.82791  -0.82577  -0.77809
 Alpha  occ. eigenvalues --   -0.77554  -0.72136  -0.71991  -0.71260  -0.71132
 Alpha  occ. eigenvalues --   -0.70937  -0.70710  -0.65479  -0.65469  -0.65272
 Alpha  occ. eigenvalues --   -0.64968  -0.62821  -0.62247  -0.55768  -0.55555
 Alpha  occ. eigenvalues --   -0.53571  -0.53554  -0.53364  -0.53019  -0.48922
 Alpha  occ. eigenvalues --   -0.48877  -0.48781  -0.48736  -0.44810  -0.44693
 Alpha  occ. eigenvalues --   -0.37785  -0.37606  -0.36913  -0.36656
 Alpha virt. eigenvalues --    0.04760   0.04976   0.10655   0.10999   0.16062
 Alpha virt. eigenvalues --    0.16404   0.18088   0.22282   0.24669   0.25213
 Alpha virt. eigenvalues --    0.28145   0.28724   0.30575   0.31465   0.33334

 Mulliken charges:
               1
     1  C   -0.170520
     2  C   -0.217767
     3  C   -0.169096
     4  C    0.161084
     5  C   -0.175911
     6  C   -0.221545
     7  H    0.225521
     8  H    0.225496
     9  H    0.278438
    10  H    0.275886
    11  H    0.216386
    12  N    0.487854
    13  O   -0.454524
    14  O   -0.458908
    15  C   -0.171562
    16  C   -0.218445
    17  C   -0.169622
    18  C    0.159256
    19  C   -0.174744
    20  C   -0.219644
    21  H    0.224544
    22  H    0.224320
    23  H    0.277302
    24  H    0.278622
    25  H    0.214550
    26  N    0.487067
    27  O   -0.453462
    28  O   -0.460576
 Sum of Mulliken charges =  -0.00000

 Dipole moment (field-independent basis, Debye):
    X=             -0.0823    Y=             10.0907    Z=             -0.1363  Tot=             10.0920
 Quadrupole moment (field-independent basis, Debye-Ang):
   XX=            -96.9586   YY=           -111.1175   ZZ=           -104.5513
   XY=             -0.1897   XZ=             -5.1328   YZ=             -0.2005

 Normal termination of Gaussian 16 at Thu May  6 06:43:11 2021.
