 Gaussian 16, Revision A.03,
 Gaussian 16:  EM64L-G16RevA.03 25-Dec-2016

 -------------
 #p 6-31g* mp2
 -------------

 ------------------------------------------------------
 Input file generated by CHIRIPA (05-May-2021 14:57:26)
 ------------------------------------------------------
 Symbolic Z-matrix:
 Charge =  0 Multiplicity = 1

                         Standard orientation:
 ---------------------------------------------------------------------
 Center     Atomic      Atomic             Coordinates (Angstroms)
 Number     Number       Type             X           Y           Z
 ---------------------------------------------------------------------
      1          6           0        1.583696    2.533206   -0.131678
      2          6           0        2.709639    2.498294    0.697511
      3          6           0        3.515313    1.357093    0.753164
      4          6           0        3.164091    0.263902   -0.037320
      5          6           0        2.048658    0.268047   -0.873433
      6          6           0        1.257375    1.419934   -0.913126
      7          1           0        0.963418    3.423869   -0.168712
      8          1           0        2.965478    3.361397    1.305495
      9          1           0        4.392603    1.303031    1.386298
     10          1           0        1.819062   -0.607920   -1.467895
     11          1           0        0.383542    1.444213   -1.558008
     12          7           0        4.009405   -0.949892    0.013149
     13          8           0        3.678502   -1.899838   -0.693068
     14          8           0        4.986859   -0.928335    0.757969
     15          6           0       -4.917519    1.203549    0.099313
     16          6           0       -4.603589    0.463867    1.244233
     17          6           0       -3.556939   -0.462815    1.225985
     18          6           0       -2.841788   -0.625158    0.040449
     19          6           0       -3.130370    0.096782   -1.116622
     20          6           0       -4.181205    1.017973   -1.075389
     21          1           0       -5.732207    1.921285    0.122416
     22          1           0       -5.173713    0.605903    2.157923
     23          1           0       -3.292558   -1.048709    2.097907
     24          1           0       -2.544056   -0.066784   -2.012669
     25          1           0       -4.422770    1.591030   -1.966061
     26          7           0       -1.731532   -1.603288    0.008965
     27          8           0       -1.116670   -1.727758   -1.047960
     28          8           0       -1.497199   -2.226957    1.041806
 ---------------------------------------------------------------------

 SCF Done:  E(RHF) =  -868.338040000     A.U. after   16 cycles
 E2 =    -0.2600089603D+01 EUMP2 =    -0.87093812960260D+03

 The electronic state is 1-A.
 Alpha  occ. eigenvalues --  -20.61362 -20.61299 -20.59967 -20.59922 -15.86374
 Alpha  occ. eigenvalues --  -15.85004 -11.31783 -11.30438 -11.28394 -11.28298
 Alpha  occ. eigenvalues --  -11.28066 -11.27389 -11.27327 -11.27125 -11.26943
 Alpha  occ. eigenvalues --  -11.26928 -11.26171 -11.26105  -1.60385  -1.59021
 Alpha  occ. eigenvalues --   -1.39946  -1.38570  -1.19947  -1.18667  -1.09327
 Alpha  occ. eigenvalues --   -1.08073  -1.05357  -1.04076  -0.96158  -0.94874
 Alpha  occ. eigenvalues --   -0.86750  -0.85486  -0.82994  -0.81700  -0.78044
 Alpha  occ. eigenvalues --   -0.76704  -0.72590  -0.71707  -0.71226  -0.71046
 Alpha  occ. eigenvalues --   -0.70342  -0.69796  -0.65598  -0.65352  -0.64326
 Alpha  occ. eigenvalues --   -0.64111  -0.62704  -0.61394  -0.55836  -0.54652
 Alpha  occ. eigenvalues --   -0.53684  -0.53444  -0.52425  -0.52176  -0.49347
 Alpha  occ. eigenvalues --   -0.49326  -0.48004  -0.47961  -0.45341  -0.43958
 Alpha  occ. eigenvalues --   -0.37918  -0.36971  -0.36707  -0.35674
 Alpha virt. eigenvalues --    0.04456   0.05830   0.10626   0.11970   0.15954
 Alpha virt. eigenvalues --    0.17252   0.20570   0.21996   0.26031   0.27207
 Alpha virt. eigenvalues --    0.28475   0.28984   0.30455   0.31153   0.32739

 Mulliken charges:
               1
     1  C   -0.171225
     2  C   -0.219781
     3  C   -0.170715
     4  C    0.157421
     5  C   -0.166387
     6  C   -0.222946
     7  H    0.220110
     8  H    0.219791
     9  H    0.273854
    10  H    0.290170
    11  H    0.217993
    12  N    0.488174
    13  O   -0.454557
    14  O   -0.464675
    15  C   -0.171145
    16  C   -0.218258
    17  C   -0.170368
    18  C    0.160283
    19  C   -0.175842
    20  C   -0.218955
    21  H    0.227064
    22  H    0.225626
    23  H    0.278184
    24  H    0.272005
    25  H    0.223671
    26  N    0.489485
    27  O   -0.466431
    28  O   -0.452546
 Sum of Mulliken charges =  -0.00000

 Dipole moment (field-independent basis, Debye):
    X=             -7.0912    Y=              7.4202    Z=              0.0011  Tot=             10.2638
 Quadrupole moment (field-independent basis, Debye-Ang):
   XX=           -100.5117   YY=           -107.1298   ZZ=            -98.4817
   XY=              6.5986   XZ=             -0.2178   YZ=              0.2626

 Normal termination of Gaussian 16 at Thu May  6 19:45:49 2021.
