 Gaussian 16, Revision A.03,
 Gaussian 16:  EM64L-G16RevA.03 25-Dec-2016

 -------------
 #p 6-31g* mp2
 -------------

 ------------------------------------------------------
 Input file generated by CHIRIPA (05-May-2021 14:51:09)
 ------------------------------------------------------
 Symbolic Z-matrix:
 Charge =  0 Multiplicity = 1

                         Standard orientation:
 ---------------------------------------------------------------------
 Center     Atomic      Atomic             Coordinates (Angstroms)
 Number     Number       Type             X           Y           Z
 ---------------------------------------------------------------------
      1          6           0       -2.867263    0.480521    0.020255
      2          6           0       -4.282996    0.842401    0.470511
      3          6           0       -4.397762    2.287917    0.955386
      4          1           0       -2.170827    0.645584    0.853727
      5          1           0       -2.559907    1.163453   -0.783817
      6          1           0       -4.588116    0.158108    1.272546
      7          1           0       -4.976171    0.676275   -0.364071
      8          1           0       -4.119328    2.984871    0.158309
      9          1           0       -3.729068    2.463759    1.804226
     10          1           0       -5.418072    2.525207    1.272438
     11          6           0       -2.736565   -0.961350   -0.467243
     12          6           0       -1.320833   -1.323229   -0.917499
     13          6           0       -1.206066   -2.768746   -1.402374
     14          1           0       -3.043921   -1.644281    0.336829
     15          1           0       -3.433002   -1.126412   -1.300715
     16          1           0       -0.627658   -1.157103   -0.082917
     17          1           0       -1.015713   -0.638936   -1.719534
     18          1           0       -1.874761   -2.944587   -2.251214
     19          1           0       -1.484501   -3.465699   -0.605298
     20          1           0       -0.185757   -3.006035   -1.719426
     21          6           0        2.718868   -0.257488    0.796756
     22          6           0        2.532397   -1.699899    0.324882
     23          6           0        2.367587   -2.684198    1.483236
     24          1           0        3.598147   -0.203945    1.453221
     25          1           0        1.854109    0.035663    1.408025
     26          1           0        3.396598   -1.989781   -0.286463
     27          1           0        1.653572   -1.749979   -0.330690
     28          1           0        1.494573   -2.422547    2.089856
     29          1           0        3.247503   -2.663712    2.134335
     30          1           0        2.235683   -3.709332    1.123292
     31          6           0        2.884961    0.738316   -0.349767
     32          6           0        3.071431    2.180727    0.122107
     33          6           0        3.236242    3.165027   -1.036249
     34          1           0        3.749720    0.445166   -0.961037
     35          1           0        2.005682    0.684773   -1.006232
     36          1           0        3.950257    2.230806    0.777678
     37          1           0        2.207231    2.470609    0.733450
     38          1           0        2.356327    3.144540   -1.687347
     39          1           0        4.109255    2.903375   -1.642869
     40          1           0        3.368146    4.190161   -0.676304
 ---------------------------------------------------------------------

 SCF Done:  E(RHF) =  -470.732957546     A.U. after   11 cycles
 E2 =    -0.1583797610D+01 EUMP2 =    -0.47231675515592D+03

 The electronic state is 1-A.
 Alpha  occ. eigenvalues --  -11.21679 -11.21649 -11.21574 -11.21516 -11.21471
 Alpha  occ. eigenvalues --  -11.21412 -11.21375 -11.21314 -11.21131 -11.21110
 Alpha  occ. eigenvalues --  -11.21061 -11.21051  -1.08509  -1.08390  -1.03622
 Alpha  occ. eigenvalues --   -1.03478  -0.96047  -0.95949  -0.87054  -0.86971
 Alpha  occ. eigenvalues --   -0.79693  -0.79545  -0.78352  -0.78177  -0.65249
 Alpha  occ. eigenvalues --   -0.64948  -0.61195  -0.60753  -0.59462  -0.59250
 Alpha  occ. eigenvalues --   -0.57694  -0.57512  -0.55356  -0.55203  -0.52740
 Alpha  occ. eigenvalues --   -0.52640  -0.52472  -0.52376  -0.50005  -0.49873
 Alpha  occ. eigenvalues --   -0.47996  -0.47880  -0.46810  -0.46484  -0.45986
 Alpha  occ. eigenvalues --   -0.45787  -0.45697  -0.45492  -0.43849  -0.43753
 Alpha virt. eigenvalues --    0.20305   0.23220   0.23513   0.24564   0.25965
 Alpha virt. eigenvalues --    0.26109   0.26863   0.27765   0.28615   0.29299
 Alpha virt. eigenvalues --    0.30502   0.30928   0.31559   0.31790   0.32534

 Mulliken charges:
               1
     1  C   -0.298320
     2  C   -0.299702
     3  C   -0.475765
     4  H    0.149117
     5  H    0.149443
     6  H    0.152099
     7  H    0.152158
     8  H    0.155253
     9  H    0.155168
    10  H    0.160486
    11  C   -0.297916
    12  C   -0.305079
    13  C   -0.478351
    14  H    0.149860
    15  H    0.149979
    16  H    0.155994
    17  H    0.152046
    18  H    0.155855
    19  H    0.155949
    20  H    0.162287
    21  C   -0.298060
    22  C   -0.309751
    23  C   -0.475626
    24  H    0.149630
    25  H    0.148667
    26  H    0.151749
    27  H    0.163043
    28  H    0.154134
    29  H    0.155271
    30  H    0.160455
    31  C   -0.299355
    32  C   -0.299601
    33  C   -0.475654
    34  H    0.149296
    35  H    0.151107
    36  H    0.151771
    37  H    0.152021
    38  H    0.155107
    39  H    0.155062
    40  H    0.160173
 Sum of Mulliken charges =  -0.00000

 Dipole moment (field-independent basis, Debye):
    X=             -0.0384    Y=             -0.0142    Z=             -0.0205  Tot=              0.0458
 Quadrupole moment (field-independent basis, Debye-Ang):
   XX=            -83.8091   YY=            -86.3941   ZZ=            -84.5625
   XY=             -0.0520   XZ=              0.4150   YZ=             -0.0325

 Normal termination of Gaussian 16 at Wed May  5 19:45:46 2021.
