 Gaussian 16, Revision A.03,
 Gaussian 16:  EM64L-G16RevA.03 25-Dec-2016

 -------------
 #p 6-31g* mp2
 -------------

 ------------------------------------------------------
 Input file generated by CHIRIPA (05-May-2021 14:53:14)
 ------------------------------------------------------
 Symbolic Z-matrix:
 Charge =  0 Multiplicity = 1

                         Standard orientation:
 ---------------------------------------------------------------------
 Center     Atomic      Atomic             Coordinates (Angstroms)
 Number     Number       Type             X           Y           Z
 ---------------------------------------------------------------------
      1          6           0        4.127466   -0.425436    0.065203
      2          6           0        3.591012   -1.563152   -0.804166
      3          6           0        4.302034   -2.891554   -0.544191
      4          1           0        5.204317   -0.308650   -0.118367
      5          1           0        4.018753   -0.699563    1.123707
      6          1           0        3.699434   -1.286375   -1.860696
      7          1           0        2.515274   -1.677116   -0.618647
      8          1           0        4.183030   -3.194058    0.501243
      9          1           0        5.373918   -2.801097   -0.747864
     10          1           0        3.902887   -3.690974   -1.176227
     11          6           0        3.426592    0.909033   -0.183188
     12          6           0        3.963046    2.046749    0.686182
     13          6           0        3.252024    3.375152    0.426206
     14          1           0        3.535305    1.183160   -1.241692
     15          1           0        2.349741    0.792247    0.000382
     16          1           0        5.038783    2.160714    0.500662
     17          1           0        3.854624    1.769972    1.742712
     18          1           0        2.180139    3.284694    0.629880
     19          1           0        3.371028    3.677656   -0.619227
     20          1           0        3.651171    4.174571    1.058243
     21          6           0       -0.696133   -1.187726    0.579700
     22          6           0       -0.789272   -0.090573   -0.282913
     23          6           0       -2.033274    0.470985   -0.585661
     24          6           0       -3.168776   -0.092343   -0.005500
     25          6           0       -3.108617   -1.185350    0.857637
     26          6           0       -1.854062   -1.730655    1.146223
     27          1           0        0.274337   -1.617644    0.809381
     28          1           0        0.108311    0.333144   -0.724336
     29          1           0       -2.134175    1.320465   -1.250206
     30          1           0       -4.021080   -1.585909    1.282350
     31          1           0       -1.784749   -2.582708    1.816482
     32          7           0       -4.491333    0.493550   -0.318509
     33          8           0       -5.476761   -0.021167    0.205547
     34          8           0       -4.517482    1.456397   -1.081975
 ---------------------------------------------------------------------

 SCF Done:  E(RHF) =  -669.535381487     A.U. after   15 cycles
 E2 =    -0.2092066311D+01 EUMP2 =    -0.67162744779801D+03

 The electronic state is 1-A.
 Alpha  occ. eigenvalues --  -20.60742 -20.60737 -15.85795 -11.31163 -11.27733
 Alpha  occ. eigenvalues --  -11.27720 -11.27469 -11.26750 -11.26703 -11.22751
 Alpha  occ. eigenvalues --  -11.22516 -11.22419 -11.22399 -11.22007 -11.21761
 Alpha  occ. eigenvalues --   -1.59818  -1.39371  -1.19333  -1.09461  -1.08729
 Alpha  occ. eigenvalues --   -1.04734  -1.04462  -0.96896  -0.95566  -0.87909
 Alpha  occ. eigenvalues --   -0.86138  -0.82396  -0.80535  -0.79304  -0.77438
 Alpha  occ. eigenvalues --   -0.72014  -0.71141  -0.70459  -0.66144  -0.64982
 Alpha  occ. eigenvalues --   -0.64708  -0.62092  -0.61861  -0.60267  -0.58511
 Alpha  occ. eigenvalues --   -0.56189  -0.55244  -0.53557  -0.53337  -0.53062
 Alpha  occ. eigenvalues --   -0.52818  -0.50835  -0.48848  -0.48770  -0.48764
 Alpha  occ. eigenvalues --   -0.47581  -0.46798  -0.46727  -0.44776  -0.44739
 Alpha  occ. eigenvalues --   -0.37314  -0.36335
 Alpha virt. eigenvalues --    0.05085   0.11242   0.16551   0.18441   0.22739
 Alpha virt. eigenvalues --    0.23089   0.24796   0.25987   0.27122   0.27423
 Alpha virt. eigenvalues --    0.29425   0.30678   0.30966   0.31224   0.31754

 Mulliken charges:
               1
     1  C   -0.298762
     2  C   -0.303210
     3  C   -0.476211
     4  H    0.154962
     5  H    0.149367
     6  H    0.156372
     7  H    0.142703
     8  H    0.154454
     9  H    0.159516
    10  H    0.163019
    11  C   -0.304387
    12  C   -0.299577
    13  C   -0.476942
    14  H    0.152222
    15  H    0.143293
    16  H    0.155291
    17  H    0.153465
    18  H    0.154627
    19  H    0.156390
    20  H    0.164261
    21  C   -0.175532
    22  C   -0.225020
    23  C   -0.171503
    24  C    0.158754
    25  C   -0.171016
    26  C   -0.218647
    27  H    0.228626
    28  H    0.231422
    29  H    0.276006
    30  H    0.275510
    31  H    0.223453
    32  N    0.487946
    33  O   -0.460496
    34  O   -0.460352
 Sum of Mulliken charges =  -0.00000

 Dipole moment (field-independent basis, Debye):
    X=              4.9159    Y=             -2.0167    Z=              1.0904  Tot=              5.4242
 Quadrupole moment (field-independent basis, Debye-Ang):
   XX=           -122.3544   YY=            -93.0909   ZZ=            -93.0005
   XY=              8.5291   XZ=             -5.6626   YZ=             -2.4364

 Normal termination of Gaussian 16 at Thu May  6 07:25:40 2021.
