 Gaussian 16, Revision A.03,
 Gaussian 16:  EM64L-G16RevA.03 25-Dec-2016

 -------------
 #p 6-31g* mp2
 -------------

 ------------------------------------------------------
 Input file generated by CHIRIPA (05-May-2021 14:55:21)
 ------------------------------------------------------
 Symbolic Z-matrix:
 Charge =  0 Multiplicity = 1

                         Standard orientation:
 ---------------------------------------------------------------------
 Center     Atomic      Atomic             Coordinates (Angstroms)
 Number     Number       Type             X           Y           Z
 ---------------------------------------------------------------------
      1          6           0        4.926662    1.685296   -0.589539
      2          6           0        4.954637    0.375288   -1.079045
      3          6           0        4.028146   -0.570446   -0.629880
      4          6           0        3.083204   -0.170067    0.313555
      5          6           0        3.029677    1.127485    0.820294
      6          6           0        3.965965    2.056560    0.356899
      7          1           0        5.650187    2.413495   -0.943988
      8          1           0        5.699596    0.084141   -1.814106
      9          1           0        4.027167   -1.591354   -0.992047
     10          1           0        2.275151    1.388009    1.552575
     11          1           0        3.941866    3.073223    0.738816
     12          7           0        2.097184   -1.162455    0.796598
     13          8           0        1.274746   -0.784640    1.628157
     14          8           0        2.165449   -2.299312    0.334502
     15          6           0       -3.654971   -0.551951   -0.440781
     16          6           0       -2.229093   -0.049543   -0.669788
     17          6           0       -1.241307   -1.182159   -0.951310
     18          1           0       -3.657074   -1.259571    0.399584
     19          1           0       -3.984124   -1.115522   -1.324773
     20          1           0       -1.903235    0.514089    0.213813
     21          1           0       -2.230418    0.657109   -1.509583
     22          1           0       -1.539466   -1.740157   -1.844809
     23          1           0       -1.210423   -1.883991   -0.111620
     24          1           0       -0.228168   -0.800594   -1.111987
     25          6           0       -4.654050    0.568615   -0.158115
     26          6           0       -6.079929    0.066207    0.070891
     27          6           0       -7.067715    1.198822    0.352414
     28          1           0       -4.324899    1.132185    0.725877
     29          1           0       -4.651948    1.276235   -0.998481
     30          1           0       -6.078603   -0.640445    0.910687
     31          1           0       -6.405787   -0.497425   -0.812710
     32          1           0       -7.098599    1.900654   -0.487277
     33          1           0       -6.769556    1.756820    1.245912
     34          1           0       -8.080854    0.817257    0.513091
 ---------------------------------------------------------------------

 SCF Done:  E(RHF) =  -669.535839989     A.U. after   15 cycles
 E2 =    -0.2091642514D+01 EUMP2 =    -0.67162748250331D+03

 The electronic state is 1-A.
 Alpha  occ. eigenvalues --  -20.60852 -20.60846 -15.85867 -11.31244 -11.27811
 Alpha  occ. eigenvalues --  -11.27807 -11.27552 -11.26822 -11.26813 -11.21124
 Alpha  occ. eigenvalues --  -11.20818 -11.20716 -11.20694 -11.20622 -11.19912
 Alpha  occ. eigenvalues --   -1.59905  -1.39460  -1.19414  -1.08811  -1.07759
 Alpha  occ. eigenvalues --   -1.04814  -1.02813  -0.95648  -0.95253  -0.86271
 Alpha  occ. eigenvalues --   -0.86213  -0.82478  -0.78901  -0.77564  -0.77523
 Alpha  occ. eigenvalues --   -0.72100  -0.71244  -0.70521  -0.65067  -0.64817
 Alpha  occ. eigenvalues --   -0.64384  -0.62161  -0.60191  -0.58666  -0.56876
 Alpha  occ. eigenvalues --   -0.55319  -0.54519  -0.53144  -0.52906  -0.51959
 Alpha  occ. eigenvalues --   -0.51680  -0.49250  -0.48858  -0.48779  -0.47212
 Alpha  occ. eigenvalues --   -0.45921  -0.45098  -0.45008  -0.44854  -0.43087
 Alpha  occ. eigenvalues --   -0.37394  -0.36416
 Alpha virt. eigenvalues --    0.04985   0.11238   0.16461   0.21366   0.23510
 Alpha virt. eigenvalues --    0.24957   0.27239   0.27341   0.28049   0.28291
 Alpha virt. eigenvalues --    0.28644   0.30894   0.32126   0.32225   0.32449

 Mulliken charges:
               1
     1  C   -0.170632
     2  C   -0.218588
     3  C   -0.171020
     4  C    0.156863
     5  C   -0.170799
     6  C   -0.218557
     7  H    0.225830
     8  H    0.223695
     9  H    0.276042
    10  H    0.275697
    11  H    0.223680
    12  N    0.488950
    13  O   -0.459664
    14  O   -0.458567
    15  C   -0.298481
    16  C   -0.300637
    17  C   -0.469290
    18  H    0.152926
    19  H    0.147377
    20  H    0.154848
    21  H    0.144863
    22  H    0.148423
    23  H    0.173161
    24  H    0.148829
    25  C   -0.297679
    26  C   -0.299288
    27  C   -0.475315
    28  H    0.149076
    29  H    0.147027
    30  H    0.152706
    31  H    0.151079
    32  H    0.153787
    33  H    0.154588
    34  H    0.159074
 Sum of Mulliken charges =  -0.00000

 Dipole moment (field-independent basis, Debye):
    X=              3.6494    Y=              3.3902    Z=             -1.5807  Tot=              5.2259
 Quadrupole moment (field-independent basis, Debye-Ang):
   XX=            -74.3470   YY=            -94.2333   ZZ=            -93.8829
   XY=              9.6201   XZ=             -5.6150   YZ=              3.4835

 Normal termination of Gaussian 16 at Thu May  6 20:44:17 2021.
