 Gaussian 16, Revision A.03,
 Gaussian 16:  EM64L-G16RevA.03 25-Dec-2016

 -------------
 #p 6-31g* mp2
 -------------

 ------------------------------------------------------
 Input file generated by CHIRIPA (05-May-2021 14:55:22)
 ------------------------------------------------------
 Symbolic Z-matrix:
 Charge =  0 Multiplicity = 1

                         Standard orientation:
 ---------------------------------------------------------------------
 Center     Atomic      Atomic             Coordinates (Angstroms)
 Number     Number       Type             X           Y           Z
 ---------------------------------------------------------------------
      1          6           0       -2.434893   -2.195036    0.106131
      2          6           0       -1.878466   -1.224846   -0.733894
      3          6           0       -2.432230    0.057023   -0.802468
      4          6           0       -3.547367    0.335641   -0.013714
      5          6           0       -4.124560   -0.609467    0.832991
      6          6           0       -3.554191   -1.884797    0.885518
      7          1           0       -1.998266   -3.188284    0.153168
      8          1           0       -1.009209   -1.462963   -1.340307
      9          1           0       -2.021591    0.827098   -1.444168
     10          1           0       -4.991125   -0.342393    1.425575
     11          1           0       -3.988429   -2.636269    1.538796
     12          7           0       -4.142402    1.689238   -0.077817
     13          8           0       -5.124800    1.909619    0.627139
     14          8           0       -3.615126    2.504174   -0.831803
     15          6           0        4.898854    0.215922    0.472886
     16          6           0        5.946165    1.052835   -0.262438
     17          6           0        6.906656    1.766914    0.689056
     18          1           0        4.329504    0.866057    1.151199
     19          1           0        5.408869   -0.524594    1.104485
     20          1           0        5.434310    1.790640   -0.893521
     21          1           0        6.512961    0.400666   -0.939221
     22          1           0        7.443375    1.042405    1.310040
     23          1           0        6.358596    2.440277    1.356000
     24          1           0        7.646908    2.359343    0.142324
     25          6           0        3.931349   -0.504054   -0.464823
     26          6           0        2.884039   -1.340967    0.270502
     27          6           0        1.923547   -2.055047   -0.680993
     28          1           0        3.421334    0.236462   -1.096421
     29          1           0        4.500700   -1.154189   -1.143136
     30          1           0        2.317243   -0.688800    0.947285
     31          1           0        3.395893   -2.078772    0.901583
     32          1           0        2.471607   -2.728409   -1.347937
     33          1           0        1.386828   -1.330539   -1.301977
     34          1           0        1.183296   -2.647475   -0.134261
 ---------------------------------------------------------------------

 SCF Done:  E(RHF) =  -669.535239505     A.U. after   15 cycles
 E2 =    -0.2091239037D+01 EUMP2 =    -0.67162647854213D+03

 The electronic state is 1-A.
 Alpha  occ. eigenvalues --  -20.60734 -20.60729 -15.85785 -11.31139 -11.27699
 Alpha  occ. eigenvalues --  -11.27682 -11.27430 -11.26723 -11.26636 -11.22332
 Alpha  occ. eigenvalues --  -11.22172 -11.21934 -11.21899 -11.21761 -11.21293
 Alpha  occ. eigenvalues --   -1.59809  -1.39363  -1.19302  -1.08944  -1.08699
 Alpha  occ. eigenvalues --   -1.04702  -1.04091  -0.96573  -0.95539  -0.87610
 Alpha  occ. eigenvalues --   -0.86091  -0.82372  -0.80170  -0.78712  -0.77420
 Alpha  occ. eigenvalues --   -0.72004  -0.71132  -0.70415  -0.65588  -0.64952
 Alpha  occ. eigenvalues --   -0.64717  -0.62116  -0.61431  -0.59961  -0.58152
 Alpha  occ. eigenvalues --   -0.55886  -0.55190  -0.53366  -0.53053  -0.52983
 Alpha  occ. eigenvalues --   -0.52701  -0.50472  -0.48761  -0.48759  -0.48473
 Alpha  occ. eigenvalues --   -0.47164  -0.46266  -0.46158  -0.44771  -0.44333
 Alpha  occ. eigenvalues --   -0.37279  -0.36295
 Alpha virt. eigenvalues --    0.05099   0.11303   0.16574   0.20426   0.22570
 Alpha virt. eigenvalues --    0.23991   0.25531   0.26391   0.26510   0.27515
 Alpha virt. eigenvalues --    0.28931   0.29674   0.31205   0.31616   0.32374

 Mulliken charges:
               1
     1  C   -0.173795
     2  C   -0.220432
     3  C   -0.173365
     4  C    0.158825
     5  C   -0.171451
     6  C   -0.218360
     7  H    0.225584
     8  H    0.231724
     9  H    0.274828
    10  H    0.275315
    11  H    0.223102
    12  N    0.488081
    13  O   -0.460590
    14  O   -0.460694
    15  C   -0.299006
    16  C   -0.300172
    17  C   -0.476093
    18  H    0.151477
    19  H    0.150013
    20  H    0.153058
    21  H    0.152025
    22  H    0.155265
    23  H    0.156353
    24  H    0.161461
    25  C   -0.299260
    26  C   -0.299707
    27  C   -0.478836
    28  H    0.150279
    29  H    0.150351
    30  H    0.155640
    31  H    0.154219
    32  H    0.159103
    33  H    0.150199
    34  H    0.154860
 Sum of Mulliken charges =  -0.00000

 Dipole moment (field-independent basis, Debye):
    X=              2.3042    Y=             -4.7525    Z=              0.2641  Tot=              5.2882
 Quadrupole moment (field-independent basis, Debye-Ang):
   XX=           -107.2828   YY=            -97.9347   ZZ=            -93.3572
   XY=             17.9517   XZ=             -3.9152   YZ=             -1.2556

 Normal termination of Gaussian 16 at Thu May  6 19:11:16 2021.
