 Gaussian 16, Revision A.03,
 Gaussian 16:  EM64L-G16RevA.03 25-Dec-2016

 -------------
 #p 6-31g* mp2
 -------------

 ------------------------------------------------------
 Input file generated by CHIRIPA (05-May-2021 14:51:13)
 ------------------------------------------------------
 Symbolic Z-matrix:
 Charge =  0 Multiplicity = 1

                         Standard orientation:
 ---------------------------------------------------------------------
 Center     Atomic      Atomic             Coordinates (Angstroms)
 Number     Number       Type             X           Y           Z
 ---------------------------------------------------------------------
      1          6           0        3.828239    0.224104   -0.029519
      2          6           0        3.749084    1.692033   -0.450119
      3          6           0        5.049620    2.199172   -1.073986
      4          1           0        4.652998    0.098031    0.685200
      5          1           0        4.078451   -0.388457   -0.906764
      6          1           0        3.497735    2.301489    0.427379
      7          1           0        2.924296    1.814661   -1.163774
      8          1           0        5.302201    1.616134   -1.965541
      9          1           0        5.878898    2.105728   -0.365348
     10          1           0        4.970873    3.250655   -1.367318
     11          6           0        2.535717   -0.297439    0.595867
     12          6           0        2.614872   -1.765368    1.016467
     13          6           0        1.314336   -2.272507    1.640334
     14          1           0        2.285505    0.315122    1.473111
     15          1           0        1.710958   -0.171366   -0.118852
     16          1           0        3.439660   -1.887996    1.730121
     17          1           0        2.866221   -2.374824    0.138969
     18          1           0        0.485058   -2.179063    0.931696
     19          1           0        1.061756   -1.689468    2.531889
     20          1           0        1.393083   -3.323990    1.933665
     21          6           0       -3.778980    0.503158   -0.186179
     22          6           0       -3.441238    1.762012    0.613320
     23          6           0       -4.645756    2.685302    0.798972
     24          1           0       -4.173606    0.795497   -1.168906
     25          1           0       -4.584743   -0.042012    0.324636
     26          1           0       -2.635401    2.303926    0.101879
     27          1           0       -3.047190    1.466640    1.594187
     28          1           0       -5.450704    2.166454    1.329497
     29          1           0       -5.036574    3.008497   -0.171290
     30          1           0       -4.381893    3.578915    1.373160
     31          6           0       -2.584976   -0.429823   -0.380169
     32          6           0       -2.922719   -1.688677   -1.179668
     33          6           0       -1.718200   -2.611967   -1.365319
     34          1           0       -1.779213    0.115347   -0.890984
     35          1           0       -2.190350   -0.722161    0.602559
     36          1           0       -3.316765   -1.393306   -2.160534
     37          1           0       -3.728555   -2.230591   -0.668227
     38          1           0       -1.327381   -2.935162   -0.395057
     39          1           0       -0.913253   -2.093119   -1.895845
     40          1           0       -1.982063   -3.505580   -1.939507
 ---------------------------------------------------------------------

 SCF Done:  E(RHF) =  -470.733263679     A.U. after   11 cycles
 E2 =    -0.1582896074D+01 EUMP2 =    -0.47231615975291D+03

 The electronic state is 1-A.
 Alpha  occ. eigenvalues --  -11.21629 -11.21597 -11.21590 -11.21556 -11.21419
 Alpha  occ. eigenvalues --  -11.21374 -11.21359 -11.21312 -11.21108 -11.21068
 Alpha  occ. eigenvalues --  -11.21063 -11.20988  -1.08447  -1.08396  -1.03557
 Alpha  occ. eigenvalues --   -1.03489  -0.96015  -0.95935  -0.87042  -0.86945
 Alpha  occ. eigenvalues --   -0.79656  -0.79523  -0.78284  -0.78180  -0.65083
 Alpha  occ. eigenvalues --   -0.65025  -0.61014  -0.60849  -0.59382  -0.59301
 Alpha  occ. eigenvalues --   -0.57665  -0.57516  -0.55398  -0.55141  -0.52691
 Alpha  occ. eigenvalues --   -0.52648  -0.52508  -0.52298  -0.50071  -0.49775
 Alpha  occ. eigenvalues --   -0.48067  -0.47761  -0.46717  -0.46503  -0.45919
 Alpha  occ. eigenvalues --   -0.45729  -0.45688  -0.45515  -0.43800  -0.43754
 Alpha virt. eigenvalues --    0.21190   0.23157   0.23492   0.24961   0.25644
 Alpha virt. eigenvalues --    0.26295   0.27108   0.27736   0.28191   0.29186
 Alpha virt. eigenvalues --    0.30658   0.31487   0.31776   0.31838   0.31981

 Mulliken charges:
               1
     1  C   -0.298345
     2  C   -0.299519
     3  C   -0.475684
     4  H    0.149619
     5  H    0.149441
     6  H    0.151978
     7  H    0.151557
     8  H    0.155136
     9  H    0.155208
    10  H    0.160142
    11  C   -0.298833
    12  C   -0.298937
    13  C   -0.484180
    14  H    0.149478
    15  H    0.150265
    16  H    0.151631
    17  H    0.152031
    18  H    0.164123
    19  H    0.154403
    20  H    0.159539
    21  C   -0.298336
    22  C   -0.299677
    23  C   -0.475737
    24  H    0.149652
    25  H    0.149652
    26  H    0.152074
    27  H    0.152228
    28  H    0.155177
    29  H    0.155120
    30  H    0.160286
    31  C   -0.300231
    32  C   -0.299564
    33  C   -0.480977
    34  H    0.149237
    35  H    0.151802
    36  H    0.151970
    37  H    0.152203
    38  H    0.160958
    39  H    0.154275
    40  H    0.160838
 Sum of Mulliken charges =  -0.00000

 Dipole moment (field-independent basis, Debye):
    X=             -0.0322    Y=             -0.0075    Z=             -0.0039  Tot=              0.0333
 Quadrupole moment (field-independent basis, Debye-Ang):
   XX=            -85.9957   YY=            -85.3215   ZZ=            -83.4835
   XY=              0.4147   XZ=              0.6434   YZ=             -0.0495

 Normal termination of Gaussian 16 at Thu May  6 02:23:21 2021.
