 Gaussian 16, Revision A.03,
 Gaussian 16:  EM64L-G16RevA.03 25-Dec-2016

 -------------
 #p 6-31g* mp2
 -------------

 ------------------------------------------------------
 Input file generated by CHIRIPA (05-May-2021 14:51:14)
 ------------------------------------------------------
 Symbolic Z-matrix:
 Charge =  0 Multiplicity = 1

                         Standard orientation:
 ---------------------------------------------------------------------
 Center     Atomic      Atomic             Coordinates (Angstroms)
 Number     Number       Type             X           Y           Z
 ---------------------------------------------------------------------
      1          6           0       -2.520772    0.001346   -0.127153
      2          6           0       -3.928026    0.449735   -0.522841
      3          6           0       -4.001574    1.939957   -0.856940
      4          1           0       -2.185084    0.589517    0.737899
      5          1           0       -1.826650    0.228712   -0.948063
      6          1           0       -4.619532    0.220331    0.298017
      7          1           0       -4.260479   -0.139704   -1.386932
      8          1           0       -3.334345    2.181214   -1.690728
      9          1           0       -3.695439    2.543294    0.003796
     10          1           0       -5.016446    2.238968   -1.137096
     11          6           0       -2.431167   -1.485998    0.209753
     12          6           0       -1.023913   -1.934387    0.605442
     13          6           0       -0.950365   -3.424610    0.939541
     14          1           0       -3.125289   -1.713365    1.030663
     15          1           0       -2.766855   -2.074169   -0.655298
     16          1           0       -0.691461   -1.344948    1.469533
     17          1           0       -0.332407   -1.704983   -0.215417
     18          1           0       -1.256501   -4.027947    0.078805
     19          1           0       -1.617594   -3.665866    1.773328
     20          1           0        0.064507   -3.723620    1.219696
     21          6           0        1.900479    1.165178    0.229696
     22          6           0        2.240756    2.651644    0.341987
     23          6           0        1.079465    3.484502    0.885630
     24          1           0        1.024187    1.044340   -0.421807
     25          1           0        1.608696    0.787186    1.219333
     26          1           0        2.533142    3.026395   -0.647300
     27          1           0        3.116455    2.768942    0.993145
     28          1           0        0.790982    3.138221    1.883362
     29          1           0        0.204354    3.397135    0.233595
     30          1           0        1.344441    4.543961    0.957681
     31          6           0        3.051461    0.319475   -0.312297
     32          6           0        2.711183   -1.166992   -0.424588
     33          6           0        3.872474   -1.999849   -0.968231
     34          1           0        3.343242    0.697467   -1.301934
     35          1           0        3.927751    0.440312    0.339208
     36          1           0        1.835484   -1.284290   -1.075746
     37          1           0        2.418797   -1.541743    0.564700
     38          1           0        4.747585   -1.912483   -0.316195
     39          1           0        4.160957   -1.653567   -1.965962
     40          1           0        3.607498   -3.059309   -1.040282
 ---------------------------------------------------------------------

 SCF Done:  E(RHF) =  -470.732831471     A.U. after   11 cycles
 E2 =    -0.1584312963D+01 EUMP2 =    -0.47231714443398D+03

 The electronic state is 1-A.
 Alpha  occ. eigenvalues --  -11.21592 -11.21585 -11.21577 -11.21464 -11.21382
 Alpha  occ. eigenvalues --  -11.21374 -11.21313 -11.21304 -11.21072 -11.21070
 Alpha  occ. eigenvalues --  -11.21047 -11.21020  -1.08446  -1.08360  -1.03544
 Alpha  occ. eigenvalues --   -1.03463  -0.95970  -0.95941  -0.86988  -0.86956
 Alpha  occ. eigenvalues --   -0.79711  -0.79455  -0.78458  -0.77952  -0.65138
 Alpha  occ. eigenvalues --   -0.64941  -0.60984  -0.60835  -0.59446  -0.59210
 Alpha  occ. eigenvalues --   -0.57640  -0.57483  -0.55265  -0.55225  -0.52688
 Alpha  occ. eigenvalues --   -0.52618  -0.52399  -0.52359  -0.49942  -0.49864
 Alpha  occ. eigenvalues --   -0.48148  -0.47711  -0.46768  -0.46487  -0.46242
 Alpha  occ. eigenvalues --   -0.45836  -0.45518  -0.45058  -0.43771  -0.43729
 Alpha virt. eigenvalues --    0.21060   0.22646   0.23584   0.24058   0.24763
 Alpha virt. eigenvalues --    0.25985   0.27077   0.27499   0.28599   0.29860
 Alpha virt. eigenvalues --    0.30559   0.31063   0.31503   0.31877   0.32263

 Mulliken charges:
               1
     1  C   -0.299503
     2  C   -0.299613
     3  C   -0.475881
     4  H    0.151052
     5  H    0.149088
     6  H    0.152115
     7  H    0.151770
     8  H    0.154510
     9  H    0.155681
    10  H    0.160348
    11  C   -0.298298
    12  C   -0.305061
    13  C   -0.476419
    14  H    0.149058
    15  H    0.148965
    16  H    0.151775
    17  H    0.159997
    18  H    0.154626
    19  H    0.154788
    20  H    0.160221
    21  C   -0.300926
    22  C   -0.299720
    23  C   -0.476041
    24  H    0.152791
    25  H    0.150127
    26  H    0.151666
    27  H    0.151722
    28  H    0.154538
    29  H    0.156239
    30  H    0.160098
    31  C   -0.298340
    32  C   -0.303045
    33  C   -0.475345
    34  H    0.149073
    35  H    0.149460
    36  H    0.153954
    37  H    0.154295
    38  H    0.155121
    39  H    0.154940
    40  H    0.160172
 Sum of Mulliken charges =  -0.00000

 Dipole moment (field-independent basis, Debye):
    X=              0.0152    Y=              0.0052    Z=             -0.0000  Tot=              0.0160
 Quadrupole moment (field-independent basis, Debye-Ang):
   XX=            -85.3460   YY=            -86.5062   ZZ=            -83.1295
   XY=              0.6147   XZ=              0.3534   YZ=              0.0926

 Normal termination of Gaussian 16 at Wed May  5 15:23:05 2021.
