 Gaussian 16, Revision A.03,
 Gaussian 16:  EM64L-G16RevA.03 25-Dec-2016

 -------------
 #p 6-31g* mp2
 -------------

 ------------------------------------------------------
 Input file generated by CHIRIPA (05-May-2021 14:57:21)
 ------------------------------------------------------
 Symbolic Z-matrix:
 Charge =  0 Multiplicity = 1

                         Standard orientation:
 ---------------------------------------------------------------------
 Center     Atomic      Atomic             Coordinates (Angstroms)
 Number     Number       Type             X           Y           Z
 ---------------------------------------------------------------------
      1          6           0        1.914004    2.225197   -1.353432
      2          6           0        3.245607    2.078579   -0.951116
      3          6           0        3.671611    0.906152   -0.319861
      4          6           0        2.735133   -0.104017   -0.105715
      5          6           0        1.401593    0.012120   -0.494911
      6          6           0        0.997862    1.193319   -1.124449
      7          1           0        1.591725    3.139374   -1.843139
      8          1           0        3.959287    2.878292   -1.127653
      9          1           0        4.696466    0.766224    0.001871
     10          1           0        0.713262   -0.802534   -0.305291
     11          1           0       -0.036910    1.304416   -1.435816
     12          7           0        3.174335   -1.349856    0.561657
     13          8           0        2.329794   -2.225074    0.738804
     14          8           0        4.354805   -1.427537    0.894961
     15          6           0       -2.376941    1.856864    1.780885
     16          6           0       -1.653066    0.679076    1.993816
     17          6           0       -1.803468   -0.412208    1.132987
     18          6           0       -2.690378   -0.290622    0.064390
     19          6           0       -3.425723    0.869395   -0.174184
     20          6           0       -3.259404    1.948104    0.699471
     21          1           0       -2.253923    2.699715    2.454579
     22          1           0       -0.967023    0.605379    2.832838
     23          1           0       -1.255537   -1.335875    1.274514
     24          1           0       -4.102111    0.912957   -1.019181
     25          1           0       -3.822882    2.861546    0.531662
     26          7           0       -2.858027   -1.439259   -0.853720
     27          8           0       -3.645723   -1.306896   -1.787878
     28          8           0       -2.198560   -2.450174   -0.621791
 ---------------------------------------------------------------------

 SCF Done:  E(RHF) =  -868.337532281     A.U. after   16 cycles
 E2 =    -0.2602703300D+01 EUMP2 =    -0.87094023558136D+03

 The electronic state is 1-A.
 Alpha  occ. eigenvalues --  -20.61343 -20.61316 -20.60848 -20.60842 -15.86369
 Alpha  occ. eigenvalues --  -15.85894 -11.31849 -11.31236 -11.28413 -11.28303
 Alpha  occ. eigenvalues --  -11.28081 -11.27815 -11.27741 -11.27553 -11.27423
 Alpha  occ. eigenvalues --  -11.27323 -11.26841 -11.26769  -1.60407  -1.59923
 Alpha  occ. eigenvalues --   -1.39951  -1.39476  -1.20016  -1.19411  -1.09370
 Alpha  occ. eigenvalues --   -1.08816  -1.05402  -1.04794  -0.96188  -0.95650
 Alpha  occ. eigenvalues --   -0.86786  -0.86203  -0.82986  -0.82476  -0.78050
 Alpha  occ. eigenvalues --   -0.77524  -0.72559  -0.72111  -0.71760  -0.71253
 Alpha  occ. eigenvalues --   -0.71078  -0.70504  -0.65620  -0.65363  -0.65061
 Alpha  occ. eigenvalues --   -0.64792  -0.62744  -0.62117  -0.55850  -0.55338
 Alpha  occ. eigenvalues --   -0.53802  -0.53450  -0.53067  -0.52858  -0.49342
 Alpha  occ. eigenvalues --   -0.49326  -0.48868  -0.48866  -0.45313  -0.44884
 Alpha  occ. eigenvalues --   -0.37999  -0.37424  -0.37221  -0.36141
 Alpha virt. eigenvalues --    0.04342   0.05080   0.10489   0.11270   0.15919
 Alpha virt. eigenvalues --    0.16507   0.20699   0.21469   0.26175   0.27105
 Alpha virt. eigenvalues --    0.27552   0.28492   0.30268   0.30837   0.31577

 Mulliken charges:
               1
     1  C   -0.172338
     2  C   -0.219030
     3  C   -0.171610
     4  C    0.156735
     5  C   -0.175719
     6  C   -0.218628
     7  H    0.224468
     8  H    0.222824
     9  H    0.275214
    10  H    0.279817
    11  H    0.225452
    12  N    0.487590
    13  O   -0.460346
    14  O   -0.460356
    15  C   -0.171772
    16  C   -0.215031
    17  C   -0.186343
    18  C    0.155011
    19  C   -0.176361
    20  C   -0.219667
    21  H    0.227977
    22  H    0.230234
    23  H    0.287849
    24  H    0.276777
    25  H    0.224801
    26  N    0.486828
    27  O   -0.458852
    28  O   -0.455520
 Sum of Mulliken charges =  -0.00000

 Dipole moment (field-independent basis, Debye):
    X=             -1.0882    Y=              8.3706    Z=              1.0104  Tot=              8.5013
 Quadrupole moment (field-independent basis, Debye-Ang):
   XX=           -110.5019   YY=           -106.8805   ZZ=           -103.4269
   XY=              1.0464   XZ=            -12.8613   YZ=             -2.2363

 Normal termination of Gaussian 16 at Thu May  6 16:10:44 2021.
