 Gaussian 16, Revision A.03,
 Gaussian 16:  EM64L-G16RevA.03 25-Dec-2016

 -------------
 #p 6-31g* mp2
 -------------

 ------------------------------------------------------
 Input file generated by CHIRIPA (05-May-2021 14:57:22)
 ------------------------------------------------------
 Symbolic Z-matrix:
 Charge =  0 Multiplicity = 1

                         Standard orientation:
 ---------------------------------------------------------------------
 Center     Atomic      Atomic             Coordinates (Angstroms)
 Number     Number       Type             X           Y           Z
 ---------------------------------------------------------------------
      1          6           0        4.678815    2.383253    0.590673
      2          6           0        3.303648    2.139573    0.512855
      3          6           0        2.825731    0.876034    0.152837
      4          6           0        3.755283   -0.125280   -0.123915
      5          6           0        5.131416    0.086423   -0.055124
      6          6           0        5.586710    1.357709    0.306936
      7          1           0        5.041286    3.367810    0.871137
      8          1           0        2.596254    2.934132    0.732660
      9          1           0        1.766433    0.659958    0.084881
     10          1           0        5.812222   -0.725574   -0.280028
     11          1           0        6.655239    1.544080    0.366562
     12          7           0        3.261309   -1.467033   -0.506131
     13          8           0        4.100812   -2.332356   -0.745061
     14          8           0        2.043983   -1.627969   -0.559546
     15          6           0       -2.043793   -1.664117    0.892778
     16          6           0       -3.147727   -1.371594    1.700418
     17          6           0       -4.147158   -0.504058    1.249789
     18          6           0       -4.010028    0.055757   -0.019499
     19          6           0       -2.922113   -0.216083   -0.847650
     20          6           0       -1.934702   -1.086446   -0.376441
     21          1           0       -1.272080   -2.339137    1.250831
     22          1           0       -3.235079   -1.818766    2.686548
     23          1           0       -5.012340   -0.260297    1.854320
     24          1           0       -2.862752    0.245011   -1.826060
     25          1           0       -1.078479   -1.311809   -1.005837
     26          7           0       -5.061718    0.975675   -0.507454
     27          8           0       -4.917506    1.455927   -1.629593
     28          8           0       -6.010330    1.199034    0.241467
 ---------------------------------------------------------------------

 SCF Done:  E(RHF) =  -868.340233146     A.U. after   16 cycles
 E2 =    -0.2598369144D+01 EUMP2 =    -0.87093860229007D+03

 The electronic state is 1-A.
 Alpha  occ. eigenvalues --  -20.61716 -20.61641 -20.60484 -20.60479 -15.86727
 Alpha  occ. eigenvalues --  -15.85531 -11.31824 -11.30762 -11.28372 -11.28343
 Alpha  occ. eigenvalues --  -11.28034 -11.27331 -11.27305 -11.27295 -11.27266
 Alpha  occ. eigenvalues --  -11.26895 -11.26295 -11.26095  -1.60743  -1.59564
 Alpha  occ. eigenvalues --   -1.40310  -1.39121  -1.19967  -1.18898  -1.09406
 Alpha  occ. eigenvalues --   -1.08291  -1.05329  -1.04270  -0.96289  -0.95158
 Alpha  occ. eigenvalues --   -0.86739  -0.85646  -0.83137  -0.81992  -0.78217
 Alpha  occ. eigenvalues --   -0.77078  -0.72966  -0.72049  -0.71748  -0.71069
 Alpha  occ. eigenvalues --   -0.70889  -0.69941  -0.65626  -0.65323  -0.64524
 Alpha  occ. eigenvalues --   -0.64203  -0.62681  -0.61598  -0.55829  -0.54684
 Alpha  occ. eigenvalues --   -0.53673  -0.53415  -0.52628  -0.52312  -0.49718
 Alpha  occ. eigenvalues --   -0.49667  -0.48516  -0.48490  -0.45774  -0.44557
 Alpha  occ. eigenvalues --   -0.37926  -0.36922  -0.36849  -0.35898
 Alpha virt. eigenvalues --    0.04300   0.05430   0.10736   0.11727   0.15852
 Alpha virt. eigenvalues --    0.16970   0.20751   0.22082   0.26566   0.27222
 Alpha virt. eigenvalues --    0.28415   0.28953   0.30495   0.31457   0.32203

 Mulliken charges:
               1
     1  C   -0.169913
     2  C   -0.218491
     3  C   -0.171374
     4  C    0.157961
     5  C   -0.170601
     6  C   -0.218429
     7  H    0.228283
     8  H    0.226627
     9  H    0.272805
    10  H    0.276468
    11  H    0.225557
    12  N    0.492499
    13  O   -0.455368
    14  O   -0.475107
    15  C   -0.173815
    16  C   -0.219610
    17  C   -0.172731
    18  C    0.157904
    19  C   -0.174477
    20  C   -0.228274
    21  H    0.234023
    22  H    0.221755
    23  H    0.273428
    24  H    0.273804
    25  H    0.243113
    26  N    0.488047
    27  O   -0.462002
    28  O   -0.462081
 Sum of Mulliken charges =  -0.00000

 Dipole moment (field-independent basis, Debye):
    X=              5.8904    Y=              1.4655    Z=              3.0719  Tot=              6.8031
 Quadrupole moment (field-independent basis, Debye-Ang):
   XX=           -116.2702   YY=           -106.6257   ZZ=           -102.6317
   XY=             30.0822   XZ=             -4.9054   YZ=             -0.8940

 Normal termination of Gaussian 16 at Thu May  6 08:08:32 2021.
